INSANE! Membrane UpperLeaflet>loPI:POPI:DPPI:PYPI:ERGO=80.0:5.0:3.0:2.0:10.0 LowerLeaflet>PSPI:POPI:POPS:YOPS:POPE:YOPE:POPC:YOPC:ERGO=6.0:14.0:21.0:9.0:9.0:21.0:12.0:48.0:60.0
49377
    1loPI    C1    1   1.544   0.960   9.624 -0.1529 -0.0789  0.0354
    1loPI    C2    2   1.252   0.930   9.897 -0.1612  0.0028  0.0356
    1loPI    C3    3   1.197   1.150   9.567 -0.1107 -0.0056  0.0214
    1loPI   PO4    4   1.609   0.641   9.536  0.2495 -0.2187 -0.2418
    1loPI   GL1    5   1.290   0.342   9.307 -0.2198 -0.0063  0.1990
    1loPI   GL2    6   1.262   0.117   9.327 -0.0647  0.0437 -0.0412
    1loPI   C1A    7   1.459   0.443   8.943  0.0066  0.0868  0.1681
    1loPI   C2A    8   1.575   0.472   8.497 -0.0082 -0.0488 -0.1131
    1loPI   C3A    9   1.820   0.689   8.211 -0.2901 -0.3713 -0.1599
    1loPI   C4A   10   1.600   0.689   7.817 -0.1565  0.0481  0.1666
    1loPI   C5A   11   1.510   0.405   7.374 -0.0094 -0.1071 -0.1149
    1loPI   C6A   12   1.235   0.296   7.082 -0.3190 -0.1825  0.1922
    1loPI   C1B   13   1.065  -0.296   9.092 -0.1104 -0.2171 -0.0123
    1loPI   C2B   14   0.907  -0.271   8.622 -0.2168 -0.1047 -0.2126
    1loPI   C3B   15   0.890  -0.098   8.321 -0.1226  0.1184  0.2185
    1loPI   C4B   16   0.781  -0.212   8.063  0.3716  0.0847  0.0883
    2loPI    C1   17  12.497  18.898   9.614  0.2746  0.0712  0.0457
    2loPI    C2   18  12.649  18.530   9.655 -0.1527 -0.1313 -0.1218
    2loPI    C3   19  12.802  18.834   9.865  0.2719 -0.3809 -0.0567
    2loPI   PO4   20  12.541  18.877   9.355 -0.1468 -0.0866  0.0088
    2loPI   GL1   21  12.662  18.629   8.966  0.0816  0.2416  0.0352
    2loPI   GL2   22  12.939  18.826   8.888 -0.0148  0.0520 -0.0031
    2loPI   C1A   23  12.376  18.791   8.671  0.2518 -0.2214 -0.0267
    2loPI   C2A   24  12.410  18.775   8.279  0.0768 -0.1616  0.0929
    2loPI   C3A   25  12.344  18.846   7.833 -0.1583  0.1083 -0.1949
    2loPI   C4A   26  12.546  19.097   7.515 -0.4137  0.2251  0.1544
    2loPI   C5A   27  12.956  19.231   7.236  0.2039  0.0193 -0.0697
    2loPI   C6A   28  13.294  19.177   7.024  0.1720 -0.3227  0.2674
    2loPI   C1B   29  12.815  18.701   8.537  0.0769 -0.1060  0.1546
    2loPI   C2B   30  12.877  18.770   8.057  0.1593  0.2305 -0.0057
    2loPI   C3B   31  12.880  18.706   7.594  0.0966 -0.0138 -0.0617
    2loPI   C4B   32  13.005  18.377   7.261 -0.2709  0.1497  0.1327
    3loPI    C1   33   6.370   2.019   9.494  0.1512 -0.0476 -0.0438
    3loPI    C2   34   6.119   2.290   9.342  0.1056 -0.0189  0.0815
    3loPI    C3   35   6.201   2.291   9.733  0.1772 -0.1281  0.0672
    3loPI   PO4   36   6.626   1.994   9.375  0.0580 -0.2100 -0.0122
    3loPI   GL1   37   6.896   2.075   8.947 -0.0116  0.3421 -0.1615
    3loPI   GL2   38   7.202   1.924   8.950  0.1667 -0.1744 -0.2819
    3loPI   C1A   39   7.051   2.228   8.554 -0.0909 -0.4659  0.2855
    3loPI   C2A   40   7.189   2.228   8.042 -0.0933  0.0783  0.0223
    3loPI   C3A   41   6.990   2.161   7.710  0.0069  0.0261 -0.2156
    3loPI   C4A   42   7.059   2.062   7.281  0.0338 -0.0322 -0.1302
    3loPI   C5A   43   6.695   2.173   6.934 -0.0722  0.0633  0.3471
    3loPI   C6A   44   6.296   1.998   6.822  0.2932  0.1600  0.3448
    3loPI   C1B   45   7.086   1.729   8.572 -0.0168  0.4485 -0.3053
    3loPI   C2B   46   6.951   1.823   8.204  0.2828  0.0469 -0.1606
    3loPI   C3B   47   6.751   1.739   7.923 -0.0844  0.4280  0.1158
    3loPI   C4B   48   6.758   1.716   7.525  0.2571  0.3114 -0.3491
    4loPI    C1   49  15.734   6.317   9.750 -0.3215  0.3185  0.0084
    4loPI    C2   50  15.695   6.192  10.128  0.1494 -0.2011 -0.1011
    4loPI    C3   51  15.382   6.350   9.936 -0.1493 -0.1168  0.4350
    4loPI   PO4   52  15.780   6.203   9.566  0.0648  0.1320  0.0267
    4loPI   GL1   53  15.584   6.037   9.212 -0.0855  0.0051  0.3040
    4loPI   GL2   54  15.264   6.049   9.006 -0.1027  0.2042 -0.3464
    4loPI   C1A   55  15.679   6.055   8.768 -0.1278  0.3209 -0.1259
    4loPI   C2A   56  15.505   6.035   8.302 -0.1450  0.0028 -0.0634
    4loPI   C3A   57  15.472   6.337   8.007  0.4627  0.0277 -0.1856
    4loPI   C4A   58  15.623   6.325   7.597  0.0390  0.0938  0.1360
    4loPI   C5A   59  15.373   6.262   7.185 -0.1485  0.0969  0.3344
    4loPI   C6A   60  15.203   5.929   7.272  0.1082 -0.0346 -0.0628
    4loPI   C1B   61  15.141   5.975   8.632  0.0825 -0.2670  0.0953
    4loPI   C2B   62  15.037   5.981   8.106  0.2297  0.1644 -0.0251
    4loPI   C3B   63  14.880   6.115   7.836  0.1532  0.0049  0.1917
    4loPI   C4B   64  15.040   6.385   7.547 -0.3518 -0.0249  0.1242
    5loPI    C1   65   5.319  17.000  10.212 -0.0346  0.0740  0.1509
    5loPI    C2   66   5.684  16.850  10.271 -0.0722 -0.0083  0.1749
    5loPI    C3   67   5.381  16.736  10.505 -0.1433 -0.0498  0.0634
    5loPI   PO4   68   5.279  16.975  10.009 -0.0245  0.0976 -0.0117
    5loPI   GL1   69   5.297  16.864   9.586  0.0123 -0.1632 -0.0244
    5loPI   GL2   70   5.360  16.597   9.562  0.2871  0.0281  0.0128
    5loPI   C1A   71   5.412  17.080   9.298 -0.1043 -0.2613 -0.1653
    5loPI   C2A   72   5.464  17.323   8.906  0.0702 -0.0367 -0.4294
    5loPI   C3A   73   5.572  17.126   8.494  0.0142 -0.2210 -0.0780
    5loPI   C4A   74   5.665  17.006   8.088  0.0882 -0.2252  0.0938
    5loPI   C5A   75   5.905  17.081   7.782 -0.1460 -0.0168  0.2884
    5loPI   C6A   76   6.342  17.171   7.617 -0.2074  0.0550 -0.0071
    5loPI   C1B   77   5.149  16.687   9.128 -0.0115  0.0628 -0.0953
    5loPI   C2B   78   5.227  16.868   8.736 -0.1840  0.2534 -0.0444
    5loPI   C3B   79   5.344  16.703   8.287 -0.1044 -0.1770  0.0674
    5loPI   C4B   80   5.453  16.577   7.815  0.3834  0.0001 -0.0708
    6loPI    C1   81   1.830   1.878   9.746 -0.2690 -0.0802  0.2150
    6loPI    C2   82   1.921   2.017  10.109 -0.0719 -0.0206  0.1440
    6loPI    C3   83   2.194   1.816   9.898 -0.0401  0.3183 -0.1477
    6loPI   PO4   84   1.612   2.052   9.653  0.4021 -0.1250 -0.1062
    6loPI   GL1   85   1.793   2.207   9.341 -0.2090  0.1756 -0.0730
    6loPI   GL2   86   1.702   2.474   9.190  0.1421 -0.0709 -0.0134
    6loPI   C1A   87   2.045   2.149   8.948  0.3861 -0.1666  0.1006
    6loPI   C2A   88   2.108   2.159   8.433 -0.0763  0.1386 -0.2913
    6loPI   C3A   89   2.583   2.180   8.313 -0.4278  0.1078 -0.1031
    6loPI   C4A   90   2.768   2.022   7.876  0.1125 -0.1764  0.1949
    6loPI   C5A   91   2.981   2.118   7.460  0.1160  0.1161  0.1224
    6loPI   C6A   92   2.700   2.041   7.084  0.0320  0.0064 -0.2564
    6loPI   C1B   93   1.852   2.557   8.659 -0.0595 -0.0496  0.1883
    6loPI   C2B   94   1.861   2.549   8.159 -0.2409  0.0484 -0.1583
    6loPI   C3B   95   1.792   2.587   7.769  0.0263 -0.2912 -0.2180
    6loPI   C4B   96   1.626   2.446   7.359 -0.1526 -0.4945  0.1833
    7loPI    C1   97   1.099  12.116   9.963 -0.0097 -0.1246 -0.1277
    7loPI    C2   98   0.910  12.015  10.301 -0.0916  0.1437 -0.0910
    7loPI    C3   99   1.143  11.749  10.114 -0.1167 -0.0344  0.1279
    7loPI   PO4  100   0.904  12.319   9.770 -0.1211 -0.0197  0.1269
    7loPI   GL1  101   1.171  12.417   9.499  0.1251 -0.0433  0.0464
    7loPI   GL2  102   1.295  12.767   9.417 -0.0538  0.3048  0.1255
    7loPI   C1A  103   1.126  12.326   9.007 -0.1096  0.2924 -0.1998
    7loPI   C2A  104   0.997  12.276   8.605 -0.1410  0.0654  0.1484
    7loPI   C3A  105   0.970  12.588   8.291 -0.0020 -0.0490  0.1826
    7loPI   C4A  106   1.047  12.769   7.899  0.0777 -0.1484 -0.0216
    7loPI   C5A  107   0.899  12.953   7.483  0.1091  0.1036 -0.2804
    7loPI   C6A  108   0.559  12.922   7.117 -0.2972 -0.3020 -0.1516
    7loPI   C1B  109   1.176  12.814   8.958  0.2551  0.4496  0.2903
    7loPI   C2B  110   1.297  12.814   8.495 -0.0212 -0.1822  0.0472
    7loPI   C3B  111   1.553  12.775   8.136  0.0121 -0.0891 -0.2312
    7loPI   C4B  112   1.513  12.916   7.698 -0.2267  0.0611 -0.4005
    8loPI    C1  113  13.327  18.439   9.839 -0.0180 -0.0514  0.1042
    8loPI    C2  114  13.217  18.622  10.177 -0.2434  0.0975 -0.0472
    8loPI    C3  115  13.553  18.405  10.168 -0.2442  0.0773  0.2756
    8loPI   PO4  116  13.211  18.570   9.717  0.2278 -0.1014  0.0556
    8loPI   GL1  117  13.330  18.592   9.256  0.0179 -0.3429 -0.1433
    8loPI   GL2  118  13.047  18.460   9.268 -0.1058  0.2993 -0.0759
    8loPI   C1A  119  13.614  18.597   8.864 -0.3049 -0.1930  0.2098
    8loPI   C2A  120  13.862  18.816   8.635 -0.0218 -0.1718  0.0377
    8loPI   C3A  121  14.205  18.646   8.312  0.4017  0.0397 -0.2020
    8loPI   C4A  122  14.026  18.586   7.837 -0.4139  0.0156 -0.0703
    8loPI   C5A  123  13.710  18.588   7.701 -0.1442 -0.2705 -0.1504
    8loPI   C6A  124  13.262  18.577   7.840 -0.0316 -0.2746  0.0308
    8loPI   C1B  125  13.125  18.360   8.782  0.0041 -0.2150  0.0561
    8loPI   C2B  126  13.426  18.278   8.384 -0.3554  0.0089 -0.1955
    8loPI   C3B  127  13.517  18.195   7.979  0.0267 -0.0713 -0.0383
    8loPI   C4B  128  13.391  18.167   7.494  0.1046  0.2295 -0.0355
    9loPI    C1  129   2.492   3.206   9.787  0.1777  0.0215 -0.1184
    9loPI    C2  130   2.529   3.499  10.057  0.3554  0.1508 -0.2801
    9loPI    C3  131   2.760   3.174  10.082 -0.0043 -0.0894  0.0369
    9loPI   PO4  132   2.458   3.334   9.593  0.1089  0.2323  0.0889
    9loPI   GL1  133   2.521   3.489   9.235 -0.2062  0.1132 -0.4689
    9loPI   GL2  134   2.802   3.311   9.174  0.2414 -0.0444  0.0759
    9loPI   C1A  135   2.311   3.383   8.754  0.0073  0.0554 -0.1197
    9loPI   C2A  136   2.271   3.438   8.317 -0.3785 -0.0020 -0.2041
    9loPI   C3A  137   2.335   3.460   7.807 -0.1487 -0.0241  0.1160
    9loPI   C4A  138   2.185   3.487   7.395 -0.0414  0.3458 -0.0511
    9loPI   C5A  139   2.479   3.494   6.962  0.2535 -0.0502 -0.0870
    9loPI   C6A  140   2.239   3.677   6.625  0.3988  0.4492 -0.1402
    9loPI   C1B  141   2.910   3.397   8.737  0.1162 -0.1460 -0.4765
    9loPI   C2B  142   2.864   3.379   8.325  0.1106  0.0258 -0.2527
    9loPI   C3B  143   2.632   3.086   8.002 -0.1410  0.0105 -0.0755
    9loPI   C4B  144   2.502   3.034   7.635 -0.0487 -0.0184 -0.2072
   10loPI    C1  145   0.268   4.086   9.957 -0.0273  0.0306  0.1151
   10loPI    C2  146   0.215   3.694   9.898  0.1594  0.0139  0.0512
   10loPI    C3  147   0.180   3.849  10.266 -0.0772 -0.0354  0.0505
   10loPI   PO4  148   0.142   4.246   9.748 -0.3815 -0.0983  0.1509
   10loPI   GL1  149  -0.027   4.223   9.360  0.3851 -0.4196 -0.2018
   10loPI   GL2  150  -0.001   4.479   9.298  0.0150  0.2907 -0.1117
   10loPI   C1A  151   0.122   4.095   8.920  0.0441 -0.2469  0.1009
   10loPI   C2A  152   0.006   4.283   8.528  0.0903  0.1233 -0.0063
   10loPI   C3A  153  -0.048   4.243   8.072 -0.2440  0.1245  0.2739
   10loPI   C4A  154  -0.256   4.105   7.701  0.4001 -0.0765  0.1336
   10loPI   C5A  155  -0.389   4.208   7.277 -0.4244  0.4130 -0.0328
   10loPI   C6A  156  -0.760   3.967   7.127 -0.1443  0.0337  0.0309
   10loPI   C1B  157   0.257   4.718   8.825  0.1431  0.1429 -0.3495
   10loPI   C2B  158   0.403   4.632   8.384  0.2179 -0.3967  0.1424
   10loPI   C3B  159   0.376   4.557   7.918 -0.2800 -0.2728  0.3063
   10loPI   C4B  160   0.489   4.731   7.644  0.1748 -0.1875 -0.0481
   11loPI    C1  161  15.654   7.406   9.734 -0.1470  0.0085  0.1380
   11loPI    C2  162  15.413   7.156   9.534  0.0525  0.1529 -0.2966
   11loPI    C3  163  15.505   7.083   9.917 -0.2635 -0.1815 -0.2792
   11loPI   PO4  164  15.803   7.462   9.543 -0.2151 -0.0699 -0.0420
   11loPI   GL1  165  15.847   7.323   9.125 -0.4481  0.0073 -0.0376
   11loPI   GL2  166  15.776   7.090   9.246 -0.3934 -0.1563  0.1340
   11loPI   C1A  167  15.644   7.495   8.694  0.0423  0.1896 -0.1354
   11loPI   C2A  168  15.691   7.625   8.291 -0.4493  0.0334  0.0780
   11loPI   C3A  169  15.412   7.767   7.979  0.0191 -0.2578 -0.1028
   11loPI   C4A  170  15.166   7.868   7.610 -0.0808 -0.2660  0.1270
   11loPI   C5A  171  15.031   8.139   7.281  0.0013  0.0277 -0.1665
   11loPI   C6A  172  15.246   8.482   7.287 -0.0401  0.1246  0.0155
   11loPI   C1B  173  15.544   7.036   8.881 -0.3379 -0.1302 -0.0070
   11loPI   C2B  174  15.545   6.926   8.401 -0.1612 -0.2853 -0.1282
   11loPI   C3B  175  15.296   6.824   7.997 -0.2694 -0.1640  0.1047
   11loPI   C4B  176  15.465   6.789   7.547  0.4196 -0.1416  0.0963
   12loPI    C1  177   1.945   6.362   9.846 -0.1176 -0.1126  0.0991
   12loPI    C2  178   1.622   6.168   9.981 -0.2500  0.1082  0.1030
   12loPI    C3  179   1.686   6.549  10.086  0.0895  0.0226  0.2208
   12loPI   PO4  180   1.942   6.398   9.589 -0.1294 -0.1188  0.3088
   12loPI   GL1  181   2.150   6.308   9.282 -0.0261 -0.2400  0.0863
   12loPI   GL2  182   2.423   6.460   9.252  0.3575 -0.1198  0.3736
   12loPI   C1A  183   2.029   6.578   8.932  0.2071  0.0825 -0.1590
   12loPI   C2A  184   1.823   6.818   8.670  0.1207 -0.1019 -0.1897
   12loPI   C3A  185   1.827   6.803   8.325 -0.3936 -0.1270  0.0007
   12loPI   C4A  186   2.007   6.707   7.912 -0.2979 -0.0087  0.0029
   12loPI   C5A  187   2.255   6.881   7.473  0.0529 -0.2455  0.3688
   12loPI   C6A  188   2.541   7.027   7.105 -0.0719  0.1429 -0.3602
   12loPI   C1B  189   2.415   6.850   9.009 -0.1403  0.1444 -0.0204
   12loPI   C2B  190   2.536   7.136   8.799  0.0529 -0.1642  0.5150
   12loPI   C3B  191   2.364   7.139   8.367 -0.3776 -0.1308  0.0236
   12loPI   C4B  192   2.281   7.219   7.931 -0.2629  0.0904 -0.2389
   13loPI    C1  193   1.891  14.900   9.953 -0.3292  0.1225 -0.1659
   13loPI    C2  194   1.826  14.810  10.337  0.0900  0.2202 -0.0678
   13loPI    C3  195   2.200  14.845  10.200 -0.0469 -0.1838 -0.5748
   13loPI   PO4  196   1.615  14.726   9.836 -0.0696 -0.0614 -0.1517
   13loPI   GL1  197   1.396  14.620   9.527  0.1246 -0.0353  0.3691
   13loPI   GL2  198   1.524  14.870   9.343  0.0233 -0.0801 -0.1054
   13loPI   C1A  199   1.466  14.431   9.069  0.0341 -0.0266 -0.1030
   13loPI   C2A  200   1.169  14.285   8.695  0.1312 -0.2232 -0.1038
   13loPI   C3A  201   1.316  14.287   8.271 -0.3408 -0.1871 -0.2095
   13loPI   C4A  202   1.399  14.255   7.852  0.0075 -0.0432  0.0755
   13loPI   C5A  203   1.738  14.353   7.590  0.3085 -0.0637  0.0225
   13loPI   C6A  204   1.925  14.134   7.241 -0.1504 -0.0204  0.0899
   13loPI   C1B  205   1.594  14.934   8.930  0.1798  0.0203  0.3477
   13loPI   C2B  206   1.439  14.663   8.599 -0.0019 -0.1271  0.0839
   13loPI   C3B  207   1.696  14.623   8.149 -0.1250  0.0778  0.0534
   13loPI   C4B  208   2.025  14.631   7.837  0.1350  0.1075  0.0989
   14loPI    C1  209   0.394  17.302  10.103  0.2983 -0.1925 -0.0452
   14loPI    C2  210   0.335  17.697  10.107  0.3096 -0.1913  0.0234
   14loPI    C3  211   0.487  17.515  10.429  0.2621 -0.2579  0.0082
   14loPI   PO4  212   0.192  17.234   9.953  0.1275  0.2689 -0.3275
   14loPI   GL1  213   0.137  16.966   9.640 -0.0379 -0.1716  0.0478
   14loPI   GL2  214   0.107  16.629   9.596  0.0500 -0.3951  0.0967
   14loPI   C1A  215   0.300  16.997   9.228 -0.1206  0.1522  0.0051
   14loPI   C2A  216   0.356  17.102   8.758 -0.0240  0.0188  0.0323
   14loPI   C3A  217   0.398  16.939   8.360 -0.0638 -0.2293 -0.0002
   14loPI   C4A  218   0.328  16.918   7.912  0.1821 -0.1186  0.1135
   14loPI   C5A  219   0.041  17.069   7.666  0.1452 -0.0114 -0.0101
   14loPI   C6A  220  -0.271  17.035   7.256  0.2863 -0.0131 -0.2431
   14loPI   C1B  221  -0.088  16.615   9.117 -0.0360  0.0580 -0.0890
   14loPI   C2B  222   0.046  16.719   8.664 -0.1675 -0.0130 -0.3838
   14loPI   C3B  223  -0.038  16.710   8.178  0.0841  0.1926  0.2027
   14loPI   C4B  224   0.160  16.493   7.956 -0.1039  0.0488  0.2399
   15loPI    C1  225  11.885  16.243   9.805 -0.0113  0.0714  0.1487
   15loPI    C2  226  12.268  16.215   9.693 -0.0267 -0.0641  0.1270
   15loPI    C3  227  12.175  16.373  10.048  0.0371  0.1409  0.0545
   15loPI   PO4  228  11.798  16.345   9.594 -0.3291 -0.2792  0.1337
   15loPI   GL1  229  11.629  16.604   9.250 -0.1295 -0.2274 -0.1648
   15loPI   GL2  230  11.560  16.319   9.153  0.1418  0.0869  0.1259
   15loPI   C1A  231  11.558  16.736   8.857 -0.2019 -0.0084  0.1494
   15loPI   C2A  232  11.588  16.616   8.427  0.2717 -0.1335 -0.1453
   15loPI   C3A  233  11.608  16.276   8.151 -0.0288  0.2505 -0.2085
   15loPI   C4A  234  11.461  16.241   7.807 -0.0706  0.0593  0.3144
   15loPI   C5A  235  11.582  16.359   7.307 -0.0480  0.2727 -0.2638
   15loPI   C6A  236  11.969  16.573   7.274  0.3280  0.2225  0.1725
   15loPI   C1B  237  11.539  16.155   8.769  0.1202 -0.0751 -0.0342
   15loPI   C2B  238  11.639  15.892   8.497  0.0277  0.1333  0.0807
   15loPI   C3B  239  11.644  15.815   8.024 -0.0928  0.1179 -0.4647
   15loPI   C4B  240  11.755  15.836   7.566  0.2782  0.1480 -0.5032
   16loPI    C1  241  16.199  12.217   9.727 -0.0865 -0.2069  0.1756
   16loPI    C2  242  16.120  11.837   9.823  0.0001 -0.3218 -0.1908
   16loPI    C3  243  16.481  11.991   9.897 -0.0022 -0.3423 -0.1367
   16loPI   PO4  244  16.061  12.315   9.521  0.2965  0.1741  0.1641
   16loPI   GL1  245  16.052  12.202   9.137  0.4576  0.0753 -0.1227
   16loPI   GL2  246  15.813  12.345   8.836  0.2386 -0.0394  0.3358
   16loPI   C1A  247  16.136  12.003   8.717 -0.0598 -0.4975 -0.0191
   16loPI   C2A  248  16.057  12.012   8.199 -0.3531 -0.2592 -0.1819
   16loPI   C3A  249  16.153  12.031   7.748  0.2013 -0.1461 -0.2761
   16loPI   C4A  250  16.045  11.899   7.384 -0.1760 -0.0332  0.2232
   16loPI   C5A  251  15.832  11.530   7.154  0.1241  0.2052 -0.3170
   16loPI   C6A  252  16.009  11.256   6.764  0.1281 -0.2319 -0.1456
   16loPI   C1B  253  15.707  12.295   8.441  0.0908 -0.0917  0.2142
   16loPI   C2B  254  15.726  12.261   7.961  0.1293 -0.0979  0.1889
   16loPI   C3B  255  15.820  12.367   7.521  0.1029 -0.0716  0.1489
   16loPI   C4B  256  16.208  12.312   7.133 -0.3511  0.0124 -0.2893
   17loPI    C1  257  12.987   6.004   9.981 -0.1567  0.0270  0.0619
   17loPI    C2  258  12.607   5.879   9.980 -0.1400 -0.0245  0.0814
   17loPI    C3  259  12.811   5.896  10.324 -0.1352  0.0362  0.0758
   17loPI   PO4  260  13.077   5.911   9.768 -0.3420 -0.1169  0.1179
   17loPI   GL1  261  13.129   5.844   9.282 -0.3503  0.0940 -0.3569
   17loPI   GL2  262  12.890   5.860   9.133  0.0764 -0.5610  0.1686
   17loPI   C1A  263  13.654   5.840   9.156  0.0890  0.4724 -0.1454
   17loPI   C2A  264  13.890   5.863   8.730  0.2063 -0.1369  0.0231
   17loPI   C3A  265  13.979   5.737   8.351  0.0130 -0.0033 -0.4259
   17loPI   C4A  266  14.115   5.873   7.930 -0.0591 -0.4120  0.0306
   17loPI   C5A  267  14.197   6.054   7.538  0.1636  0.2242 -0.2108
   17loPI   C6A  268  14.242   6.121   7.144  0.4585 -0.3298  0.2691
   17loPI   C1B  269  13.066   6.064   8.793  0.1278 -0.2271 -0.0811
   17loPI   C2B  270  13.045   6.006   8.300  0.2612  0.1387 -0.0560
   17loPI   C3B  271  12.978   5.667   8.053  0.0359  0.0337 -0.1118
   17loPI   C4B  272  12.794   5.679   7.678 -0.3471 -0.1471  0.0878
   18loPI    C1  273  12.919   5.463  10.156 -0.1353 -0.2891 -0.1011
   18loPI    C2  274  13.168   5.220  10.354  0.0626  0.0642  0.0937
   18loPI    C3  275  12.861   5.391  10.546  0.1891  0.3196  0.0719
   18loPI   PO4  276  12.974   5.364   9.879 -0.0864 -0.2606  0.1717
   18loPI   GL1  277  13.162   5.359   9.408 -0.0013  0.3114  0.4396
   18loPI   GL2  278  13.042   5.139   9.344  0.2108  0.0175  0.1304
   18loPI   C1A  279  13.208   5.461   8.968  0.2524 -0.0782 -0.0828
   18loPI   C2A  280  13.383   5.726   8.661  0.1465  0.2161  0.3280
   18loPI   C3A  281  13.482   5.790   8.241  0.0403 -0.2030  0.0621
   18loPI   C4A  282  13.383   5.577   7.790  0.2860  0.1057  0.0359
   18loPI   C5A  283  13.180   5.424   7.574 -0.0402 -0.0214  0.2803
   18loPI   C6A  284  12.828   5.217   7.295  0.0345 -0.2893  0.1277
   18loPI   C1B  285  12.747   5.405   9.048  0.2372 -0.2281 -0.6080
   18loPI   C2B  286  12.374   5.430   8.663  0.1223  0.0285 -0.2385
   18loPI   C3B  287  12.504   5.497   8.216  0.1633 -0.0192  0.0628
   18loPI   C4B  288  12.579   5.287   7.804 -0.2238 -0.0900 -0.1213
   19loPI    C1  289  11.408   2.655  10.139  0.0956  0.0212 -0.0286
   19loPI    C2  290  11.107   2.418  10.254  0.2528 -0.1148  0.1091
   19loPI    C3  291  11.212   2.731  10.480  0.0271  0.1073 -0.0868
   19loPI   PO4  292  11.335   2.720   9.885 -0.3919  0.1181 -0.1402
   19loPI   GL1  293  11.174   2.744   9.502  0.0313 -0.1277  0.1384
   19loPI   GL2  294  11.396   2.980   9.460  0.1363 -0.0422  0.1522
   19loPI   C1A  295  11.016   2.815   9.090  0.2681 -0.3387 -0.1355
   19loPI   C2A  296  10.957   2.700   8.768  0.3050 -0.0214  0.0037
   19loPI   C3A  297  10.919   2.813   8.310  0.2945  0.1198  0.0717
   19loPI   C4A  298  11.022   2.866   7.863  0.0350 -0.2090 -0.0969
   19loPI   C5A  299  11.148   3.164   7.459 -0.2306  0.0071  0.0107
   19loPI   C6A  300  11.339   3.468   7.165  0.1281 -0.0709 -0.0157
   19loPI   C1B  301  11.527   2.861   9.148  0.0658 -0.0889  0.0090
   19loPI   C2B  302  11.464   2.857   8.754 -0.3760  0.0561  0.0742
   19loPI   C3B  303  11.454   2.739   8.275  0.1346  0.1143  0.1995
   19loPI   C4B  304  11.536   2.843   7.872 -0.4042  0.1874 -0.1988
   20loPI    C1  305   2.297   5.672   9.690 -0.0520 -0.1547  0.1645
   20loPI    C2  306   2.023   5.905   9.515  0.1974  0.0417  0.0302
   20loPI    C3  307   2.020   5.857   9.912  0.0956  0.2112  0.0511
   20loPI   PO4  308   2.585   5.763   9.771 -0.1468 -0.3064  0.0377
   20loPI   GL1  309   2.816   6.045   9.391  0.5251  0.0949 -0.0508
   20loPI   GL2  310   2.642   5.732   9.286  0.1111 -0.0821 -0.1475
   20loPI   C1A  311   2.857   6.101   8.944  0.0217  0.0760  0.2449
   20loPI   C2A  312   3.178   6.213   8.636  0.3383  0.2937  0.1079
   20loPI   C3A  313   3.283   6.334   8.219  0.0269 -0.4063 -0.2792
   20loPI   C4A  314   3.528   6.374   7.882  0.3139 -0.2825 -0.0721
   20loPI   C5A  315   3.621   6.507   7.424  0.0680 -0.2379  0.1138
   20loPI   C6A  316   3.943   6.547   7.149 -0.1914 -0.1841 -0.1318
   20loPI   C1B  317   2.410   5.844   8.968 -0.0943 -0.0124 -0.0790
   20loPI   C2B  318   2.328   5.639   8.615  0.0007  0.2826 -0.1139
   20loPI   C3B  319   2.163   5.597   8.213 -0.1473 -0.1966  0.1684
   20loPI   C4B  320   2.345   5.787   7.796  0.3323 -0.1001 -0.2848
   21loPI    C1  321   8.891   7.290  10.470 -0.3403 -0.1446  0.1241
   21loPI    C2  322   9.256   7.259  10.631 -0.1568 -0.3935 -0.3195
   21loPI    C3  323   8.941   7.094  10.815  0.0135 -0.5014 -0.1211
   21loPI   PO4  324   8.988   7.303  10.152  0.0945 -0.0965  0.0141
   21loPI   GL1  325   9.159   7.643   9.908  0.1570 -0.0958  0.1828
   21loPI   GL2  326   9.386   7.711   9.918  0.1612  0.0688 -0.1026
   21loPI   C1A  327   8.968   7.571   9.452 -0.5324 -0.3127 -0.0941
   21loPI   C2A  328   8.833   7.542   9.046 -0.0535  0.2374  0.0841
   21loPI   C3A  329   8.653   7.866   8.714  0.1462  0.2711  0.0113
   21loPI   C4A  330   8.792   7.972   8.362  0.3298 -0.1149  0.3969
   21loPI   C5A  331   8.968   7.963   7.904 -0.2076  0.0981 -0.0927
   21loPI   C6A  332   9.038   7.759   7.467 -0.1541  0.0219 -0.0626
   21loPI   C1B  333   9.512   7.567   9.508  0.3941  0.0518 -0.2420
   21loPI   C2B  334   9.293   7.383   9.133 -0.3946 -0.2680 -0.0582
   21loPI   C3B  335   9.200   7.451   8.713 -0.1542 -0.1430 -0.0627
   21loPI   C4B  336   8.818   7.479   8.477 -0.1494  0.0632 -0.0234
   22loPI    C1  337  13.777  17.641  10.078 -0.3075  0.0286 -0.1008
   22loPI    C2  338  13.580  17.446  10.366  0.4164 -0.1897  0.2723
   22loPI    C3  339  13.538  17.842  10.327 -0.2558 -0.2574  0.1857
   22loPI   PO4  340  13.813  17.483   9.833  0.1996  0.1079 -0.0806
   22loPI   GL1  341  13.566  17.632   9.469 -0.4075 -0.0985 -0.1997
   22loPI   GL2  342  13.335  17.480   9.638  0.2071 -0.1014 -0.1241
   22loPI   C1A  343  13.608  17.507   9.104 -0.1842 -0.1426 -0.1289
   22loPI   C2A  344  13.335  17.388   8.754  0.1255 -0.2682 -0.0298
   22loPI   C3A  345  13.223  17.390   8.410  0.2470 -0.2139  0.3786
   22loPI   C4A  346  13.266  17.574   8.003  0.0410  0.0080 -0.0181
   22loPI   C5A  347  13.407  17.557   7.630 -0.1704  0.2674 -0.1226
   22loPI   C6A  348  13.688  17.850   7.274 -0.1543 -0.1503 -0.0445
   22loPI   C1B  349  13.153  17.350   9.307  0.4105 -0.0924  0.1207
   22loPI   C2B  350  12.795  17.543   9.133 -0.3230  0.1881 -0.0956
   22loPI   C3B  351  12.770  17.637   8.690  0.3682 -0.0096 -0.0257
   22loPI   C4B  352  12.581  17.505   8.311 -0.0401  0.1049 -0.1850
   23loPI    C1  353   6.203  11.850  10.183  0.0668 -0.1411  0.1317
   23loPI    C2  354   5.825  11.824  10.054  0.0706  0.1372  0.0580
   23loPI    C3  355   5.967  11.555  10.314 -0.2162  0.1037  0.1834
   23loPI   PO4  356   6.351  11.942   9.907  0.0313  0.1472 -0.0351
   23loPI   GL1  357   6.328  11.612   9.512 -0.1203 -0.1570 -0.3714
   23loPI   GL2  358   6.047  11.789   9.547  0.0524 -0.0825 -0.1178
   23loPI   C1A  359   6.082  11.431   9.238  0.1330 -0.1072 -0.3144
   23loPI   C2A  360   5.665  11.387   8.998 -0.1518 -0.0201 -0.0843
   23loPI   C3A  361   5.523  11.336   8.529 -0.3595 -0.0160 -0.1949
   23loPI   C4A  362   5.527  11.363   7.980 -0.0247 -0.5492 -0.3033
   23loPI   C5A  363   5.368  11.010   7.676  0.2277  0.0449 -0.1595
   23loPI   C6A  364   5.396  10.726   7.423 -0.3434 -0.2380  0.2493
   23loPI   C1B  365   5.774  11.863   9.258 -0.0938  0.0786 -0.0753
   23loPI   C2B  366   5.492  11.888   9.014 -0.1410  0.0825  0.1334
   23loPI   C3B  367   5.327  12.079   8.770 -0.1303  0.2531  0.0272
   23loPI   C4B  368   5.387  12.026   8.372 -0.0776  0.0427  0.0773
   24loPI    C1  369   1.215   4.761   9.888  0.1007 -0.2021  0.0953
   24loPI    C2  370   1.049   4.566   9.581  0.0176  0.1585 -0.0940
   24loPI    C3  371   1.073   4.390   9.939 -0.0552 -0.1953 -0.2582
   24loPI   PO4  372   1.296   5.043   9.732 -0.1258 -0.0383 -0.3172
   24loPI   GL1  373   1.191   4.961   9.290 -0.0877 -0.0141 -0.0258
   24loPI   GL2  374   1.523   5.167   9.309  0.1926 -0.2279 -0.1233
   24loPI   C1A  375   1.038   4.635   9.134  0.0304  0.2591  0.2814
   24loPI   C2A  376   0.917   4.501   8.660  0.1735  0.0059 -0.1070
   24loPI   C3A  377   0.842   4.388   8.227 -0.1971  0.0456 -0.1062
   24loPI   C4A  378   0.873   4.426   7.819  0.1038  0.1606  0.1677
   24loPI   C5A  379   1.151   4.261   7.507  0.0378  0.0999 -0.0460
   24loPI   C6A  380   1.408   4.007   7.154 -0.0197 -0.0320  0.1001
   24loPI   C1B  381   1.618   5.179   8.854 -0.0524  0.1531  0.0866
   24loPI   C2B  382   1.383   5.403   8.513 -0.1833 -0.0057  0.0352
   24loPI   C3B  383   1.331   5.369   8.167 -0.0609 -0.1054 -0.0998
   24loPI   C4B  384   1.219   5.137   7.710 -0.0657 -0.3269 -0.0365
   25loPI    C1  385  18.652  13.280   9.854 -0.0496  0.3479  0.0253
   25loPI    C2  386  18.550  13.406  10.220 -0.2424  0.0595  0.0740
   25loPI    C3  387  18.484  13.026  10.114 -0.1999  0.1441 -0.2661
   25loPI   PO4  388  18.555  13.281   9.582  0.0351 -0.2084  0.1115
   25loPI   GL1  389  18.465  13.212   9.177 -0.1996 -0.3725 -0.2347
   25loPI   GL2  390  18.693  13.074   9.180  0.1083 -0.1316 -0.0284
   25loPI   C1A  391  18.442  13.282   8.689  0.0103  0.3762 -0.0220
   25loPI   C2A  392  18.451  13.145   8.223  0.2565 -0.0823 -0.4009
   25loPI   C3A  393  18.390  13.089   7.834 -0.0486  0.0431 -0.0209
   25loPI   C4A  394  18.658  12.975   7.584  0.1233 -0.0710 -0.2440
   25loPI   C5A  395  19.024  13.002   7.477 -0.1369 -0.2521  0.0339
   25loPI   C6A  396  19.393  13.065   7.497  0.3127  0.0250 -0.0431
   25loPI   C1B  397  18.970  12.884   8.802 -0.1528  0.1315 -0.1252
   25loPI   C2B  398  18.872  12.905   8.367 -0.0235 -0.0091 -0.0042
   25loPI   C3B  399  18.903  12.826   8.006 -0.0493 -0.1932 -0.0397
   25loPI   C4B  400  19.255  12.667   7.751  0.3386 -0.0515  0.0996
   26loPI    C1  401  17.398  14.358   9.864 -0.3127  0.1213 -0.0365
   26loPI    C2  402  17.312  14.201  10.221 -0.0815 -0.0566 -0.0570
   26loPI    C3  403  17.693  14.249  10.111 -0.1517  0.1276 -0.2240
   26loPI   PO4  404  17.205  14.664   9.912  0.2235  0.0914  0.3121
   26loPI   GL1  405  17.008  14.866   9.631  0.2650 -0.0569 -0.2225
   26loPI   GL2  406  16.833  15.166   9.650  0.1167  0.1925  0.0884
   26loPI   C1A  407  17.014  14.855   9.227  0.0124  0.0706  0.1151
   26loPI   C2A  408  17.058  14.804   8.789  0.0196 -0.1814 -0.1775
   26loPI   C3A  409  17.126  14.756   8.314 -0.0276  0.1317  0.1629
   26loPI   C4A  410  17.367  15.067   7.964  0.0313  0.3488  0.0981
   26loPI   C5A  411  17.211  15.088   7.565  0.0987  0.0234 -0.0678
   26loPI   C6A  412  17.145  14.955   7.043 -0.0391 -0.1611  0.5110
   26loPI   C1B  413  16.968  15.364   9.195  0.1187  0.0770 -0.0448
   26loPI   C2B  414  16.948  15.298   8.820  0.0852  0.1140 -0.0017
   26loPI   C3B  415  16.979  15.202   8.351 -0.0400 -0.0829 -0.0097
   26loPI   C4B  416  16.939  15.353   7.999  0.2085 -0.2328 -0.0817
   27loPI    C1  417  12.657  16.364  10.116 -0.1593  0.0180  0.2316
   27loPI    C2  418  12.998  16.315  10.319 -0.1165 -0.1320  0.1251
   27loPI    C3  419  12.894  16.678  10.188 -0.0250 -0.0764  0.2051
   27loPI   PO4  420  12.700  16.157   9.930 -0.0106 -0.0612  0.1232
   27loPI   GL1  421  12.854  16.250   9.473 -0.2702  0.0853  0.2288
   27loPI   GL2  422  12.830  16.428   9.167  0.0815 -0.3139  0.1657
   27loPI   C1A  423  12.944  15.933   9.071  0.3995 -0.2201 -0.1254
   27loPI   C2A  424  13.020  15.988   8.643 -0.0656 -0.0685 -0.2049
   27loPI   C3A  425  12.962  16.075   8.213 -0.0905 -0.1251 -0.2364
   27loPI   C4A  426  13.003  16.079   7.772 -0.0346  0.1054 -0.2606
   27loPI   C5A  427  13.142  16.055   7.296 -0.0815 -0.1302 -0.3340
   27loPI   C6A  428  13.457  16.267   7.104  0.2540 -0.3259  0.0426
   27loPI   C1B  429  12.823  16.455   8.794  0.1063  0.2046 -0.0469
   27loPI   C2B  430  12.815  16.623   8.338  0.0489  0.0809 -0.0627
   27loPI   C3B  431  12.829  16.583   7.902  0.0465  0.1386 -0.1200
   27loPI   C4B  432  12.941  16.568   7.472 -0.2974 -0.3622  0.4371
   28loPI    C1  433   5.890  14.430  10.157  0.0884 -0.0238 -0.2911
   28loPI    C2  434   5.609  14.644   9.969 -0.0716  0.0739  0.0519
   28loPI    C3  435   5.754  14.768  10.321  0.3020 -0.0504 -0.0530
   28loPI   PO4  436   5.762  14.199  10.141  0.0404  0.0202  0.0975
   28loPI   GL1  437   5.539  13.924   9.860 -0.0410  0.0796 -0.1018
   28loPI   GL2  438   5.980  13.977   9.706  0.0062 -0.0407  0.1541
   28loPI   C1A  439   5.480  13.937   9.407 -0.0833  0.0287 -0.2243
   28loPI   C2A  440   5.517  13.858   9.052  0.3524 -0.1103 -0.0860
   28loPI   C3A  441   5.612  13.866   8.588 -0.1629 -0.0605 -0.0084
   28loPI   C4A  442   5.798  13.773   8.125 -0.2205 -0.3741 -0.1054
   28loPI   C5A  443   5.707  13.813   7.629  0.0648  0.1349 -0.2099
   28loPI   C6A  444   5.978  14.098   7.446 -0.1592  0.2282  0.0715
   28loPI   C1B  445   6.137  14.075   9.312  0.3135 -0.0201  0.2757
   28loPI   C2B  446   6.050  14.058   8.931  0.4390  0.1084  0.3223
   28loPI   C3B  447   6.098  13.850   8.498 -0.0019 -0.1150 -0.1370
   28loPI   C4B  448   6.288  13.730   8.160 -0.1012  0.2040 -0.1309
   29loPI    C1  449   5.585   2.978   9.721  0.0113  0.1390 -0.0968
   29loPI    C2  450   5.855   2.705   9.833 -0.1076  0.0014 -0.1426
   29loPI    C3  451   5.625   2.882  10.108 -0.2147 -0.1410 -0.1393
   29loPI   PO4  452   5.795   3.186   9.528 -0.0101  0.1402 -0.0984
   29loPI   GL1  453   6.161   3.274   9.368 -0.2719 -0.0521 -0.0895
   29loPI   GL2  454   6.301   3.495   9.176 -0.1010  0.2237  0.3637
   29loPI   C1A  455   5.929   3.237   8.960  0.2415 -0.3370  0.2704
   29loPI   C2A  456   5.877   3.131   8.607 -0.1475  0.0136 -0.0938
   29loPI   C3A  457   6.097   3.075   8.169  0.2548  0.0289 -0.0228
   29loPI   C4A  458   6.352   3.224   7.839 -0.0672  0.1486 -0.2969
   29loPI   C5A  459   6.255   3.206   7.367 -0.1932 -0.0730 -0.0028
   29loPI   C6A  460   5.909   3.383   7.256  0.1349 -0.1745 -0.1247
   29loPI   C1B  461   6.486   3.778   8.814  0.0430 -0.3572  0.0715
   29loPI   C2B  462   6.515   3.938   8.437  0.0855  0.1640  0.1242
   29loPI   C3B  463   6.578   4.085   8.062  0.4493  0.2540 -0.0404
   29loPI   C4B  464   6.741   4.101   7.702  0.0774  0.1666  0.0667
   30loPI    C1  465   6.248  18.896  10.266 -0.0434 -0.2003 -0.0619
   30loPI    C2  466   5.913  18.704  10.161 -0.0335 -0.2542  0.0042
   30loPI    C3  467   5.893  19.029  10.392 -0.0444 -0.2228 -0.0408
   30loPI   PO4  468   6.461  18.724  10.044  0.0052 -0.0243 -0.2201
   30loPI   GL1  469   6.641  18.743   9.665 -0.2010 -0.2280  0.1838
   30loPI   GL2  470   6.673  18.413   9.662 -0.3130  0.4563  0.0021
   30loPI   C1A  471   6.641  18.750   9.180  0.0318  0.1759 -0.0636
   30loPI   C2A  472   6.727  18.504   8.756  0.2736 -0.0666 -0.1671
   30loPI   C3A  473   6.623  18.417   8.442 -0.4672 -0.0751 -0.5252
   30loPI   C4A  474   6.797  18.319   8.172  0.3163 -0.1932 -0.2485
   30loPI   C5A  475   7.057  18.215   7.700  0.0106  0.2250 -0.1078
   30loPI   C6A  476   7.406  17.975   7.543  0.1591  0.3741 -0.3225
   30loPI   C1B  477   6.631  18.238   9.191 -0.0748  0.0250  0.2072
   30loPI   C2B  478   6.419  18.110   8.804  0.0569  0.4495  0.1466
   30loPI   C3B  479   6.278  17.954   8.389  0.1364  0.0599 -0.0645
   30loPI   C4B  480   6.250  18.229   8.034 -0.1958  0.1642 -0.1285
   31loPI    C1  481   0.313   8.418   9.602 -0.0967  0.3252 -0.3213
   31loPI    C2  482   0.660   8.598   9.687 -0.0856  0.0845  0.1823
   31loPI    C3  483   0.321   8.724   9.859 -0.1870  0.0639  0.0007
   31loPI   PO4  484   0.427   8.331   9.370  0.1459 -0.1133 -0.4150
   31loPI   GL1  485   0.398   8.491   8.954 -0.2319  0.1615  0.3274
   31loPI   GL2  486   0.566   8.160   8.892  0.1140 -0.1869  0.0801
   31loPI   C1A  487   0.552   8.604   8.601 -0.0084  0.1801 -0.0121
   31loPI   C2A  488   0.635   8.601   8.133  0.2613 -0.1940 -0.2300
   31loPI   C3A  489   0.755   8.799   7.790  0.1797 -0.1187  0.0645
   31loPI   C4A  490   0.735   8.739   7.257 -0.0605  0.0134 -0.0169
   31loPI   C5A  491   0.422   8.698   6.995  0.0605 -0.0979 -0.0051
   31loPI   C6A  492   0.008   8.616   6.745  0.0912  0.3174  0.1737
   31loPI   C1B  493   0.325   8.163   8.559  0.0706 -0.4781  0.0865
   31loPI   C2B  494   0.389   8.134   8.257 -0.1687  0.0588 -0.0531
   31loPI   C3B  495   0.503   8.135   7.835 -0.2114  0.0759 -0.0169
   31loPI   C4B  496   0.830   8.322   7.727  0.0930  0.0314 -0.1737
   32loPI    C1  497   2.459   0.033  10.124 -0.2589  0.1043 -0.1560
   32loPI    C2  498   2.646  -0.229   9.887  0.0883  0.2154 -0.0119
   32loPI    C3  499   2.531  -0.338  10.254 -0.2757  0.1015 -0.1548
   32loPI   PO4  500   2.500   0.210   9.845  0.5590  0.1654  0.0007
   32loPI   GL1  501   2.657   0.249   9.475  0.2030  0.0196  0.1977
   32loPI   GL2  502   2.884   0.383   9.442  0.0987  0.1131 -0.0279
   32loPI   C1A  503   2.670   0.095   9.045 -0.2234  0.1275  0.0508
   32loPI   C2A  504   2.542  -0.033   8.730 -0.0468 -0.1378 -0.0391
   32loPI   C3A  505   2.473  -0.160   8.332 -0.1790 -0.2481 -0.0322
   32loPI   C4A  506   2.278  -0.115   8.065  0.0429 -0.0164  0.1123
   32loPI   C5A  507   2.238  -0.015   7.659  0.1740  0.0107  0.2029
   32loPI   C6A  508   1.885   0.050   7.421 -0.2967  0.4375  0.0877
   32loPI   C1B  509   3.178   0.224   9.069 -0.0527 -0.1874 -0.1097
   32loPI   C2B  510   3.152   0.178   8.687  0.2977  0.2631  0.0747
   32loPI   C3B  511   3.265   0.056   8.310 -0.3956 -0.1805 -0.1069
   32loPI   C4B  512   3.472   0.130   7.914  0.2639 -0.4309  0.0187
   33loPI    C1  513   4.020  14.018   9.899 -0.1510 -0.0240  0.0820
   33loPI    C2  514   4.044  14.153   9.523 -0.0671  0.1186  0.1379
   33loPI    C3  515   3.932  14.400   9.818  0.0662  0.0609  0.2378
   33loPI   PO4  516   4.135  13.821   9.924  0.5097 -0.0066  0.1608
   33loPI   GL1  517   4.150  13.621   9.531 -0.0335 -0.0920  0.3919
   33loPI   GL2  518   3.949  13.405   9.433  0.0405  0.0727  0.2573
   33loPI   C1A  519   3.940  13.862   9.217  0.0784 -0.0802 -0.1050
   33loPI   C2A  520   3.938  13.918   8.821  0.2278 -0.1085  0.1523
   33loPI   C3A  521   3.876  13.909   8.424 -0.1627 -0.1918 -0.3097
   33loPI   C4A  522   3.868  14.015   8.044 -0.2276 -0.2181  0.0878
   33loPI   C5A  523   3.932  14.296   7.702  0.0636  0.0692  0.2762
   33loPI   C6A  524   3.895  14.236   7.337 -0.2292 -0.2492 -0.2070
   33loPI   C1B  525   4.156  13.461   9.039  0.1223  0.2080 -0.1329
   33loPI   C2B  526   4.264  13.597   8.662 -0.2044  0.0321 -0.1541
   33loPI   C3B  527   4.390  13.701   8.216  0.0959  0.0162 -0.0794
   33loPI   C4B  528   4.459  13.984   7.801  0.1770  0.0069  0.1184
   34loPI    C1  529  12.521   1.480   9.945 -0.1418  0.0443 -0.0882
   34loPI    C2  530  12.668   1.109   9.908  0.0975  0.1223  0.0538
   34loPI    C3  531  12.296   1.165  10.045 -0.0190 -0.0726 -0.1753
   34loPI   PO4  532  12.632   1.599   9.693 -0.2293 -0.0485  0.1154
   34loPI   GL1  533  12.561   1.879   9.322  0.1475 -0.1861 -0.0002
   34loPI   GL2  534  12.268   1.721   9.367 -0.0460 -0.2760 -0.1947
   34loPI   C1A  535  12.769   1.900   8.989 -0.3816  0.0118 -0.2081
   34loPI   C2A  536  12.861   2.132   8.595  0.1115 -0.0689 -0.0020
   34loPI   C3A  537  12.791   2.126   8.231  0.0033 -0.0846 -0.2635
   34loPI   C4A  538  12.885   2.050   7.775 -0.1971  0.1997 -0.0205
   34loPI   C5A  539  13.033   2.364   7.438  0.1805 -0.3580 -0.3114
   34loPI   C6A  540  13.033   2.746   7.252  0.0784 -0.2633 -0.3223
   34loPI   C1B  541  12.352   1.594   8.869  0.1064 -0.1183 -0.0387
   34loPI   C2B  542  12.478   1.771   8.511 -0.1436  0.1170 -0.0181
   34loPI   C3B  543  12.445   1.720   8.036 -0.3248 -0.0646  0.0508
   34loPI   C4B  544  12.460   1.451   7.670 -0.3473  0.0045 -0.2866
   35loPI    C1  545   8.951   5.966  10.173 -0.1075  0.0530  0.1500
   35loPI    C2  546   9.015   6.326  10.337 -0.0674  0.1176 -0.0054
   35loPI    C3  547   9.075   5.994  10.553 -0.2673  0.2074  0.1922
   35loPI   PO4  548   8.665   5.971  10.018 -0.1425  0.1474 -0.2679
   35loPI   GL1  549   8.358   6.018   9.727  0.0034  0.0204 -0.0071
   35loPI   GL2  550   8.596   6.207   9.551  0.4910  0.4910  0.1778
   35loPI   C1A  551   8.169   5.905   9.302  0.2106 -0.1375 -0.2895
   35loPI   C2A  552   8.143   5.894   8.919  0.0586  0.2169  0.1778
   35loPI   C3A  553   8.163   5.754   8.496  0.0121  0.1292  0.2559
   35loPI   C4A  554   8.161   5.828   7.993  0.2690 -0.1345 -0.3723
   35loPI   C5A  555   7.897   6.153   7.953 -0.0566  0.2147 -0.2680
   35loPI   C6A  556   7.887   6.501   7.538  0.1501  0.1252  0.0663
   35loPI   C1B  557   8.621   5.976   9.156  0.1276 -0.0886  0.1314
   35loPI   C2B  558   8.530   6.091   8.662 -0.1053 -0.2512  0.2949
   35loPI   C3B  559   8.343   6.290   8.252 -0.0374 -0.0628 -0.1637
   35loPI   C4B  560   8.331   6.389   7.729 -0.2184  0.1740  0.0465
   36loPI    C1  561  17.196   9.902   9.488 -0.0863 -0.1606 -0.1236
   36loPI    C2  562  17.179   9.913   9.887  0.2045  0.2083 -0.1165
   36loPI    C3  563  17.082   9.577   9.693 -0.1072  0.0773  0.2514
   36loPI   PO4  564  17.400  10.056   9.471  0.1200 -0.0992  0.0932
   36loPI   GL1  565  17.625  10.083   9.120  0.0816 -0.0210  0.0186
   36loPI   GL2  566  17.820   9.946   8.899  0.0744  0.2250 -0.1064
   36loPI   C1A  567  17.321  10.056   8.758  0.2104  0.1246 -0.1392
   36loPI   C2A  568  17.257  10.060   8.258 -0.1724 -0.0369  0.0666
   36loPI   C3A  569  17.086  10.082   7.937 -0.2708  0.2417  0.1860
   36loPI   C4A  570  17.210  10.030   7.538 -0.1507  0.2171 -0.0839
   36loPI   C5A  571  17.474   9.820   7.216  0.0713  0.2343 -0.1064
   36loPI   C6A  572  17.778   9.973   6.966 -0.0135 -0.0299 -0.2947
   36loPI   C1B  573  17.735   9.901   8.553  0.5006 -0.0220  0.0295
   36loPI   C2B  574  17.637   9.766   8.061 -0.2730 -0.0925 -0.2579
   36loPI   C3B  575  17.504   9.589   7.722 -0.1255  0.2141 -0.2596
   36loPI   C4B  576  17.145   9.409   7.454 -0.0334  0.1406  0.3547
   37loPI    C1  577  16.134   9.847   9.553 -0.0041  0.1944  0.0727
   37loPI    C2  578  15.938   9.614   9.813 -0.1929  0.3074  0.0338
   37loPI    C3  579  16.232   9.461   9.588 -0.2495  0.1312  0.0781
   37loPI   PO4  580  16.008   9.866   9.344 -0.1970  0.1331  0.0033
   37loPI   GL1  581  15.834   9.702   8.987  0.1401 -0.3929 -0.0571
   37loPI   GL2  582  16.071   9.458   8.998  0.0752 -0.0133  0.0842
   37loPI   C1A  583  15.602   9.547   8.669  0.3530 -0.0700  0.0651
   37loPI   C2A  584  15.760   9.465   8.269 -0.2239  0.1181  0.0173
   37loPI   C3A  585  15.717   9.520   7.754 -0.0709 -0.4337  0.0338
   37loPI   C4A  586  15.721   9.404   7.305 -0.0815  0.0266 -0.1627
   37loPI   C5A  587  16.027   9.677   7.036  0.1505 -0.0277  0.1326
   37loPI   C6A  588  16.423   9.901   6.937  0.2385 -0.1325 -0.0082
   37loPI   C1B  589  16.138   9.531   8.553 -0.2136  0.0176  0.0635
   37loPI   C2B  590  16.173   9.549   8.084  0.2257 -0.1263 -0.2817
   37loPI   C3B  591  16.236   9.485   7.559 -0.0001 -0.2093  0.0832
   37loPI   C4B  592  16.442   9.353   7.199  0.1068 -0.1812 -0.0213
   38loPI    C1  593  16.803   0.814  10.054  0.2004 -0.4496  0.1656
   38loPI    C2  594  17.170   0.970  10.092  0.0021  0.0757  0.0058
   38loPI    C3  595  16.946   0.901  10.417  0.1196  0.0550  0.0829
   38loPI   PO4  596  16.941   0.673   9.770 -0.3214  0.0979  0.3065
   38loPI   GL1  597  16.795   0.793   9.417  0.2631 -0.0336  0.2262
   38loPI   GL2  598  16.535   1.082   9.260  0.0563  0.0014  0.0025
   38loPI   C1A  599  16.965   0.717   8.948 -0.2445  0.0585 -0.2025
   38loPI   C2A  600  17.045   0.837   8.601 -0.4012 -0.0618  0.1063
   38loPI   C3A  601  16.909   0.633   8.287  0.2682 -0.1931 -0.2717
   38loPI   C4A  602  16.888   0.701   7.781  0.3553  0.1011  0.1473
   38loPI   C5A  603  16.844   0.861   7.276  0.0187  0.1497  0.0907
   38loPI   C6A  604  16.751   0.685   6.917 -0.2348  0.2477  0.0825
   38loPI   C1B  605  16.732   1.155   8.946 -0.0944 -0.2862  0.2859
   38loPI   C2B  606  16.820   1.316   8.580 -0.0204 -0.0725  0.6187
   38loPI   C3B  607  16.971   1.214   8.197  0.1855  0.1395  0.1809
   38loPI   C4B  608  17.014   1.162   7.716  0.0618  0.1068 -0.0359
   39loPI    C1  609   4.176  14.955   9.914 -0.4220 -0.0730 -0.0861
   39loPI    C2  610   4.074  14.684  10.190  0.3290 -0.1837  0.1061
   39loPI    C3  611   4.142  15.063  10.297 -0.3205  0.0041 -0.0984
   39loPI   PO4  612   4.391  14.943   9.810  0.4123  0.1541 -0.0634
   39loPI   GL1  613   4.535  15.041   9.436 -0.3782 -0.1520  0.0917
   39loPI   GL2  614   4.247  15.082   9.314  0.0831 -0.0887 -0.2231
   39loPI   C1A  615   4.626  14.868   9.005  0.1540 -0.1247  0.0303
   39loPI   C2A  616   4.547  14.743   8.790  0.1120 -0.2083 -0.0870
   39loPI   C3A  617   4.271  14.739   8.410  0.1059  0.1048  0.0452
   39loPI   C4A  618   4.169  14.658   7.911 -0.2066 -0.0276 -0.0629
   39loPI   C5A  619   4.547  14.560   7.672  0.0005  0.1823 -0.1237
   39loPI   C6A  620   4.803  14.191   7.515 -0.0581  0.0486  0.0062
   39loPI   C1B  621   4.244  15.181   8.879  0.0878  0.3687 -0.0693
   39loPI   C2B  622   4.199  15.260   8.408 -0.3762 -0.3864 -0.0259
   39loPI   C3B  623   4.028  15.519   8.019  0.2744  0.1107  0.2454
   39loPI   C4B  624   3.860  15.586   7.621  0.1884  0.3060 -0.2452
   40loPI    C1  625  13.699  11.590   9.602 -0.0160  0.1149  0.1791
   40loPI    C2  626  13.813  11.831   9.900 -0.0715  0.0348  0.2658
   40loPI    C3  627  13.813  11.435   9.953  0.0015  0.0162  0.1299
   40loPI   PO4  628  13.448  11.679   9.545 -0.0715 -0.1524  0.1451
   40loPI   GL1  629  13.405  12.100   9.200  0.2097  0.2579 -0.1987
   40loPI   GL2  630  13.195  12.467   9.369  0.0193 -0.0926 -0.0258
   40loPI   C1A  631  13.476  12.159   8.800 -0.0182 -0.0685  0.6011
   40loPI   C2A  632  13.395  12.321   8.393  0.1125  0.0541 -0.1212
   40loPI   C3A  633  13.276  12.339   7.986  0.4049 -0.1426 -0.1094
   40loPI   C4A  634  13.168  12.231   7.663  0.0149  0.0696  0.2005
   40loPI   C5A  635  12.750  12.030   7.424  0.2597 -0.2049 -0.0859
   40loPI   C6A  636  12.337  11.987   7.228 -0.1668  0.0331 -0.1474
   40loPI   C1B  637  12.965  12.274   9.035  0.2116 -0.0440  0.1103
   40loPI   C2B  638  12.736  12.083   8.655 -0.1034  0.0403  0.0248
   40loPI   C3B  639  12.537  11.723   8.398 -0.1476 -0.2389 -0.1437
   40loPI   C4B  640  12.207  11.683   8.198 -0.1462 -0.2500  0.2740
   41loPI    C1  641   5.793   3.803   9.817  0.1129  0.0570 -0.1057
   41loPI    C2  642   6.068   3.825  10.106  0.0023  0.0576  0.0003
   41loPI    C3  643   5.828   4.137  10.033 -0.1387 -0.0317  0.0777
   41loPI   PO4  644   5.944   3.699   9.655 -0.1974  0.3367  0.1367
   41loPI   GL1  645   6.106   3.928   9.340  0.1140 -0.0225  0.0399
   41loPI   GL2  646   5.804   3.632   9.204 -0.2606 -0.2854 -0.3749
   41loPI   C1A  647   6.284   4.248   9.089 -0.0235  0.0784  0.1181
   41loPI   C2A  648   6.323   4.396   8.697 -0.2883 -0.0534 -0.0591
   41loPI   C3A  649   6.381   4.443   8.361 -0.1384 -0.0363  0.0398
   41loPI   C4A  650   6.307   4.521   7.974  0.0799 -0.3383  0.0840
   41loPI   C5A  651   6.251   4.269   7.588 -0.1350 -0.2630 -0.0675
   41loPI   C6A  652   6.200   3.775   7.392  0.5396  0.4029 -0.3110
   41loPI   C1B  653   5.981   3.861   8.860  0.0482  0.1587 -0.2082
   41loPI   C2B  654   6.017   3.983   8.429 -0.0545 -0.1122  0.0145
   41loPI   C3B  655   6.051   4.148   8.168 -0.0060  0.1003 -0.3569
   41loPI   C4B  656   5.860   4.376   7.914  0.3883  0.1892  0.3005
   42loPI    C1  657   7.948   0.615   9.898  0.0837  0.0686  0.1958
   42loPI    C2  658   7.639   0.801  10.071 -0.0968  0.1250 -0.1762
   42loPI    C3  659   7.613   0.413   9.977  0.0135  0.0857 -0.0481
   42loPI   PO4  660   7.963   0.677   9.722  0.0205 -0.1991  0.2982
   42loPI   GL1  661   7.869   0.756   9.213  0.0874  0.1751 -0.1900
   42loPI   GL2  662   8.165   0.686   9.051 -0.2449 -0.0865 -0.0600
   42loPI   C1A  663   7.690   0.563   8.909  0.2773  0.2625 -0.2644
   42loPI   C2A  664   7.602   0.365   8.547  0.0250 -0.0425 -0.1592
   42loPI   C3A  665   7.548   0.207   8.113 -0.2766 -0.2800  0.0972
   42loPI   C4A  666   7.763   0.281   7.792 -0.3056  0.2088 -0.0142
   42loPI   C5A  667   7.772   0.105   7.373  0.2952  0.3258 -0.2939
   42loPI   C6A  668   7.745   0.347   6.984 -0.3552  0.0838 -0.2120
   42loPI   C1B  669   8.176   0.531   8.640 -0.1407  0.0802  0.1366
   42loPI   C2B  670   8.118   0.484   8.229 -0.1245  0.0072 -0.0410
   42loPI   C3B  671   8.283   0.614   7.808 -0.0966  0.0276  0.0792
   42loPI   C4B  672   8.262   0.557   7.419  0.2833 -0.2438  0.2535
   43loPI    C1  673  11.307  12.831  10.186 -0.1125 -0.1995  0.3077
   43loPI    C2  674  11.187  13.031  10.511 -0.2141 -0.2233  0.2852
   43loPI    C3  675  11.526  12.819  10.521 -0.0439  0.0432  0.2732
   43loPI   PO4  676  11.288  13.003   9.982 -0.2112 -0.1353 -0.0404
   43loPI   GL1  677  11.400  13.200   9.616  0.2767 -0.0433  0.0738
   43loPI   GL2  678  11.120  12.996   9.539  0.5869 -0.3912  0.1457
   43loPI   C1A  679  11.597  13.151   9.310 -0.2422 -0.0998 -0.4844
   43loPI   C2A  680  11.797  13.006   8.937  0.0792  0.2696  0.1304
   43loPI   C3A  681  11.782  12.874   8.563  0.0198 -0.0598  0.2732
   43loPI   C4A  682  11.926  12.916   8.254 -0.0674  0.1328 -0.2455
   43loPI   C5A  683  11.857  13.168   7.834 -0.0661 -0.3108  0.0776
   43loPI   C6A  684  11.928  13.531   7.642  0.2126 -0.2064 -0.0479
   43loPI   C1B  685  11.000  12.767   9.136 -0.2099 -0.1378 -0.0090
   43loPI   C2B  686  10.886  12.754   8.745 -0.0172  0.3298  0.1620
   43loPI   C3B  687  10.879  12.676   8.332 -0.0839  0.2216 -0.1634
   43loPI   C4B  688  10.757  12.528   7.896  0.2387 -0.0290 -0.2623
   44loPI    C1  689   0.506   7.743   9.783  0.0615  0.2068 -0.4523
   44loPI    C2  690   0.676   8.100   9.842  0.0539  0.1289  0.0947
   44loPI    C3  691   0.902   7.783   9.750  0.0730  0.2452 -0.2761
   44loPI   PO4  692   0.310   7.816   9.612  0.0050  0.1145 -0.0990
   44loPI   GL1  693   0.216   7.954   9.230 -0.0656  0.3753 -0.1151
   44loPI   GL2  694   0.029   8.079   9.063 -0.1420  0.0296  0.0711
   44loPI   C1A  695   0.276   7.748   8.852 -0.0066  0.4722 -0.1157
   44loPI   C2A  696   0.184   7.723   8.414 -0.2596  0.0723 -0.1810
   44loPI   C3A  697   0.158   7.640   7.985 -0.0123 -0.0935  0.0900
   44loPI   C4A  698   0.192   7.669   7.506  0.0758  0.6371  0.1689
   44loPI   C5A  699  -0.040   7.552   7.078  0.1665  0.1557  0.2230
   44loPI   C6A  700  -0.517   7.232   7.057  0.0241 -0.0355 -0.1069
   44loPI   C1B  701  -0.113   8.004   8.608 -0.2567 -0.6093  0.0821
   44loPI   C2B  702  -0.061   8.094   8.143  0.0163  0.3427 -0.1396
   44loPI   C3B  703   0.027   8.097   7.738  0.0890 -0.2601 -0.0640
   44loPI   C4B  704   0.024   8.144   7.287  0.1744 -0.1527 -0.2565
   45loPI    C1  705  10.537  16.248   9.753 -0.1333  0.1275 -0.0653
   45loPI    C2  706  10.516  15.857   9.672  0.0229  0.0320  0.3285
   45loPI    C3  707  10.834  16.069   9.554 -0.0257  0.0253  0.1828
   45loPI   PO4  708  10.387  16.418   9.615  0.2649 -0.3973 -0.0095
   45loPI   GL1  709  10.359  16.358   9.235 -0.0206 -0.2058 -0.1159
   45loPI   GL2  710  10.385  16.111   9.266 -0.1803  0.1685  0.0560
   45loPI   C1A  711  10.519  16.643   8.958  0.1691  0.1119  0.2350
   45loPI   C2A  712  10.676  16.626   8.503 -0.2561 -0.1236 -0.1462
   45loPI   C3A  713  10.687  16.732   8.139  0.4833  0.1127  0.1457
   45loPI   C4A  714  10.788  16.784   7.723 -0.0776 -0.5212 -0.1046
   45loPI   C5A  715  10.616  16.995   7.328  0.2527 -0.0380 -0.1883
   45loPI   C6A  716  10.314  17.096   7.020 -0.0316  0.1471 -0.0541
   45loPI   C1B  717  10.754  16.139   9.046  0.2592  0.2180  0.2994
   45loPI   C2B  718  10.639  16.183   8.716 -0.0693 -0.0691  0.0529
   45loPI   C3B  719  10.661  16.065   8.346  0.0851 -0.0298  0.1096
   45loPI   C4B  720  10.717  15.781   8.047  0.0415  0.3303  0.1217
   46loPI    C1  721  17.910   0.469   9.548 -0.0765 -0.0210  0.1386
   46loPI    C2  722  17.898   0.865   9.600  0.1281 -0.0327  0.2871
   46loPI    C3  723  18.164   0.645   9.802 -0.0801 -0.2635  0.3138
   46loPI   PO4  724  17.570   0.418   9.553 -0.0170  0.0577  0.1068
   46loPI   GL1  725  17.303   0.045   9.503  0.0044 -0.1111  0.0305
   46loPI   GL2  726  17.175   0.366   9.293  0.3280  0.0940 -0.0761
   46loPI   C1A  727  17.518  -0.173   9.111 -0.2792  0.1696  0.3919
   46loPI   C2A  728  17.813  -0.232   8.818 -0.2134  0.0979  0.1963
   46loPI   C3A  729  18.111  -0.057   8.470  0.2301  0.2533 -0.3218
   46loPI   C4A  730  18.149   0.034   8.055 -0.0475  0.0549  0.2591
   46loPI   C5A  731  18.096   0.155   7.613  0.0476 -0.1599  0.2156
   46loPI   C6A  732  18.042  -0.021   7.327 -0.1455 -0.2444  0.0835
   46loPI   C1B  733  17.281   0.265   8.916  0.2286 -0.0826  0.0250
   46loPI   C2B  734  17.198   0.330   8.530  0.1539 -0.0640 -0.1181
   46loPI   C3B  735  17.049   0.168   8.154 -0.1373  0.1903  0.0592
   46loPI   C4B  736  17.138   0.283   7.648 -0.2185  0.2231  0.0401
   47loPI    C1  737  15.377   0.305  10.135 -0.1115  0.0460 -0.1027
   47loPI    C2  738  15.128   0.234  10.440 -0.1593  0.1433 -0.1186
   47loPI    C3  739  15.131   0.593  10.264  0.2164  0.2475  0.0885
   47loPI   PO4  740  15.307   0.013   9.942  0.0496 -0.1840  0.4914
   47loPI   GL1  741  15.496  -0.056   9.507  0.2521  0.0615  0.1339
   47loPI   GL2  742  15.424  -0.344   9.388 -0.1258  0.2006 -0.1239
   47loPI   C1A  743  15.289  -0.022   9.022  0.0260  0.1086  0.0478
   47loPI   C2A  744  15.219  -0.298   8.669  0.0449 -0.0690  0.4713
   47loPI   C3A  745  15.251  -0.359   8.247  0.0517  0.0947 -0.2708
   47loPI   C4A  746  15.451  -0.438   7.847 -0.1050  0.0250 -0.1435
   47loPI   C5A  747  15.460  -0.582   7.511  0.3317  0.0067  0.0089
   47loPI   C6A  748  15.718  -0.685   7.048  0.1897 -0.1309  0.3482
   47loPI   C1B  749  15.360  -0.542   9.083  0.1575  0.1291  0.2804
   47loPI   C2B  750  15.506  -0.656   8.782 -0.1395  0.0962  0.0040
   47loPI   C3B  751  15.637  -0.627   8.461 -0.1122  0.2580 -0.1716
   47loPI   C4B  752  15.896  -0.898   8.155  0.0332  0.0288 -0.0029
   48loPI    C1  753   0.020  18.047   9.971 -0.0657  0.1364  0.0581
   48loPI    C2  754  -0.349  17.912   9.893  0.0142 -0.2496  0.3178
   48loPI    C3  755  -0.237  17.982  10.271  0.1805 -0.0486  0.2334
   48loPI   PO4  756   0.039  18.254   9.689 -0.0928 -0.1039 -0.0763
   48loPI   GL1  757   0.136  18.200   9.392 -0.0132  0.3129 -0.0430
   48loPI   GL2  758   0.031  18.434   9.222 -0.0906  0.0308  0.0450
   48loPI   C1A  759   0.368  18.016   9.053 -0.0429 -0.3435  0.0155
   48loPI   C2A  760   0.425  17.919   8.586 -0.2812 -0.3087  0.0278
   48loPI   C3A  761   0.487  17.899   8.121  0.1048  0.0538  0.1339
   48loPI   C4A  762   0.685  18.119   7.761 -0.3550 -0.1101 -0.3845
   48loPI   C5A  763   1.021  18.082   7.500  0.1898  0.1694 -0.1778
   48loPI   C6A  764   1.315  17.935   7.219  0.2698 -0.0182 -0.1030
   48loPI   C1B  765   0.119  18.328   8.778  0.1052 -0.2903 -0.1955
   48loPI   C2B  766   0.087  18.249   8.339 -0.3855  0.3742 -0.0965
   48loPI   C3B  767   0.057  18.246   7.870  0.3067 -0.0805 -0.1001
   48loPI   C4B  768   0.201  17.949   7.564  0.0382 -0.1808  0.2802
   49loPI    C1  769   6.798  11.620   9.803  0.1771  0.0514  0.0722
   49loPI    C2  770   6.902  11.816  10.135 -0.2288 -0.0112  0.2429
   49loPI    C3  771   7.019  11.437  10.082 -0.1624 -0.0011  0.3133
   49loPI   PO4  772   6.869  11.787   9.630  0.0993 -0.1665  0.1243
   49loPI   GL1  773   6.739  11.729   9.220 -0.2546 -0.2251  0.1801
   49loPI   GL2  774   7.176  11.703   9.206  0.0249 -0.0287  0.2005
   49loPI   C1A  775   6.646  11.644   8.918  0.3032 -0.0038 -0.1375
   49loPI   C2A  776   6.326  11.497   8.798 -0.0366 -0.2144  0.0577
   49loPI   C3A  777   6.011  11.336   8.535  0.0950 -0.3073 -0.1250
   49loPI   C4A  778   6.007  11.274   8.099  0.2167 -0.1611  0.4201
   49loPI   C5A  779   5.878  10.959   7.795 -0.0436 -0.2460 -0.1363
   49loPI   C6A  780   5.890  10.762   7.446 -0.4330  0.2257 -0.0231
   49loPI   C1B  781   7.164  11.706   8.746 -0.2727  0.1044  0.0991
   49loPI   C2B  782   7.093  11.881   8.254 -0.1280 -0.2988  0.2646
   49loPI   C3B  783   6.882  11.960   7.902 -0.2063 -0.3064  0.1605
   49loPI   C4B  784   6.592  11.867   7.606 -0.2963  0.2243 -0.4148
   50loPI    C1  785   0.041   0.838   9.744  0.0812  0.0028  0.0750
   50loPI    C2  786   0.009   0.610  10.071 -0.1580 -0.2985 -0.1526
   50loPI    C3  787   0.101   0.998  10.105  0.0298 -0.3739  0.2548
   50loPI   PO4  788   0.235   0.749   9.582 -0.1583 -0.0578 -0.3921
   50loPI   GL1  789   0.255   0.611   9.173 -0.2707 -0.2893  0.3087
   50loPI   GL2  790   0.572   0.639   9.132 -0.2459  0.0474 -0.0585
   50loPI   C1A  791   0.159   0.601   8.688  0.0085 -0.5096  0.0048
   50loPI   C2A  792   0.325   0.576   8.240  0.1738 -0.1473  0.0720
   50loPI   C3A  793   0.289   0.560   7.862  0.1947  0.2809  0.1099
   50loPI   C4A  794   0.496   0.582   7.579  0.0260  0.2752  0.3108
   50loPI   C5A  795   0.681   0.808   7.224  0.0816  0.0745  0.1110
   50loPI   C6A  796   1.094   0.770   7.001  0.0707 -0.5203  0.1778
   50loPI   C1B  797   0.619   0.391   8.745 -0.0452  0.0306  0.3298
   50loPI   C2B  798   0.770   0.412   8.288 -0.1522 -0.3464 -0.0528
   50loPI   C3B  799   0.774   0.303   7.916  0.3505 -0.0344  0.1814
   50loPI   C4B  800   0.894  -0.005   7.614  0.0214 -0.2976 -0.3176
   51loPI    C1  801   0.797   7.121   9.859  0.0140 -0.1316  0.0684
   51loPI    C2  802   0.510   6.846   9.819 -0.0555 -0.0505  0.0055
   51loPI    C3  803   0.819   6.778  10.063 -0.0995 -0.1617  0.0310
   51loPI   PO4  804   0.707   7.303   9.566 -0.2360 -0.0823 -0.2474
   51loPI   GL1  805   0.702   7.198   9.141 -0.2188  0.0916  0.1213
   51loPI   GL2  806   0.633   7.534   9.120 -0.0413 -0.0404  0.3860
   51loPI   C1A  807   0.525   7.312   8.702  0.1225 -0.2534  0.0103
   51loPI   C2A  808   0.520   7.300   8.214 -0.4932  0.0178 -0.0691
   51loPI   C3A  809   0.503   7.251   7.815  0.0434  0.0297 -0.1381
   51loPI   C4A  810   0.251   7.154   7.449  0.1670 -0.1477  0.7020
   51loPI   C5A  811   0.011   6.980   7.117  0.1685  0.1678  0.2130
   51loPI   C6A  812  -0.334   6.762   6.908  0.0473  0.2491 -0.1112
   51loPI   C1B  813   0.686   7.721   8.565 -0.2727  0.0194  0.2537
   51loPI   C2B  814   0.643   7.738   8.065  0.1620  0.0565  0.2164
   51loPI   C3B  815   0.655   7.711   7.659 -0.4638  0.1034 -0.1053
   51loPI   C4B  816   0.672   7.723   7.128  0.0111 -0.0396  0.4969
   52loPI    C1  817  15.988   3.720  10.049 -0.1435  0.0310  0.0243
   52loPI    C2  818  16.322   3.549   9.911 -0.1511  0.0909 -0.0699
   52loPI    C3  819  16.175   3.443  10.268 -0.0638  0.0228 -0.0538
   52loPI   PO4  820  15.795   3.680   9.854 -0.0056 -0.1213  0.0811
   52loPI   GL1  821  15.725   3.677   9.421 -0.0198  0.0128 -0.1942
   52loPI   GL2  822  15.969   3.407   9.394  0.2046  0.0926 -0.1235
   52loPI   C1A  823  15.683   3.602   9.002 -0.4107 -0.2019 -0.1894
   52loPI   C2A  824  15.542   3.686   8.538 -0.2534 -0.3268 -0.4502
   52loPI   C3A  825  15.444   3.820   8.110  0.0892 -0.0044  0.0229
   52loPI   C4A  826  15.564   3.840   7.605  0.1556  0.1208 -0.0607
   52loPI   C5A  827  15.868   3.946   7.307 -0.1043  0.1742  0.0547
   52loPI   C6A  828  15.982   3.963   6.834 -0.0311 -0.2182 -0.1448
   52loPI   C1B  829  16.179   3.548   9.047 -0.0717  0.2659 -0.2898
   52loPI   C2B  830  16.125   3.656   8.615 -0.4252 -0.1011  0.2139
   52loPI   C3B  831  16.057   3.760   8.268  0.0744 -0.0186  0.0463
   52loPI   C4B  832  16.032   3.793   7.786 -0.1343  0.2817  0.0881
   53loPI    C1  833  16.700  18.614  10.303 -0.2593  0.1250 -0.1616
   53loPI    C2  834  16.354  18.416  10.332 -0.0423 -0.3105 -0.4445
   53loPI    C3  835  16.619  18.400  10.631 -0.2211 -0.0560 -0.2688
   53loPI   PO4  836  16.708  18.827  10.111  0.0590  0.1346  0.2015
   53loPI   GL1  837  16.864  19.103   9.866 -0.2649  0.2373 -0.2992
   53loPI   GL2  838  16.814  18.839   9.579 -0.1062 -0.0286  0.0818
   53loPI   C1A  839  16.681  19.332   9.505  0.2008 -0.1154 -0.0684
   53loPI   C2A  840  16.717  19.441   9.006 -0.1820  0.1171  0.0914
   53loPI   C3A  841  16.660  19.353   8.580  0.1380  0.1791 -0.0508
   53loPI   C4A  842  16.487  19.445   8.194  0.0098  0.0078  0.0762
   53loPI   C5A  843  16.315  19.764   7.911 -0.0642  0.0590 -0.4094
   53loPI   C6A  844  16.412  19.891   7.500  0.1971  0.0785  0.1116
   53loPI   C1B  845  16.477  18.839   9.334  0.0265  0.3072 -0.0677
   53loPI   C2B  846  16.536  18.848   8.867  0.1176  0.0170 -0.2340
   53loPI   C3B  847  16.709  18.776   8.407 -0.2293  0.1413  0.1411
   53loPI   C4B  848  16.729  18.951   7.988 -0.0654  0.2751 -0.3663
   54loPI    C1  849  18.086  17.080   9.934  0.1197  0.1250 -0.0306
   54loPI    C2  850  18.411  16.855   9.994  0.0055 -0.1125 -0.2809
   54loPI    C3  851  18.046  16.697  10.044 -0.0745  0.1335 -0.0679
   54loPI   PO4  852  18.030  17.083   9.621  0.4457 -0.2713  0.4499
   54loPI   GL1  853  17.953  16.928   9.185  0.1357 -0.0740  0.1490
   54loPI   GL2  854  17.729  16.855   9.308  0.1706  0.2980  0.2801
   54loPI   C1A  855  17.911  16.917   8.721 -0.1395 -0.1351  0.1250
   54loPI   C2A  856  17.814  17.014   8.282  0.0405 -0.0905 -0.3487
   54loPI   C3A  857  17.775  17.004   7.816 -0.1398 -0.0175  0.4389
   54loPI   C4A  858  17.648  16.953   7.380 -0.5219  0.0847 -0.3124
   54loPI   C5A  859  17.264  17.070   7.268  0.0797  0.2018 -0.0573
   54loPI   C6A  860  16.874  17.241   7.250  0.1526 -0.0597  0.2136
   54loPI   C1B  861  17.671  16.564   9.002 -0.0139  0.0121  0.1698
   54loPI   C2B  862  17.626  16.464   8.528  0.0293  0.0937 -0.1834
   54loPI   C3B  863  17.537  16.625   8.073 -0.0603 -0.1519  0.0018
   54loPI   C4B  864  17.385  16.724   7.721 -0.2340 -0.0331  0.1036
   55loPI    C1  865   1.350  16.879   9.891  0.0729  0.0025  0.1950
   55loPI    C2  866   1.438  17.168  10.153  0.0715  0.0773  0.1135
   55loPI    C3  867   1.266  16.830  10.279 -0.0296  0.1582  0.1934
   55loPI   PO4  868   1.126  16.756   9.743 -0.2751  0.0870  0.0529
   55loPI   GL1  869   1.196  16.698   9.284 -0.0337 -0.0898  0.3298
   55loPI   GL2  870   1.584  16.738   9.414  0.2061 -0.0361 -0.2258
   55loPI   C1A  871   1.091  16.598   8.834  0.2563  0.3766 -0.0659
   55loPI   C2A  872   0.892  16.530   8.350 -0.2212 -0.0563  0.0251
   55loPI   C3A  873   0.687  16.588   8.024  0.0921 -0.0634 -0.2679
   55loPI   C4A  874   0.820  16.826   7.716  0.0305 -0.0029 -0.1688
   55loPI   C5A  875   1.030  17.150   7.405  0.1915 -0.0902  0.0463
   55loPI   C6A  876   0.897  17.613   7.398  0.1844  0.0080 -0.2285
   55loPI   C1B  877   1.597  16.640   8.961  0.0505  0.0483  0.0009
   55loPI   C2B  878   1.476  16.860   8.521 -0.0375  0.4181  0.3522
   55loPI   C3B  879   1.641  17.203   8.225 -0.0075  0.0999  0.1501
   55loPI   C4B  880   1.955  17.335   7.911  0.0702 -0.0905 -0.1006
   56loPI    C1  881   2.001   8.416   9.631 -0.0382  0.1735 -0.0934
   56loPI    C2  882   1.736   8.672   9.787 -0.0341  0.0331  0.1485
   56loPI    C3  883   1.684   8.278   9.832  0.0452 -0.0053 -0.0828
   56loPI   PO4  884   2.071   8.444   9.265  0.0954 -0.3735  0.1367
   56loPI   GL1  885   1.855   8.469   8.940 -0.3142  0.0445 -0.2634
   56loPI   GL2  886   2.050   8.801   8.927 -0.0540  0.3198  0.1300
   56loPI   C1A  887   2.037   8.181   8.618  0.2263 -0.2335 -0.1159
   56loPI   C2A  888   2.224   8.298   8.196 -0.0872  0.1064 -0.2728
   56loPI   C3A  889   2.111   8.340   7.787  0.4432 -0.0301  0.0365
   56loPI   C4A  890   2.070   8.382   7.353  0.0464 -0.0788  0.0386
   56loPI   C5A  891   1.653   8.539   7.219 -0.0648  0.3402 -0.2262
   56loPI   C6A  892   1.441   8.941   7.062 -0.1180 -0.1055 -0.4028
   56loPI   C1B  893   1.941   8.706   8.497  0.0777 -0.0718  0.1650
   56loPI   C2B  894   2.201   8.761   8.096  0.2512 -0.1586  0.1793
   56loPI   C3B  895   2.137   8.827   7.633  0.2225  0.1782  0.0667
   56loPI   C4B  896   1.961   9.079   7.224  0.0824 -0.0731  0.0665
   57loPI    C1  897   2.124   7.917   9.748  0.2526 -0.2862 -0.0750
   57loPI    C2  898   2.310   7.806  10.084  0.0896 -0.4221 -0.0277
   57loPI    C3  899   1.999   8.057  10.101  0.0769 -0.4345 -0.0762
   57loPI   PO4  900   2.109   7.696   9.630  0.0759 -0.1741  0.2065
   57loPI   GL1  901   2.101   7.664   9.209  0.1715  0.0131  0.0381
   57loPI   GL2  902   2.013   7.898   8.999 -0.1831  0.3348 -0.1877
   57loPI   C1A  903   2.046   7.241   8.880  0.0055 -0.0420  0.1103
   57loPI   C2A  904   1.912   7.332   8.424 -0.0224 -0.0470 -0.2030
   57loPI   C3A  905   1.827   7.342   8.064  0.0947 -0.3784 -0.1822
   57loPI   C4A  906   1.929   7.579   7.655  0.0284  0.1828  0.1595
   57loPI   C5A  907   1.910   7.897   7.391 -0.1359  0.3761 -0.2177
   57loPI   C6A  908   1.503   7.999   7.210 -0.0211 -0.2648 -0.2329
   57loPI   C1B  909   1.759   7.643   8.774  0.0468  0.2658  0.2192
   57loPI   C2B  910   1.665   7.792   8.332  0.0893  0.3443  0.0847
   57loPI   C3B  911   1.655   7.889   7.898  0.2191 -0.2318 -0.1427
   57loPI   C4B  912   1.573   8.220   7.664  0.0483 -0.0850 -0.0885
   58loPI    C1  913  14.699  16.997  10.291 -0.1431 -0.0534 -0.1146
   58loPI    C2  914  14.432  17.056  10.582 -0.1146 -0.1154 -0.0757
   58loPI    C3  915  14.727  16.791  10.632 -0.0493 -0.0515 -0.1208
   58loPI   PO4  916  14.607  16.947  10.020 -0.0655 -0.1835 -0.0558
   58loPI   GL1  917  14.522  17.173   9.583  0.2494 -0.0151  0.1802
   58loPI   GL2  918  14.868  17.191   9.403  0.2012  0.0664  0.0790
   58loPI   C1A  919  14.376  16.953   9.249  0.2190  0.0177  0.1190
   58loPI   C2A  920  14.250  16.788   8.782  0.0819  0.0302 -0.2102
   58loPI   C3A  921  14.332  16.868   8.352  0.2816 -0.2152  0.1778
   58loPI   C4A  922  14.197  17.084   7.926  0.2250 -0.1155  0.1627
   58loPI   C5A  923  14.376  17.421   7.686  0.0233  0.0028 -0.3232
   58loPI   C6A  924  14.548  17.761   7.467 -0.2146 -0.0906 -0.1042
   58loPI   C1B  925  14.948  17.371   9.015  0.1798  0.1360 -0.3094
   58loPI   C2B  926  15.241  17.319   8.763  0.0117  0.1692 -0.0131
   58loPI   C3B  927  15.188  17.413   8.404 -0.2141 -0.0443 -0.1023
   58loPI   C4B  928  15.216  17.456   8.065  0.1463 -0.0969  0.0574
   59loPI    C1  929  10.183  17.138   9.989 -0.1102  0.0951 -0.1706
   59loPI    C2  930   9.814  17.281  10.044 -0.1321 -0.0126 -0.0319
   59loPI    C3  931  10.117  17.417  10.267 -0.1554 -0.1890  0.1101
   59loPI   PO4  932  10.203  17.105   9.683 -0.0799 -0.0494 -0.1089
   59loPI   GL1  933  10.167  16.816   9.283 -0.0841 -0.3855  0.1517
   59loPI   GL2  934   9.906  16.891   9.281  0.3079 -0.2449  0.2041
   59loPI   C1A  935  10.011  16.611   8.899 -0.2079  0.3817 -0.2615
   59loPI   C2A  936   9.830  16.608   8.393 -0.0714 -0.1020 -0.1180
   59loPI   C3A  937   9.678  16.648   8.002 -0.1557 -0.2160  0.0134
   59loPI   C4A  938   9.747  16.588   7.564 -0.1542  0.1687 -0.0883
   59loPI   C5A  939   9.491  16.452   7.420 -0.1492  0.0569  0.1253
   59loPI   C6A  940   9.047  16.241   7.225 -0.2640 -0.2634  0.1395
   59loPI   C1B  941   9.814  17.313   9.003 -0.3365 -0.2225  0.0295
   59loPI   C2B  942   9.897  17.435   8.568  0.0329 -0.1445  0.3132
   59loPI   C3B  943   9.880  17.522   8.224 -0.1596 -0.0163 -0.2412
   59loPI   C4B  944   9.849  17.468   7.843  0.1504  0.2773 -0.0994
   60loPI    C1  945   3.162  10.704   9.409 -0.1221  0.0478  0.0363
   60loPI    C2  946   3.100  10.428   9.692 -0.0926  0.0359  0.0312
   60loPI    C3  947   3.299  10.764   9.780  0.1795 -0.1018 -0.0474
   60loPI   PO4  948   3.206  10.644   9.194  0.0837 -0.0500 -0.2379
   60loPI   GL1  949   3.104  10.674   8.809 -0.0521 -0.1544 -0.0924
   60loPI   GL2  950   2.795  10.737   8.805 -0.0294 -0.0998 -0.1534
   60loPI   C1A  951   3.153  10.516   8.273  0.0283  0.1447 -0.1266
   60loPI   C2A  952   2.965  10.302   7.980  0.2530  0.0076 -0.1067
   60loPI   C3A  953   3.021  10.126   7.519  0.0037 -0.1611  0.1150
   60loPI   C4A  954   3.056   9.913   7.198  0.0904 -0.0311 -0.0147
   60loPI   C5A  955   3.056  10.053   6.824 -0.1706  0.0448 -0.2275
   60loPI   C6A  956   3.208   9.944   6.406  0.0520  0.4168  0.1979
   60loPI   C1B  957   2.785  10.865   8.329  0.1741 -0.0227 -0.0430
   60loPI   C2B  958   2.758  10.854   7.909 -0.1077  0.1031  0.1526
   60loPI   C3B  959   2.788  10.841   7.448  0.0819  0.0358 -0.0524
   60loPI   C4B  960   3.185  11.019   7.296  0.0636 -0.1751  0.2181
   61loPI    C1  961   9.438  19.028   9.605  0.0781  0.0239  0.0216
   61loPI    C2  962   9.795  18.994   9.782  0.0500 -0.0393  0.0667
   61loPI    C3  963   9.587  19.334   9.815 -0.0319 -0.1103  0.3008
   61loPI   PO4  964   9.407  18.937   9.418 -0.5293  0.0032  0.1486
   61loPI   GL1  965   9.575  19.045   9.033 -0.0670 -0.2869 -0.0730
   61loPI   GL2  966   9.419  18.783   8.892 -0.1256  0.0202  0.0509
   61loPI   C1A  967   9.696  19.073   8.569  0.2980  0.1705 -0.1953
   61loPI   C2A  968   9.571  19.376   8.328 -0.0017  0.2127 -0.3332
   61loPI   C3A  969   9.630  19.405   7.919 -0.3497  0.2440  0.3447
   61loPI   C4A  970   9.694  19.506   7.519  0.0761  0.3603 -0.1955
   61loPI   C5A  971   9.802  19.634   7.074  0.1136 -0.3255 -0.1072
   61loPI   C6A  972  10.097  19.833   6.851  0.3727 -0.1981 -0.3209
   61loPI   C1B  973   9.286  18.789   8.494 -0.0530  0.1885  0.0747
   61loPI   C2B  974   9.467  18.874   8.107  0.0620  0.2004 -0.0910
   61loPI   C3B  975   9.382  19.008   7.643  0.1589 -0.1456 -0.3571
   61loPI   C4B  976   8.970  19.063   7.631 -0.0370  0.1827  0.1576
   62loPI    C1  977  13.838  16.236   9.929 -0.0162  0.0231  0.1663
   62loPI    C2  978  14.080  16.285  10.244 -0.0024  0.0756  0.1478
   62loPI    C3  979  13.859  15.953  10.211  0.2447 -0.0816  0.0456
   62loPI   PO4  980  13.782  16.505   9.806 -0.1020  0.1371  0.0313
   62loPI   GL1  981  13.585  16.528   9.463  0.2771  0.2423  0.0374
   62loPI   GL2  982  13.423  16.299   9.446  0.0919  0.0207  0.1299
   62loPI   C1A  983  13.842  16.612   9.051 -0.0908  0.2474  0.3372
   62loPI   C2A  984  13.749  16.630   8.545 -0.1826  0.1162  0.1459
   62loPI   C3A  985  13.790  16.743   8.145 -0.3390 -0.1319 -0.4199
   62loPI   C4A  986  13.790  16.807   7.681 -0.0922 -0.1371  0.3512
   62loPI   C5A  987  13.957  17.140   7.479 -0.3951 -0.1701 -0.1707
   62loPI   C6A  988  13.959  17.536   7.531 -0.2587  0.0367 -0.2135
   62loPI   C1B  989  13.370  16.472   9.032 -0.1073 -0.1344  0.2688
   62loPI   C2B  990  13.289  16.467   8.555 -0.2770 -0.2060  0.3742
   62loPI   C3B  991  13.283  16.444   8.068 -0.2700  0.3598 -0.0616
   62loPI   C4B  992  13.407  16.411   7.663 -0.0471  0.1673  0.0970
   63loPI    C1  993  14.036  18.936   9.827 -0.3261 -0.2455  0.0188
   63loPI    C2  994  13.996  19.126  10.178 -0.2236  0.2491 -0.2273
   63loPI    C3  995  13.719  18.862  10.059 -0.1611 -0.0708  0.3067
   63loPI   PO4  996  14.049  19.136   9.634 -0.2406  0.0507 -0.0534
   63loPI   GL1  997  14.156  19.395   9.291  0.1972  0.1523  0.0281
   63loPI   GL2  998  13.806  19.536   9.390  0.2646 -0.0999  0.0960
   63loPI   C1A  999  14.275  19.490   8.852 -0.0620 -0.1030  0.3118
   63loPI   C2A 1000  14.211  19.518   8.337 -0.0295  0.0537  0.3491
   63loPI   C3A 1001  13.855  19.597   8.096 -0.2818 -0.2198  0.1159
   63loPI   C4A 1002  14.008  19.500   7.698  0.1814 -0.2431  0.5225
   63loPI   C5A 1003  14.021  19.314   7.297 -0.1008  0.1816 -0.0119
   63loPI   C6A 1004  13.829  18.919   7.260  0.2161  0.0292 -0.0186
   63loPI   C1B 1005  13.739  19.472   8.977  0.0025 -0.1229  0.2715
   63loPI   C2B 1006  13.694  19.664   8.536  0.2665 -0.3458  0.0590
   63loPI   C3B 1007  13.441  19.816   8.248 -0.0318  0.1235 -0.2875
   63loPI   C4B 1008  13.506  19.831   7.845 -0.0541 -0.2800  0.0629
   64loPI    C1 1009   0.729  18.901   9.980 -0.1987 -0.0476 -0.0660
   64loPI    C2 1010   0.421  18.887  10.236  0.0473 -0.0596  0.2357
   64loPI    C3 1011   0.642  18.560  10.171 -0.0802 -0.0864 -0.0805
   64loPI   PO4 1012   0.514  19.023   9.781  0.2783 -0.1325  0.1923
   64loPI   GL1 1013   0.684  18.940   9.367  0.1822 -0.2970  0.1134
   64loPI   GL2 1014   0.750  19.352   9.287 -0.2246  0.2668 -0.1939
   64loPI   C1A 1015   0.515  19.009   8.926  0.1414  0.4063  0.3348
   64loPI   C2A 1016   0.360  19.146   8.571  0.0721  0.1712  0.0071
   64loPI   C3A 1017   0.333  19.171   8.157 -0.0792 -0.3039  0.2794
   64loPI   C4A 1018   0.322  19.184   7.764 -0.0592  0.4461  0.1797
   64loPI   C5A 1019   0.199  19.330   7.409  0.1485 -0.0444  0.1715
   64loPI   C6A 1020   0.322  19.207   6.922  0.0989  0.0477  0.1063
   64loPI   C1B 1021   1.011  19.362   8.924  0.2714  0.1379  0.1881
   64loPI   C2B 1022   1.216  19.343   8.587 -0.2482 -0.2017  0.0617
   64loPI   C3B 1023   1.270  19.330   8.140 -0.0739  0.2064  0.2729
   64loPI   C4B 1024   1.487  19.262   7.740  0.2552  0.1187  0.1258
   65loPI    C1 1025   5.194   6.273   9.638 -0.1000 -0.0640  0.2125
   65loPI    C2 1026   4.952   6.522   9.837 -0.0442 -0.0131  0.2171
   65loPI    C3 1027   5.050   6.168   9.996 -0.0725 -0.0110  0.2392
   65loPI   PO4 1028   5.377   6.352   9.517 -0.0425 -0.1658  0.2930
   65loPI   GL1 1029   5.630   6.089   9.351  0.0526 -0.0150 -0.0919
   65loPI   GL2 1030   5.930   5.968   9.417 -0.0583  0.2097 -0.1724
   65loPI   C1A 1031   5.721   6.315   8.864 -0.0159 -0.0276  0.0571
   65loPI   C2A 1032   5.856   6.213   8.529 -0.3821 -0.2071  0.0200
   65loPI   C3A 1033   5.889   6.429   8.260 -0.4156 -0.0141 -0.1734
   65loPI   C4A 1034   6.042   6.585   7.833  0.2437 -0.1599  0.1126
   65loPI   C5A 1035   5.872   6.663   7.333  0.0200  0.1847  0.0581
   65loPI   C6A 1036   5.792   6.881   6.986  0.3048 -0.0234  0.1393
   65loPI   C1B 1037   6.146   6.089   9.054  0.3128 -0.1631 -0.2549
   65loPI   C2B 1038   6.278   5.962   8.603  0.0514  0.1114 -0.1213
   65loPI   C3B 1039   6.230   6.085   8.186 -0.0340 -0.0282  0.0948
   65loPI   C4B 1040   6.454   6.288   7.860  0.0829  0.2470  0.0683
   66loPI    C1 1041  13.663   1.450  10.268 -0.0744  0.1473 -0.1974
   66loPI    C2 1042  13.769   1.636  10.605 -0.0439  0.1060 -0.1839
   66loPI    C3 1043  13.514   1.329  10.618 -0.0212  0.0866 -0.1955
   66loPI   PO4 1044  13.775   1.703  10.053 -0.1768 -0.1623  0.3613
   66loPI   GL1 1045  13.836   1.707   9.658  0.0904  0.0383  0.3473
   66loPI   GL2 1046  13.633   1.591   9.420  0.1530 -0.1450 -0.1148
   66loPI   C1A 1047  13.876   2.004   9.270  0.0280 -0.1573 -0.2650
   66loPI   C2A 1048  14.014   2.192   8.906 -0.0165 -0.1992  0.0638
   66loPI   C3A 1049  14.199   2.360   8.551  0.3081 -0.0099  0.2485
   66loPI   C4A 1050  14.246   2.329   8.069  0.0336  0.1135  0.0273
   66loPI   C5A 1051  14.603   2.213   7.602  0.0813  0.1836  0.2320
   66loPI   C6A 1052  14.923   2.059   7.405  0.0902  0.1610 -0.1994
   66loPI   C1B 1053  13.649   1.765   8.958 -0.1982  0.1468 -0.1474
   66loPI   C2B 1054  13.817   1.797   8.576  0.0042 -0.1115 -0.1550
   66loPI   C3B 1055  13.889   2.031   8.179  0.3082 -0.0032 -0.1529
   66loPI   C4B 1056  13.916   1.950   7.721 -0.1240 -0.2167 -0.1047
   67loPI    C1 1057  18.660   1.028   9.650 -0.2801 -0.3129 -0.0423
   67loPI    C2 1058  18.666   0.685   9.856 -0.0386 -0.1168  0.2863
   67loPI    C3 1059  18.703   1.034  10.047  0.0954  0.0764 -0.0820
   67loPI   PO4 1060  18.420   0.984   9.505 -0.0904  0.0885 -0.1850
   67loPI   GL1 1061  18.094   0.741   9.163 -0.3051 -0.3463 -0.0134
   67loPI   GL2 1062  18.164   1.018   9.034  0.1056 -0.0537  0.2430
   67loPI   C1A 1063  17.936   0.666   8.681 -0.0343 -0.2343 -0.0337
   67loPI   C2A 1064  18.026   0.517   8.284 -0.0328  0.0005 -0.2216
   67loPI   C3A 1065  17.904   0.501   7.880  0.2692  0.2708 -0.1720
   67loPI   C4A 1066  17.956   0.723   7.574 -0.3068 -0.1873  0.3133
   67loPI   C5A 1067  18.055   0.933   7.185 -0.3296  0.0939 -0.0911
   67loPI   C6A 1068  17.902   1.324   7.114 -0.2076 -0.2466  0.0510
   67loPI   C1B 1069  18.446   0.789   8.707 -0.0466  0.2483  0.3535
   67loPI   C2B 1070  18.437   0.870   8.313 -0.2566 -0.3100 -0.1029
   67loPI   C3B 1071  18.301   0.858   7.932 -0.1888 -0.0669  0.1310
   67loPI   C4B 1072  18.325   1.062   7.562 -0.2129 -0.0971 -0.0386
   68loPI    C1 1073  17.873   9.221   9.810 -0.3373  0.2254  0.0954
   68loPI    C2 1074  17.955   9.423  10.145  0.2616  0.3675 -0.1245
   68loPI    C3 1075  17.946   9.023  10.149 -0.2422  0.3737  0.1625
   68loPI   PO4 1076  17.927   9.172   9.497  0.1847  0.1475  0.0135
   68loPI   GL1 1077  17.866   8.924   9.167  0.0546  0.2676  0.0986
   68loPI   GL2 1078  17.545   9.030   9.252 -0.2873 -0.0799  0.4134
   68loPI   C1A 1079  18.075   9.150   8.794  0.1394  0.0363  0.0727
   68loPI   C2A 1080  18.245   9.242   8.371  0.2122  0.0337  0.1312
   68loPI   C3A 1081  18.363   9.052   7.899  0.0892 -0.1051 -0.1816
   68loPI   C4A 1082  18.624   8.995   7.573 -0.0737 -0.4180 -0.0594
   68loPI   C5A 1083  18.627   8.842   7.095  0.0759  0.0787  0.0520
   68loPI   C6A 1084  18.746   8.425   7.059  0.0275 -0.2150 -0.0175
   68loPI   C1B 1085  17.386   9.037   8.901 -0.0015 -0.1711  0.3266
   68loPI   C2B 1086  17.369   9.048   8.470  0.0383  0.1320 -0.0740
   68loPI   C3B 1087  17.374   9.173   8.020 -0.1364 -0.0241 -0.0092
   68loPI   C4B 1088  17.410   9.018   7.632  0.1311  0.2053  0.2687
   69loPI    C1 1089  16.937  13.730  10.116  0.0484  0.0563 -0.1184
   69loPI    C2 1090  17.012  13.894  10.474  0.0157  0.0577 -0.1122
   69loPI    C3 1091  17.237  13.591  10.341 -0.2083 -0.1972  0.0763
   69loPI   PO4 1092  16.956  13.994   9.946 -0.1104 -0.0576  0.3143
   69loPI   GL1 1093  17.095  13.947   9.515  0.0220  0.2641  0.2850
   69loPI   GL2 1094  16.974  14.266   9.532  0.1557  0.2010  0.0949
   69loPI   C1A 1095  17.326  13.649   9.180  0.1393  0.4442  0.1407
   69loPI   C2A 1096  17.304  13.562   8.779  0.0064  0.0916 -0.0531
   69loPI   C3A 1097  17.311  13.544   8.281 -0.2184 -0.3067  0.0410
   69loPI   C4A 1098  17.179  13.460   7.922 -0.1143  0.2274 -0.2492
   69loPI   C5A 1099  17.152  13.734   7.558 -0.2073  0.3269 -0.0612
   69loPI   C6A 1100  17.235  13.706   7.148 -0.1354  0.1545 -0.4152
   69loPI   C1B 1101  17.040  14.349   9.150  0.0346  0.2529 -0.0808
   69loPI   C2B 1102  17.082  14.317   8.787 -0.0166  0.2570  0.2243
   69loPI   C3B 1103  17.172  14.284   8.407 -0.1581 -0.2699 -0.2163
   69loPI   C4B 1104  17.166  14.101   8.019 -0.5041 -0.3087 -0.3148
   70loPI    C1 1105   2.757   6.616   9.887  0.3371 -0.0319  0.1319
   70loPI    C2 1106   2.379   6.568  10.010  0.3088 -0.2629 -0.0377
   70loPI    C3 1107   2.561   6.922  10.053  0.1129 -0.1831  0.1506
   70loPI   PO4 1108   2.804   6.612   9.696  0.0471 -0.1726  0.0951
   70loPI   GL1 1109   2.942   6.554   9.285 -0.0009  0.1024 -0.0931
   70loPI   GL2 1110   3.245   6.461   9.134  0.0477  0.2491 -0.4025
   70loPI   C1A 1111   2.750   6.581   8.769  0.0634  0.0905 -0.3780
   70loPI   C2A 1112   2.839   6.471   8.308  0.2391  0.1066 -0.0106
   70loPI   C3A 1113   2.978   6.488   7.822 -0.0695 -0.0307  0.3281
   70loPI   C4A 1114   3.151   6.351   7.481  0.1451 -0.0362  0.1945
   70loPI   C5A 1115   3.333   6.108   7.193  0.0709  0.0397 -0.1574
   70loPI   C6A 1116   3.746   6.087   6.975  0.1849  0.0718  0.1096
   70loPI   C1B 1117   3.506   6.592   8.851  0.1892 -0.1768  0.2793
   70loPI   C2B 1118   3.616   7.010   8.723 -0.0069  0.2546 -0.0090
   70loPI   C3B 1119   3.568   7.219   8.354 -0.2851 -0.2159 -0.2784
   70loPI   C4B 1120   3.666   7.189   7.816  0.2360  0.0492 -0.3393
   71loPI    C1 1121  15.617   9.165   9.903 -0.3097  0.0853  0.1211
   71loPI    C2 1122  15.648   8.860  10.160  0.0603  0.0549  0.0466
   71loPI    C3 1123  15.580   9.230  10.295  0.0842  0.0130  0.1745
   71loPI   PO4 1124  15.457   9.036   9.727 -0.1328 -0.5297  0.0586
   71loPI   GL1 1125  15.230   9.119   9.331  0.0970  0.1793  0.0257
   71loPI   GL2 1126  15.414   8.772   9.303  0.1187 -0.0947  0.0270
   71loPI   C1A 1127  15.221   9.162   8.851  0.2734  0.1091  0.0874
   71loPI   C2A 1128  15.211   9.304   8.418  0.2320  0.0361  0.3594
   71loPI   C3A 1129  15.287   9.515   8.001 -0.2910 -0.0321  0.0561
   71loPI   C4A 1130  15.229   9.680   7.537 -0.1203  0.3024 -0.0097
   71loPI   C5A 1131  15.155   9.931   7.154 -0.1552  0.0683 -0.2652
   71loPI   C6A 1132  14.966  10.378   7.047 -0.0778 -0.0900 -0.0352
   71loPI   C1B 1133  15.436   8.586   8.897 -0.1633 -0.0195 -0.2808
   71loPI   C2B 1134  15.691   8.509   8.590 -0.2776  0.0285  0.0970
   71loPI   C3B 1135  15.728   8.527   8.068 -0.3549 -0.1692  0.0190
   71loPI   C4B 1136  15.737   8.589   7.539  0.0886 -0.2612 -0.0123
   72loPI    C1 1137  13.260  14.662   9.657 -0.0125 -0.0092 -0.1630
   72loPI    C2 1138  13.306  14.885   9.985  0.1312 -0.0411 -0.1606
   72loPI    C3 1139  13.116  14.534  10.007  0.1825 -0.0654 -0.1020
   72loPI   PO4 1140  13.481  14.860   9.501 -0.0782  0.2181 -0.0238
   72loPI   GL1 1141  13.553  14.874   9.037  0.1733  0.0379 -0.0934
   72loPI   GL2 1142  13.396  14.585   8.781  0.0272 -0.1700 -0.1364
   72loPI   C1A 1143  13.242  15.057   8.825 -0.3037 -0.2123  0.2147
   72loPI   C2A 1144  13.013  15.177   8.480  0.4055 -0.2622  0.0784
   72loPI   C3A 1145  12.847  15.149   8.033  0.3871  0.1134  0.0945
   72loPI   C4A 1146  12.788  15.397   7.528  0.1539 -0.1086  0.2623
   72loPI   C5A 1147  12.911  15.336   7.088 -0.0052  0.0040  0.1155
   72loPI   C6A 1148  12.855  15.470   6.715  0.0300  0.1543 -0.0504
   72loPI   C1B 1149  13.402  14.788   8.358  0.0675 -0.2124 -0.1031
   72loPI   C2B 1150  13.435  14.559   7.968 -0.1325  0.0180  0.1710
   72loPI   C3B 1151  13.586  14.293   7.648  0.0073 -0.1691 -0.1442
   72loPI   C4B 1152  13.853  14.167   7.446 -0.0711  0.0121  0.0982
   73loPI    C1 1153   3.600  17.242   9.730  0.1354 -0.0231  0.1970
   73loPI    C2 1154   3.714  16.967   9.997 -0.0202 -0.0688  0.2178
   73loPI    C3 1155   3.428  17.230  10.091 -0.2242 -0.2181  0.0249
   73loPI   PO4 1156   3.480  17.130   9.467 -0.0968 -0.0994  0.0666
   73loPI   GL1 1157   3.117  17.264   9.314  0.0487  0.0012  0.1303
   73loPI   GL2 1158   3.146  17.102   9.099  0.1906  0.1757 -0.1212
   73loPI   C1A 1159   3.044  17.543   9.027  0.0857 -0.1463 -0.0189
   73loPI   C2A 1160   2.901  17.713   8.788  0.1145 -0.1428 -0.1070
   73loPI   C3A 1161   2.773  17.948   8.440  0.1977 -0.1272  0.1951
   73loPI   C4A 1162   2.665  18.047   8.010  0.3277 -0.0492  0.0816
   73loPI   C5A 1163   2.530  17.936   7.684 -0.2317 -0.2241 -0.3134
   73loPI   C6A 1164   2.405  17.816   7.333 -0.6149  0.1349  0.1562
   73loPI   C1B 1165   3.022  17.217   8.602  0.0664 -0.0951  0.1503
   73loPI   C2B 1166   2.900  17.422   8.345  0.0702 -0.0371  0.1763
   73loPI   C3B 1167   2.734  17.556   7.988  0.0112  0.1771 -0.1223
   73loPI   C4B 1168   2.835  17.512   7.539 -0.1455 -0.0507  0.0410
   74loPI    C1 1169   7.739   6.487  10.213 -0.0663  0.3337 -0.4249
   74loPI    C2 1170   7.879   6.281   9.900  0.0742 -0.0477 -0.1204
   74loPI    C3 1171   7.559   6.148  10.100 -0.0019  0.1821 -0.0854
   74loPI   PO4 1172   7.703   6.786  10.068  0.0300  0.2501  0.4799
   74loPI   GL1 1173   7.911   6.918   9.699 -0.1620 -0.1948  0.1448
   74loPI   GL2 1174   8.193   6.754   9.827  0.2411  0.1575  0.0555
   74loPI   C1A 1175   8.035   6.898   9.179  0.0086  0.2429  0.0252
   74loPI   C2A 1176   8.025   6.810   8.690 -0.0515 -0.1333 -0.0292
   74loPI   C3A 1177   8.223   6.761   8.343 -0.1422 -0.1494  0.1014
   74loPI   C4A 1178   8.249   6.891   7.843 -0.1090  0.2588  0.0120
   74loPI   C5A 1179   8.390   7.294   7.620 -0.0203 -0.2496 -0.0767
   74loPI   C6A 1180   8.749   7.353   7.409 -0.1643  0.0498  0.4978
   74loPI   C1B 1181   8.145   6.458   9.502 -0.0589 -0.0896  0.0412
   74loPI   C2B 1182   8.051   6.400   9.080 -0.3860  0.0193 -0.2184
   74loPI   C3B 1183   8.073   6.343   8.741  0.0352  0.1439  0.0179
   74loPI   C4B 1184   7.805   6.352   8.477  0.0824  0.2494  0.0676
   75loPI    C1 1185   1.971   1.326   9.784  0.0123  0.1054  0.2569
   75loPI    C2 1186   1.583   1.399   9.850  0.0247  0.0566  0.3859
   75loPI    C3 1187   1.857   1.519  10.116  0.1024  0.1318  0.2727
   75loPI   PO4 1188   2.055   1.469   9.536  0.0776 -0.0514  0.0767
   75loPI   GL1 1189   1.747   1.633   9.357 -0.2806 -0.2472 -0.0113
   75loPI   GL2 1190   1.732   1.242   9.184 -0.1958  0.1735 -0.3270
   75loPI   C1A 1191   1.824   1.735   8.970  0.0205  0.0324  0.2057
   75loPI   C2A 1192   1.602   1.971   8.667 -0.2270 -0.0589  0.0088
   75loPI   C3A 1193   1.621   2.089   8.194  0.0512  0.0917 -0.0142
   75loPI   C4A 1194   2.032   2.155   7.833  0.2027 -0.1917 -0.0098
   75loPI   C5A 1195   2.323   2.008   7.476  0.1219 -0.0549 -0.1333
   75loPI   C6A 1196   2.410   1.685   7.204 -0.1020 -0.0582  0.2144
   75loPI   C1B 1197   1.863   1.265   8.753  0.0173 -0.0159  0.5574
   75loPI   C2B 1198   1.922   1.541   8.512  0.2887 -0.2215 -0.1246
   75loPI   C3B 1199   1.864   1.677   8.099 -0.0842 -0.1468  0.1299
   75loPI   C4B 1200   1.946   1.592   7.698  0.3758  0.0530 -0.1686
   76loPI    C1 1201   1.238  17.694  10.066 -0.0245  0.0589  0.1713
   76loPI    C2 1202   0.848  17.607  10.086  0.0066 -0.0731  0.2160
   76loPI    C3 1203   1.095  17.485  10.376  0.0962 -0.0686  0.1419
   76loPI   PO4 1204   1.284  17.575   9.799 -0.0171 -0.1680 -0.0295
   76loPI   GL1 1205   1.359  17.545   9.357  0.2697 -0.0822  0.3577
   76loPI   GL2 1206   1.357  17.168   9.392 -0.1828  0.3320  0.2263
   76loPI   C1A 1207   0.972  17.431   9.080 -0.2127  0.1092 -0.3235
   76loPI   C2A 1208   0.737  17.485   8.697  0.2638 -0.2303  0.0931
   76loPI   C3A 1209   0.570  17.446   8.373  0.1954 -0.1703  0.0415
   76loPI   C4A 1210   0.608  17.402   7.932 -0.3945 -0.0315 -0.0531
   76loPI   C5A 1211   0.463  17.332   7.553  0.1366 -0.0879 -0.0487
   76loPI   C6A 1212   0.149  17.444   7.287  0.0232  0.0344  0.1140
   76loPI   C1B 1213   1.313  17.037   8.973 -0.1597 -0.1712 -0.0138
   76loPI   C2B 1214   1.319  17.367   8.708 -0.1443 -0.1619 -0.1500
   76loPI   C3B 1215   1.259  17.511   8.242 -0.1571  0.0397 -0.0979
   76loPI   C4B 1216   1.058  17.604   7.924  0.3569  0.2221  0.1039
   77loPI    C1 1217  11.780   3.111  10.629  0.0618  0.0106  0.1878
   77loPI    C2 1218  12.117   3.266  10.480 -0.0368  0.0789  0.0335
   77loPI    C3 1219  12.020   3.330  10.863  0.1704 -0.0177  0.1039
   77loPI   PO4 1220  11.646   3.060  10.309 -0.1786 -0.2695 -0.1758
   77loPI   GL1 1221  11.878   2.917   9.962  0.0302  0.0076 -0.0506
   77loPI   GL2 1222  11.833   2.596   9.818  0.2360 -0.2758  0.1177
   77loPI   C1A 1223  11.880   3.086   9.517 -0.0257 -0.1827  0.1171
   77loPI   C2A 1224  11.903   3.216   9.115 -0.0502  0.2676 -0.1911
   77loPI   C3A 1225  11.920   3.222   8.708 -0.1593 -0.1464  0.2552
   77loPI   C4A 1226  11.779   3.155   8.329 -0.3041 -0.3299  0.1168
   77loPI   C5A 1227  12.044   3.175   7.964 -0.1723  0.3242  0.0483
   77loPI   C6A 1228  12.458   3.036   7.895  0.1628  0.0549 -0.2215
   77loPI   C1B 1229  11.874   2.558   9.362  0.2248  0.2317  0.2637
   77loPI   C2B 1230  11.988   2.531   8.956  0.0307  0.2647 -0.0433
   77loPI   C3B 1231  11.917   2.682   8.555  0.1997 -0.0557  0.0951
   77loPI   C4B 1232  11.996   2.655   8.132 -0.0114 -0.0711  0.3669
   78loPI    C1 1233   3.459  13.606   9.921 -0.0478  0.1397  0.1398
   78loPI    C2 1234   3.116  13.423   9.827  0.0737 -0.0098 -0.0193
   78loPI    C3 1235   3.292  13.349  10.178  0.0213 -0.0478 -0.0007
   78loPI   PO4 1236   3.603  13.590   9.805 -0.0655  0.2992 -0.0879
   78loPI   GL1 1237   3.439  13.596   9.361 -0.1707 -0.0533  0.2170
   78loPI   GL2 1238   3.147  13.455   9.364  0.1593  0.0369 -0.1609
   78loPI   C1A 1239   3.625  13.575   8.936 -0.3057 -0.2747 -0.2090
   78loPI   C2A 1240   3.467  13.652   8.431 -0.1557 -0.0061 -0.2402
   78loPI   C3A 1241   3.446  13.676   8.038  0.0806  0.0587  0.0132
   78loPI   C4A 1242   3.564  13.885   7.626  0.0071 -0.1247  0.2583
   78loPI   C5A 1243   3.963  13.742   7.441 -0.0824  0.1964 -0.0709
   78loPI   C6A 1244   4.045  13.239   7.459  0.0808 -0.0871  0.2382
   78loPI   C1B 1245   3.155  13.597   8.927 -0.1829  0.3140 -0.1236
   78loPI   C2B 1246   2.982  13.704   8.577  0.0171  0.3287  0.4055
   78loPI   C3B 1247   2.982  13.718   8.149 -0.0366 -0.1791 -0.0097
   78loPI   C4B 1248   3.109  13.902   7.798 -0.1042 -0.3723  0.0437
   79loPI    C1 1249  14.723  10.415   9.627  0.0168  0.1543  0.0330
   79loPI    C2 1250  14.494  10.397   9.955 -0.0604  0.0355 -0.0267
   79loPI    C3 1251  14.880  10.295   9.975 -0.0994 -0.1093 -0.0031
   79loPI   PO4 1252  14.484  10.329   9.434 -0.1403  0.2390 -0.0779
   79loPI   GL1 1253  14.307  10.549   9.200 -0.0153 -0.0103 -0.1509
   79loPI   GL2 1254  13.933  10.553   9.275  0.1501  0.0862 -0.0890
   79loPI   C1A 1255  14.277  10.747   8.894 -0.2787 -0.0217 -0.0169
   79loPI   C2A 1256  14.214  10.831   8.534  0.0247 -0.3827 -0.1512
   79loPI   C3A 1257  14.492  11.009   8.221  0.0597  0.3974  0.0132
   79loPI   C4A 1258  14.660  11.293   7.823  0.2240 -0.0889 -0.2088
   79loPI   C5A 1259  14.596  11.562   7.481 -0.1253  0.2251  0.1930
   79loPI   C6A 1260  14.204  11.727   7.301  0.0441  0.2646  0.3103
   79loPI   C1B 1261  13.788  10.466   8.852 -0.0199  0.3060 -0.0074
   79loPI   C2B 1262  13.604  10.558   8.457  0.3956  0.1009  0.1125
   79loPI   C3B 1263  13.639  10.687   8.000 -0.2262 -0.1402 -0.1898
   79loPI   C4B 1264  13.557  10.721   7.529 -0.2229  0.1433  0.1423
   80loPI    C1 1265   5.047   6.988   9.541 -0.1148  0.2407  0.0279
   80loPI    C2 1266   5.248   7.001   9.886  0.1623 -0.0798 -0.1167
   80loPI    C3 1267   4.849   7.021   9.887  0.1760  0.2871  0.1929
   80loPI   PO4 1268   5.102   6.755   9.401  0.0552  0.1926 -0.1123
   80loPI   GL1 1269   4.981   6.766   8.993  0.4118  0.1071  0.0767
   80loPI   GL2 1270   5.203   6.460   8.942 -0.0957 -0.1135  0.1337
   80loPI   C1A 1271   5.051   6.895   8.620  0.2446 -0.0861 -0.0736
   80loPI   C2A 1272   4.989   6.756   8.215 -0.3094  0.0688 -0.0000
   80loPI   C3A 1273   5.105   6.837   7.772  0.0713  0.0671 -0.0446
   80loPI   C4A 1274   5.384   6.818   7.419  0.1091  0.1095  0.0184
   80loPI   C5A 1275   5.398   6.554   6.970  0.0779 -0.1850 -0.1057
   80loPI   C6A 1276   5.610   6.626   6.616 -0.3935  0.0492 -0.0716
   80loPI   C1B 1277   4.964   6.402   8.517 -0.3001 -0.1916  0.1973
   80loPI   C2B 1278   4.941   6.253   8.116  0.2468 -0.0962  0.0420
   80loPI   C3B 1279   5.238   6.195   7.821  0.1271 -0.3113 -0.1930
   80loPI   C4B 1280   5.594   6.419   7.725 -0.0342  0.0457  0.3835
   81loPI    C1 1281  13.253   3.570  10.359 -0.1625  0.1179  0.0822
   81loPI    C2 1282  13.338   3.264  10.115  0.1733  0.1175  0.1943
   81loPI    C3 1283  13.329   3.208  10.511 -0.1457  0.1694  0.1974
   81loPI   PO4 1284  13.095   3.680  10.250  0.0482 -0.4069 -0.0045
   81loPI   GL1 1285  12.968   3.967   9.957 -0.2811  0.0910  0.0254
   81loPI   GL2 1286  12.749   4.202  10.002 -0.0423  0.1429  0.3575
   81loPI   C1A 1287  12.939   4.197   9.538 -0.1822 -0.3727  0.1327
   81loPI   C2A 1288  12.885   4.137   9.116 -0.1097  0.1175  0.0687
   81loPI   C3A 1289  12.800   4.028   8.602  0.2375  0.0438  0.1524
   81loPI   C4A 1290  12.752   3.925   8.156  0.0346 -0.0246  0.1211
   81loPI   C5A 1291  12.360   3.909   7.859  0.0400 -0.0032 -0.1000
   81loPI   C6A 1292  11.963   3.632   7.772  0.1064 -0.3502 -0.0041
   81loPI   C1B 1293  12.449   4.012   9.720  0.3236 -0.1412  0.1322
   81loPI   C2B 1294  12.360   3.986   9.277 -0.2247 -0.1374  0.1303
   81loPI   C3B 1295  12.364   4.026   8.868 -0.2584  0.0567  0.3321
   81loPI   C4B 1296  12.258   3.951   8.477  0.0954 -0.0820  0.1022
   82loPI    C1 1297   4.033  13.322   9.909  0.1722  0.0618  0.1206
   82loPI    C2 1298   3.975  13.270  10.302 -0.0103 -0.4114  0.0382
   82loPI    C3 1299   3.700  13.143  10.041 -0.0080  0.1234 -0.2386
   82loPI   PO4 1300   4.207  13.254   9.840 -0.1879 -0.1499 -0.0330
   82loPI   GL1 1301   4.341  13.127   9.455 -0.2916 -0.2591  0.0912
   82loPI   GL2 1302   4.389  12.944   9.200 -0.2964  0.3454  0.2427
   82loPI   C1A 1303   4.738  13.343   9.284  0.0528  0.0067 -0.0253
   82loPI   C2A 1304   4.886  13.449   9.003  0.1257 -0.1157  0.0940
   82loPI   C3A 1305   4.782  13.513   8.543 -0.1845  0.2247 -0.1601
   82loPI   C4A 1306   4.807  13.433   8.094  0.4342 -0.0292  0.1269
   82loPI   C5A 1307   4.933  13.293   7.694  0.2275 -0.1815 -0.1861
   82loPI   C6A 1308   5.237  13.063   7.666  0.1679 -0.0087 -0.3392
   82loPI   C1B 1309   4.426  13.121   8.776 -0.0683 -0.0557  0.2414
   82loPI   C2B 1310   4.464  13.182   8.315  0.2733 -0.0697  0.2388
   82loPI   C3B 1311   4.416  13.339   7.839  0.0216 -0.0033 -0.3027
   82loPI   C4B 1312   4.475  13.552   7.484 -0.0513 -0.3445  0.2243
   83loPI    C1 1313   1.877  13.747   9.702  0.0114  0.0410  0.2291
   83loPI    C2 1314   1.767  13.492   9.990 -0.1594  0.2566  0.3584
   83loPI    C3 1315   1.597  13.853   9.968 -0.0748  0.2802  0.0464
   83loPI   PO4 1316   2.064  13.878   9.701 -0.0784 -0.1537 -0.2040
   83loPI   GL1 1317   2.107  14.125   9.357 -0.0700  0.3734  0.1324
   83loPI   GL2 1318   1.772  14.017   9.311 -0.0702 -0.3329  0.0423
   83loPI   C1A 1319   2.364  14.143   8.981  0.0516  0.0748 -0.0790
   83loPI   C2A 1320   2.172  13.999   8.561  0.1803  0.1685 -0.1508
   83loPI   C3A 1321   2.439  13.885   8.247 -0.2591  0.1289  0.0253
   83loPI   C4A 1322   2.540  13.721   7.844 -0.1735  0.3845  0.0274
   83loPI   C5A 1323   2.781  13.658   7.485  0.2943 -0.0754  0.1700
   83loPI   C6A 1324   2.647  13.917   7.097  0.2035  0.2103 -0.0134
   83loPI   C1B 1325   1.727  13.948   8.923 -0.1950 -0.0408 -0.0520
   83loPI   C2B 1326   1.575  13.848   8.452 -0.2323 -0.1581 -0.0042
   83loPI   C3B 1327   1.387  13.823   8.131 -0.0083  0.2432 -0.0719
   83loPI   C4B 1328   1.185  13.762   7.778 -0.3202  0.1227 -0.1063
   84loPI    C1 1329  12.204  13.152  10.203 -0.1937  0.1033  0.0255
   84loPI    C2 1330  11.995  13.020  10.518 -0.3160  0.2083 -0.0108
   84loPI    C3 1331  12.371  13.147  10.567 -0.2607  0.0220  0.0554
   84loPI   PO4 1332  12.245  12.985  10.045 -0.0642  0.1091 -0.2120
   84loPI   GL1 1333  12.117  12.721   9.642  0.0052 -0.2199  0.0761
   84loPI   GL2 1334  12.233  13.006   9.536 -0.0950 -0.2468 -0.0721
   84loPI   C1A 1335  11.952  12.566   9.134  0.1379  0.2505  0.1094
   84loPI   C2A 1336  11.767  12.339   8.782  0.1886  0.1974  0.0821
   84loPI   C3A 1337  11.870  12.444   8.310 -0.0151 -0.1148 -0.1139
   84loPI   C4A 1338  11.751  12.437   7.844 -0.0410  0.0933  0.2677
   84loPI   C5A 1339  11.643  12.774   7.488  0.1080  0.0109  0.0774
   84loPI   C6A 1340  11.458  13.231   7.489 -0.0504  0.2948  0.1486
   84loPI   C1B 1341  12.325  12.897   9.045  0.1490  0.0455 -0.1196
   84loPI   C2B 1342  12.251  12.727   8.675  0.2446 -0.0934 -0.1392
   84loPI   C3B 1343  12.424  12.650   8.308  0.1461  0.0247 -0.1890
   84loPI   C4B 1344  12.184  12.775   7.855 -0.2926 -0.2616  0.2696
   85loPI    C1 1345  12.119   2.076  10.343  0.0985  0.1547  0.0973
   85loPI    C2 1346  11.963   2.124  10.708  0.2090  0.1463  0.1461
   85loPI    C3 1347  11.860   1.807  10.486  0.2918  0.0466  0.2492
   85loPI   PO4 1348  12.048   2.242  10.103 -0.0215  0.0445  0.1165
   85loPI   GL1 1349  12.063   2.141   9.616  0.1633 -0.2380  0.0959
   85loPI   GL2 1350  11.824   2.095   9.642 -0.0688 -0.1251  0.1228
   85loPI   C1A 1351  12.280   2.236   9.369  0.0771 -0.0057 -0.0001
   85loPI   C2A 1352  12.300   2.074   8.984 -0.2859 -0.3333 -0.3822
   85loPI   C3A 1353  12.180   2.226   8.623  0.1522 -0.0263  0.4162
   85loPI   C4A 1354  12.329   2.258   8.165 -0.0344  0.2980  0.2890
   85loPI   C5A 1355  12.324   2.140   7.690 -0.6181  0.1491  0.3523
   85loPI   C6A 1356  11.940   1.867   7.454  0.1996  0.1345 -0.1451
   85loPI   C1B 1357  11.843   1.974   9.167  0.1601 -0.0521  0.0976
   85loPI   C2B 1358  11.907   1.770   8.822  0.0093 -0.0651  0.1200
   85loPI   C3B 1359  11.988   1.486   8.504 -0.0263  0.1219 -0.1889
   85loPI   C4B 1360  12.085   1.384   8.120  0.0131  0.0216  0.1795
   86loPI    C1 1361  10.443   4.259  10.206  0.0806 -0.0372 -0.1442
   86loPI    C2 1362  10.769   4.483  10.145  0.1523 -0.0968  0.0139
   86loPI    C3 1363  10.684   4.349  10.512 -0.2534  0.2303  0.0469
   86loPI   PO4 1364  10.433   4.069   9.979  0.0490  0.1618 -0.1836
   86loPI   GL1 1365  10.567   4.173   9.659 -0.1545  0.1054  0.0069
   86loPI   GL2 1366  10.851   4.331   9.673  0.1734  0.0472 -0.0348
   86loPI   C1A 1367  10.636   4.108   9.279 -0.3467  0.3114  0.0115
   86loPI   C2A 1368  10.820   4.212   8.875  0.0670 -0.4386  0.0888
   86loPI   C3A 1369  10.867   4.196   8.424  0.2359  0.4614  0.1806
   86loPI   C4A 1370  10.824   4.104   8.017  0.0443 -0.2419 -0.2094
   86loPI   C5A 1371  11.170   4.165   7.796  0.0804 -0.2386  0.0651
   86loPI   C6A 1372  11.476   4.304   7.503  0.1964 -0.0164 -0.0847
   86loPI   C1B 1373  11.057   4.467   9.303 -0.1731  0.2342  0.3545
   86loPI   C2B 1374  11.141   4.619   8.862  0.1253  0.0078 -0.2839
   86loPI   C3B 1375  11.261   4.655   8.461  0.3633 -0.0240 -0.2322
   86loPI   C4B 1376  11.075   4.730   8.135 -0.1151 -0.0744  0.0221
   87loPI    C1 1377  17.247   9.123   9.735  0.0855  0.1865 -0.0306
   87loPI    C2 1378  17.355   8.973  10.090 -0.4675  0.2254  0.1636
   87loPI    C3 1379  17.435   9.355  10.002  0.1793  0.0660  0.0088
   87loPI   PO4 1380  17.156   8.985   9.618  0.2909 -0.0924 -0.2493
   87loPI   GL1 1381  17.121   8.750   9.227  0.2807 -0.4019  0.0168
   87loPI   GL2 1382  16.805   8.831   9.126 -0.0697  0.2791  0.0290
   87loPI   C1A 1383  17.208   8.542   8.875 -0.0529 -0.0128  0.3635
   87loPI   C2A 1384  17.202   8.621   8.583  0.3472  0.2342  0.3859
   87loPI   C3A 1385  17.154   8.690   8.156 -0.1039  0.0749 -0.1802
   87loPI   C4A 1386  17.419   8.539   7.795  0.0343  0.3512  0.1318
   87loPI   C5A 1387  17.426   8.496   7.370 -0.3306  0.3573  0.0491
   87loPI   C6A 1388  17.712   8.554   7.123  0.1320 -0.0182  0.0328
   87loPI   C1B 1389  16.942   9.023   8.741  0.0267  0.1047 -0.1540
   87loPI   C2B 1390  16.887   9.100   8.245 -0.3580 -0.2153  0.2348
   87loPI   C3B 1391  16.938   8.890   7.771  0.1932 -0.1268  0.0449
   87loPI   C4B 1392  16.878   9.074   7.255 -0.3147 -0.1270  0.2374
   88loPI    C1 1393  13.826   6.541  10.000 -0.1518 -0.1032 -0.0165
   88loPI    C2 1394  13.920   6.230  10.233 -0.0960 -0.1239 -0.0665
   88loPI    C3 1395  13.824   6.581  10.398  0.1703 -0.0727 -0.0148
   88loPI   PO4 1396  13.852   6.443   9.741 -0.0266  0.1154 -0.5086
   88loPI   GL1 1397  14.018   6.410   9.297 -0.2028  0.1771 -0.0945
   88loPI   GL2 1398  14.137   6.710   9.428 -0.3425 -0.0923  0.1648
   88loPI   C1A 1399  13.937   6.505   8.754  0.2502  0.3263  0.1359
   88loPI   C2A 1400  13.977   6.615   8.371  0.0859  0.0446 -0.1328
   88loPI   C3A 1401  13.810   6.715   7.984  0.1896  0.2206 -0.0997
   88loPI   C4A 1402  13.489   6.867   7.805  0.2293  0.0068  0.1198
   88loPI   C5A 1403  13.140   7.050   7.624 -0.0435 -0.1312 -0.2141
   88loPI   C6A 1404  12.892   7.321   7.470  0.1437 -0.0753  0.0431
   88loPI   C1B 1405  13.998   6.887   9.080 -0.1299  0.0605  0.3053
   88loPI   C2B 1406  13.986   7.031   8.700 -0.2233  0.2119 -0.1147
   88loPI   C3B 1407  13.904   7.134   8.281 -0.0785  0.0049  0.4112
   88loPI   C4B 1408  13.889   7.218   7.886 -0.0307  0.4966 -0.0350
   89loPI    C1 1409  10.033  13.010  10.072 -0.3191  0.0208 -0.1686
   89loPI    C2 1410   9.690  12.858  10.209 -0.2572  0.1121  0.0924
   89loPI    C3 1411   9.952  13.023  10.463  0.1004 -0.1939 -0.0682
   89loPI   PO4 1412   9.975  12.911   9.825  0.2663  0.2111  0.2172
   89loPI   GL1 1413  10.038  12.627   9.494 -0.0954  0.0149 -0.3184
   89loPI   GL2 1414   9.820  12.473   9.620 -0.0081  0.1592 -0.1740
   89loPI   C1A 1415   9.915  12.536   9.100  0.0446  0.1053  0.1312
   89loPI   C2A 1416   9.850  12.378   8.610  0.0681 -0.0349 -0.2195
   89loPI   C3A 1417   9.746  12.301   8.206 -0.1223 -0.0594 -0.1351
   89loPI   C4A 1418   9.399  12.423   7.965 -0.1832  0.0862  0.0638
   89loPI   C5A 1419   9.085  12.712   7.678 -0.3317  0.1064 -0.0786
   89loPI   C6A 1420   8.612  12.728   7.603  0.0259  0.2759  0.0268
   89loPI   C1B 1421   9.478  12.560   9.278 -0.1168 -0.1577 -0.0356
   89loPI   C2B 1422   9.395  12.516   8.915 -0.1873  0.1101 -0.0009
   89loPI   C3B 1423   9.220  12.432   8.540 -0.2043 -0.2711  0.2017
   89loPI   C4B 1424   9.060  12.202   8.292  0.3689  0.1136  0.0601
   90loPI    C1 1425   4.978   3.609   9.865  0.0771  0.1985 -0.0977
   90loPI    C2 1426   4.967   3.810  10.210  0.1203  0.1947 -0.0941
   90loPI    C3 1427   5.309   3.643  10.086  0.0293 -0.0835  0.0218
   90loPI   PO4 1428   4.894   3.773   9.672  0.0749  0.2958  0.0627
   90loPI   GL1 1429   5.033   3.790   9.350  0.0884  0.0441  0.2861
   90loPI   GL2 1430   4.876   3.659   9.109  0.0035  0.0243  0.0067
   90loPI   C1A 1431   5.010   4.148   9.043  0.1582 -0.1374 -0.1427
   90loPI   C2A 1432   5.008   4.319   8.587 -0.0333  0.0166  0.4421
   90loPI   C3A 1433   4.972   4.355   8.117 -0.0519 -0.2388 -0.2247
   90loPI   C4A 1434   4.916   4.103   7.675 -0.1647  0.0569  0.0773
   90loPI   C5A 1435   4.614   4.070   7.312 -0.2312  0.1666  0.0671
   90loPI   C6A 1436   4.740   3.769   6.996 -0.0029  0.0333 -0.1596
   90loPI   C1B 1437   4.980   3.815   8.676  0.0252  0.2014 -0.1794
   90loPI   C2B 1438   5.050   3.761   8.143  0.3580 -0.3086 -0.0332
   90loPI   C3B 1439   5.271   3.759   7.794 -0.0861 -0.3367  0.3391
   90loPI   C4B 1440   5.508   3.640   7.466 -0.2183 -0.2928  0.0739
   91loPI    C1 1441  11.658  14.704  10.115  0.0619  0.1156  0.1850
   91loPI    C2 1442  11.360  14.942  10.237  0.0568  0.1845  0.0406
   91loPI    C3 1443  11.631  14.809  10.500  0.1667  0.5013  0.0921
   91loPI   PO4 1444  11.536  14.558   9.933  0.1640 -0.0079  0.2692
   91loPI   GL1 1445  11.405  14.628   9.541  0.1290 -0.0073  0.0020
   91loPI   GL2 1446  11.159  14.372   9.555 -0.2852  0.1964 -0.1472
   91loPI   C1A 1447  11.463  14.596   9.072  0.1383  0.3084  0.0160
   91loPI   C2A 1448  11.380  14.594   8.591 -0.0378 -0.1865 -0.1489
   91loPI   C3A 1449  11.338  14.608   8.154 -0.0544  0.1487  0.1323
   91loPI   C4A 1450  11.405  14.517   7.745  0.1047  0.0177  0.0109
   91loPI   C5A 1451  11.324  14.456   7.331  0.1773 -0.2618  0.2062
   91loPI   C6A 1452  11.064  14.228   7.050  0.0919 -0.2125 -0.1488
   91loPI   C1B 1453  11.021  14.336   9.226 -0.1248  0.2467  0.1368
   91loPI   C2B 1454  11.074  14.235   8.776  0.0172 -0.0982 -0.1328
   91loPI   C3B 1455  11.076  14.244   8.333  0.2345 -0.1157 -0.2164
   91loPI   C4B 1456  10.978  14.352   7.915 -0.1014 -0.2033  0.0924
   92loPI    C1 1457  11.590  15.592  10.191  0.0711 -0.0832  0.1583
   92loPI    C2 1458  11.807  15.922  10.250  0.0174  0.0112 -0.1571
   92loPI    C3 1459  11.517  15.826  10.507  0.1860  0.0831  0.0630
   92loPI   PO4 1460  11.792  15.442   9.984  0.1119 -0.1208  0.2793
   92loPI   GL1 1461  11.565  15.276   9.624 -0.1216 -0.0538 -0.0463
   92loPI   GL2 1462  11.785  15.342   9.477  0.0115 -0.2745 -0.0348
   92loPI   C1A 1463  11.213  15.355   9.245 -0.0880  0.1100 -0.1904
   92loPI   C2A 1464  10.956  15.458   8.832 -0.2321 -0.1550 -0.1164
   92loPI   C3A 1465  10.875  15.383   8.425  0.1197 -0.4507 -0.0987
   92loPI   C4A 1466  11.022  15.369   8.028 -0.2196  0.0891  0.0299
   92loPI   C5A 1467  10.921  15.258   7.586 -0.3872 -0.3019 -0.1219
   92loPI   C6A 1468  10.661  15.176   7.373  0.2731 -0.1562  0.0466
   92loPI   C1B 1469  11.703  15.017   9.185  0.0489  0.3997 -0.1519
   92loPI   C2B 1470  11.587  15.001   8.780  0.2031 -0.1388  0.0336
   92loPI   C3B 1471  11.278  15.035   8.355  0.0169  0.1527 -0.0237
   92loPI   C4B 1472  11.307  14.987   7.820 -0.3060  0.3179 -0.0223
   93loPI    C1 1473  16.316   2.163   9.947  0.1058 -0.1712  0.1588
   93loPI    C2 1474  16.180   2.539   9.966  0.1182 -0.1617  0.0660
   93loPI    C3 1475  16.288   2.348  10.301 -0.2021 -0.1983  0.1516
   93loPI   PO4 1476  16.126   2.081   9.777  0.0059  0.0664 -0.3131
   93loPI   GL1 1477  15.926   2.164   9.419  0.1694 -0.0419 -0.3032
   93loPI   GL2 1478  16.125   2.458   9.421  0.3694 -0.0575  0.0030
   93loPI   C1A 1479  15.800   2.278   9.009 -0.2489 -0.2297  0.1305
   93loPI   C2A 1480  15.713   2.242   8.608 -0.0573  0.0971  0.3396
   93loPI   C3A 1481  15.800   2.392   8.147  0.0158  0.4376 -0.1108
   93loPI   C4A 1482  15.889   2.337   7.717 -0.1435 -0.3715 -0.2177
   93loPI   C5A 1483  15.777   2.090   7.368 -0.1835 -0.0627  0.1603
   93loPI   C6A 1484  15.837   1.725   7.191 -0.0445 -0.0964 -0.2303
   93loPI   C1B 1485  16.180   2.601   9.089  0.1368 -0.0228  0.0418
   93loPI   C2B 1486  16.039   2.665   8.705  0.1015 -0.0467  0.0593
   93loPI   C3B 1487  16.073   2.749   8.268 -0.3805 -0.1069 -0.1443
   93loPI   C4B 1488  16.210   2.861   7.827 -0.0283 -0.1162  0.1422
   94loPI    C1 1489   3.043   9.267   9.638 -0.3515 -0.0689  0.0121
   94loPI    C2 1490   3.317   8.978   9.671 -0.2087  0.0517 -0.0992
   94loPI    C3 1491   3.180   9.162   9.999 -0.2530 -0.0971 -0.0332
   94loPI   PO4 1492   3.056   9.265   9.275  0.1943  0.2636 -0.3144
   94loPI   GL1 1493   3.390   8.976   9.087 -0.2445 -0.1609  0.1977
   94loPI   GL2 1494   3.644   8.831   9.146 -0.1089  0.0721  0.3001
   94loPI   C1A 1495   3.291   9.005   8.682  0.1179  0.0856  0.3207
   94loPI   C2A 1496   3.283   8.841   8.338 -0.1481  0.2671  0.3012
   94loPI   C3A 1497   3.412   8.660   8.005  0.2273 -0.2083  0.0051
   94loPI   C4A 1498   3.386   8.623   7.668 -0.1272 -0.1228  0.0203
   94loPI   C5A 1499   3.433   8.547   7.286 -0.1478 -0.0147 -0.1222
   94loPI   C6A 1500   3.520   8.392   6.859  0.1313 -0.1986 -0.0813
   94loPI   C1B 1501   3.796   9.140   8.792  0.0083 -0.2108 -0.1554
   94loPI   C2B 1502   3.919   9.220   8.374 -0.1240  0.1053 -0.3545
   94loPI   C3B 1503   3.794   9.182   7.917 -0.1301 -0.2913 -0.1529
   94loPI   C4B 1504   3.725   9.382   7.609 -0.0347  0.1194 -0.4018
   95loPI    C1 1505   3.653  14.922  10.047  0.2329 -0.0402  0.0138
   95loPI    C2 1506   3.481  14.582  10.170 -0.2220  0.1591 -0.0503
   95loPI    C3 1507   3.607  14.851  10.438 -0.2482  0.1266 -0.0052
   95loPI   PO4 1508   3.671  14.840   9.856  0.2671  0.0052  0.3770
   95loPI   GL1 1509   3.911  14.788   9.522  0.0407  0.1496 -0.0226
   95loPI   GL2 1510   3.601  14.585   9.378  0.1097 -0.0616  0.1375
   95loPI   C1A 1511   3.852  14.907   9.092 -0.0535  0.1207 -0.0516
   95loPI   C2A 1512   3.852  14.939   8.653 -0.0493  0.3186  0.2819
   95loPI   C3A 1513   3.863  14.989   8.202 -0.2409  0.0445 -0.1933
   95loPI   C4A 1514   3.991  15.067   7.790 -0.0393 -0.4163  0.2534
   95loPI   C5A 1515   3.973  15.092   7.322 -0.0935 -0.0244 -0.2549
   95loPI   C6A 1516   3.947  14.928   6.894  0.0573 -0.0971 -0.1410
   95loPI   C1B 1517   3.559  14.512   8.968 -0.1338 -0.0198 -0.1060
   95loPI   C2B 1518   3.376  14.704   8.603 -0.1219  0.2886 -0.1543
   95loPI   C3B 1519   3.377  14.892   8.125 -0.1301 -0.0902  0.0825
   95loPI   C4B 1520   3.582  14.758   7.811 -0.2587  0.0058 -0.0807
   96loPI    C1 1521  17.788  13.054   9.902  0.0012 -0.0323 -0.1781
   96loPI    C2 1522  17.693  13.399   9.725  0.1280  0.0770 -0.0367
   96loPI    C3 1523  17.546  13.313  10.087  0.2392  0.0633  0.0056
   96loPI   PO4 1524  17.736  12.861   9.731 -0.5466 -0.0967  0.1495
   96loPI   GL1 1525  17.830  12.751   9.362 -0.1330 -0.0091 -0.0959
   96loPI   GL2 1526  17.591  12.454   9.331 -0.1595  0.2388  0.0619
   96loPI   C1A 1527  18.125  12.913   8.935  0.1827  0.0944  0.1625
   96loPI   C2A 1528  18.078  12.943   8.447 -0.0993 -0.2669 -0.2893
   96loPI   C3A 1529  17.963  12.827   7.980  0.2336  0.1454  0.0703
   96loPI   C4A 1530  17.928  12.899   7.538 -0.0983  0.2741 -0.3103
   96loPI   C5A 1531  17.701  12.988   7.158 -0.1592  0.0678  0.1889
   96loPI   C6A 1532  17.271  13.268   6.970 -0.0666  0.0170  0.1990
   96loPI   C1B 1533  17.584  12.073   9.050  0.2872 -0.2062  0.1033
   96loPI   C2B 1534  17.639  12.236   8.670  0.5135  0.1490 -0.0214
   96loPI   C3B 1535  17.452  12.113   8.319 -0.4427  0.0777 -0.0177
   96loPI   C4B 1536  17.476  12.092   7.796  0.1483 -0.1592  0.1944
   97loPI    C1 1537   5.309  16.392  10.101  0.0307  0.2901  0.1556
   97loPI    C2 1538   5.017  16.571   9.893 -0.1174  0.1129  0.2096
   97loPI    C3 1539   4.975  16.511  10.287 -0.1542 -0.2114  0.1594
   97loPI   PO4 1540   5.417  16.175   9.884  0.2908  0.0873  0.0256
   97loPI   GL1 1541   5.373  15.875   9.620 -0.4527 -0.0494  0.0556
   97loPI   GL2 1542   5.172  16.060   9.412  0.0681 -0.1057 -0.0859
   97loPI   C1A 1543   5.308  15.645   9.223  0.1966 -0.2507  0.0847
   97loPI   C2A 1544   5.239  15.380   8.845  0.1290  0.1325 -0.2357
   97loPI   C3A 1545   5.206  15.419   8.429  0.1605 -0.1018 -0.0944
   97loPI   C4A 1546   5.094  15.193   8.099  0.3446 -0.1374 -0.0914
   97loPI   C5A 1547   5.181  15.007   7.719  0.3128  0.0132 -0.0648
   97loPI   C6A 1548   5.156  14.692   7.462  0.1169  0.1110  0.0868
   97loPI   C1B 1549   5.419  16.272   9.130  0.0136  0.0010  0.1881
   97loPI   C2B 1550   5.329  16.364   8.701  0.0539 -0.1591  0.0064
   97loPI   C3B 1551   5.068  16.300   8.372 -0.1206 -0.1318 -0.1623
   97loPI   C4B 1552   5.038  16.296   7.923  0.0232 -0.1890 -0.2963
   98loPI    C1 1553  13.835   8.568  10.126  0.1111  0.0434  0.0403
   98loPI    C2 1554  13.671   8.312  10.386 -0.0379  0.0992  0.0027
   98loPI    C3 1555  13.835   8.652  10.517 -0.0006  0.0689  0.0354
   98loPI   PO4 1556  14.027   8.549   9.896  0.4197 -0.1943  0.1339
   98loPI   GL1 1557  13.894   8.469   9.443 -0.0810 -0.0538 -0.1760
   98loPI   GL2 1558  13.929   8.183   9.361 -0.1988 -0.2139 -0.0721
   98loPI   C1A 1559  14.034   8.578   9.060  0.0267  0.0919  0.1048
   98loPI   C2A 1560  13.979   8.666   8.561 -0.0956  0.1830 -0.0582
   98loPI   C3A 1561  14.045   8.750   8.174 -0.0703  0.2399 -0.1597
   98loPI   C4A 1562  13.901   8.747   7.790 -0.1663 -0.0613 -0.1363
   98loPI   C5A 1563  13.574   8.558   7.482  0.0291  0.0750 -0.1132
   98loPI   C6A 1564  13.291   8.298   7.347 -0.2902  0.3039  0.2117
   98loPI   C1B 1565  13.696   8.198   8.947 -0.0017  0.0324 -0.1140
   98loPI   C2B 1566  13.586   8.217   8.596 -0.3540  0.1140  0.0544
   98loPI   C3B 1567  13.703   8.337   8.225  0.1808 -0.1142  0.1875
   98loPI   C4B 1568  13.459   8.285   7.859  0.0616  0.0709  0.3670
   99loPI    C1 1569  10.253  19.022   9.599 -0.2554  0.0341 -0.0085
   99loPI    C2 1570  10.197  18.689   9.813  0.1536 -0.0027  0.0484
   99loPI    C3 1571  10.370  19.008   9.981  0.2752  0.0449 -0.1627
   99loPI   PO4 1572  10.281  18.935   9.336  0.0886 -0.4278  0.0349
   99loPI   GL1 1573  10.120  18.977   8.892 -0.2534  0.1513  0.1349
   99loPI   GL2 1574  10.025  18.668   8.806  0.5938 -0.0630  0.1494
   99loPI   C1A 1575  10.168  19.268   8.593 -0.2459 -0.1268 -0.1717
   99loPI   C2A 1576  10.054  19.277   8.087  0.0346 -0.0985 -0.3378
   99loPI   C3A 1577   9.979  19.024   7.821  0.3391  0.0269 -0.0208
   99loPI   C4A 1578   9.925  19.013   7.402  0.0320  0.1487  0.2050
   99loPI   C5A 1579   9.652  19.059   7.108  0.0645  0.0896 -0.0979
   99loPI   C6A 1580   9.475  19.357   6.772 -0.0564 -0.0192  0.0049
   99loPI   C1B 1581  10.015  18.781   8.352  0.0698  0.0292  0.0268
   99loPI   C2B 1582  10.125  18.556   7.976  0.3116 -0.1559 -0.3060
   99loPI   C3B 1583  10.143  18.545   7.518  0.2975 -0.0877 -0.0484
   99loPI   C4B 1584  10.184  18.419   7.128 -0.1311  0.0818  0.0005
  100loPI    C1 1585  16.467  14.097   9.665  0.2378 -0.1585  0.2336
  100loPI    C2 1586  16.281  13.764   9.785  0.1270 -0.1257  0.1540
  100loPI    C3 1587  16.425  14.021  10.055 -0.3346  0.0688  0.2254
  100loPI   PO4 1588  16.324  14.237   9.483 -0.0380  0.3879  0.2655
  100loPI   GL1 1589  16.555  14.448   9.303 -0.1408 -0.0685  0.0320
  100loPI   GL2 1590  16.497  14.752   9.434 -0.1486  0.3903  0.2720
  100loPI   C1A 1591  16.657  14.488   8.973  0.0801 -0.0064  0.0539
  100loPI   C2A 1592  16.655  14.410   8.534  0.0211 -0.1174  0.0093
  100loPI   C3A 1593  16.708  14.352   8.092  0.0187 -0.1524 -0.0515
  100loPI   C4A 1594  16.820  14.226   7.668 -0.1326  0.3072  0.4000
  100loPI   C5A 1595  16.735  13.885   7.375 -0.2546 -0.3690  0.0107
  100loPI   C6A 1596  16.465  13.600   7.159 -0.1967  0.0428  0.2424
  100loPI   C1B 1597  16.570  15.007   9.061  0.0072 -0.0093  0.0341
  100loPI   C2B 1598  16.578  14.988   8.659  0.2676  0.0716  0.1949
  100loPI   C3B 1599  16.631  14.852   8.253  0.0920  0.0304  0.0036
  100loPI   C4B 1600  16.912  14.814   7.823 -0.4297  0.1145 -0.1138
  101loPI    C1 1601   9.664  15.045   9.863  0.2522 -0.0625  0.0695
  101loPI    C2 1602   9.350  15.006  10.108 -0.0118 -0.0046 -0.2531
  101loPI    C3 1603   9.703  14.846  10.208 -0.0689  0.1610  0.2401
  101loPI   PO4 1604   9.624  14.959   9.684 -0.0706 -0.0280  0.0955
  101loPI   GL1 1605   9.624  15.078   9.251 -0.0307 -0.1735  0.1281
  101loPI   GL2 1606   9.304  14.847   9.234  0.4180  0.0127  0.0205
  101loPI   C1A 1607   9.585  15.170   8.906 -0.0548  0.1022 -0.0679
  101loPI   C2A 1608   9.525  15.006   8.488 -0.1191  0.2888 -0.0948
  101loPI   C3A 1609   9.806  14.869   8.304  0.1160 -0.2159  0.0385
  101loPI   C4A 1610   9.909  14.763   7.901 -0.3922 -0.0693  0.3356
  101loPI   C5A 1611   9.808  14.764   7.552  0.1353 -0.0797 -0.1489
  101loPI   C6A 1612   9.772  14.466   7.265  0.3862 -0.1742  0.1623
  101loPI   C1B 1613   9.175  14.883   8.874  0.1964  0.3082 -0.0538
  101loPI   C2B 1614   9.215  14.642   8.435 -0.2878 -0.0635  0.4295
  101loPI   C3B 1615   9.121  14.541   8.072  0.0199  0.0647 -0.2306
  101loPI   C4B 1616   8.747  14.484   7.788 -0.0987  0.1495  0.0949
  102loPI    C1 1617  16.630   5.979   9.989  0.1333 -0.1511 -0.0680
  102loPI    C2 1618  16.772   6.008  10.362  0.1311 -0.1808 -0.0648
  102loPI    C3 1619  16.929   6.232  10.071 -0.0381  0.0308  0.0035
  102loPI   PO4 1620  16.681   5.790   9.890 -0.0426 -0.0698 -0.1483
  102loPI   GL1 1621  16.444   5.557   9.567 -0.0085  0.2299  0.0161
  102loPI   GL2 1622  16.362   5.260   9.422 -0.1991  0.0124 -0.2556
  102loPI   C1A 1623  16.643   5.575   9.179  0.0260  0.0097 -0.1309
  102loPI   C2A 1624  16.532   5.849   8.831 -0.1702 -0.2498 -0.2761
  102loPI   C3A 1625  16.454   5.905   8.391  0.2542 -0.0248  0.2298
  102loPI   C4A 1626  16.438   5.955   7.846 -0.1946  0.2051  0.0521
  102loPI   C5A 1627  16.499   6.057   7.444  0.1077  0.2238  0.0655
  102loPI   C6A 1628  16.572   6.362   7.304 -0.1933 -0.0249  0.2189
  102loPI   C1B 1629  16.232   5.303   9.121  0.2301 -0.4003 -0.3084
  102loPI   C2B 1630  16.104   5.611   8.823  0.3567  0.0547 -0.1961
  102loPI   C3B 1631  15.996   5.684   8.422  0.1552  0.0034  0.0518
  102loPI   C4B 1632  16.069   5.591   7.958 -0.0948 -0.1525 -0.0755
  103loPI    C1 1633   4.384   1.141  10.014 -0.0441 -0.0543  0.3000
  103loPI    C2 1634   4.603   1.475  10.005  0.1356 -0.1752 -0.2862
  103loPI    C3 1635   4.636   1.223  10.314  0.1732  0.2255  0.0471
  103loPI   PO4 1636   4.402   1.045   9.750 -0.0522  0.0077 -0.3637
  103loPI   GL1 1637   4.235   0.800   9.372 -0.3189  0.1660 -0.1563
  103loPI   GL2 1638   4.139   0.555   9.597  0.0565  0.0813  0.0890
  103loPI   C1A 1639   4.095   0.906   8.932 -0.1717 -0.0234 -0.1239
  103loPI   C2A 1640   3.763   0.930   8.643 -0.1972 -0.0025  0.1250
  103loPI   C3A 1641   3.724   1.086   8.237  0.1281 -0.0382 -0.0586
  103loPI   C4A 1642   3.696   1.231   7.823  0.0910  0.1333  0.3749
  103loPI   C5A 1643   3.582   1.028   7.329  0.2938  0.2388 -0.1120
  103loPI   C6A 1644   3.317   0.619   7.357 -0.5834 -0.1101  0.0639
  103loPI   C1B 1645   4.021   0.360   9.258  0.2210  0.0691 -0.1195
  103loPI   C2B 1646   4.063   0.386   8.874  0.0540  0.0670  0.0248
  103loPI   C3B 1647   3.935   0.373   8.454  0.0567  0.2201  0.3037
  103loPI   C4B 1648   3.768   0.044   8.276 -0.1908  0.1915  0.2239
  104loPI    C1 1649   8.392  18.399   9.803  0.2829 -0.3347  0.1260
  104loPI    C2 1650   8.054  18.507   9.989  0.1951  0.2896 -0.3630
  104loPI    C3 1651   8.398  18.489  10.193 -0.0587  0.0225  0.0554
  104loPI   PO4 1652   8.503  18.509   9.586  0.2731  0.0896 -0.0493
  104loPI   GL1 1653   8.658  18.451   9.232  0.1799  0.2370 -0.0243
  104loPI   GL2 1654   8.928  18.483   9.050  0.0304 -0.1735 -0.2981
  104loPI   C1A 1655   8.497  18.352   8.859  0.0191 -0.2709  0.1770
  104loPI   C2A 1656   8.642  18.250   8.415  0.1166  0.2231 -0.3563
  104loPI   C3A 1657   8.592  18.270   8.029 -0.2333  0.3922 -0.0229
  104loPI   C4A 1658   8.746  18.198   7.642 -0.0481  0.3206 -0.0564
  104loPI   C5A 1659   8.723  18.115   7.122  0.0160  0.0613 -0.1636
  104loPI   C6A 1660   8.677  18.088   6.758  0.0227  0.0203  0.1658
  104loPI   C1B 1661   9.008  18.404   8.667  0.3554 -0.0913  0.3106
  104loPI   C2B 1662   9.221  18.240   8.294 -0.0931  0.2791  0.4145
  104loPI   C3B 1663   9.163  18.132   7.872 -0.0485  0.0605 -0.1845
  104loPI   C4B 1664   9.445  18.092   7.436  0.1059  0.3330  0.1812
  105loPI    C1 1665   4.158  17.279  10.078 -0.0275 -0.2531 -0.0155
  105loPI    C2 1666   4.402  17.224  10.390  0.0474 -0.0320 -0.0327
  105loPI    C3 1667   4.036  17.063  10.391  0.1186 -0.1962  0.0821
  105loPI   PO4 1668   4.302  17.246   9.825 -0.1775  0.1000  0.1095
  105loPI   GL1 1669   4.329  17.130   9.434  0.0698  0.0670 -0.1161
  105loPI   GL2 1670   3.966  16.953   9.502  0.0750  0.0153  0.2149
  105loPI   C1A 1671   4.288  17.447   9.035 -0.1186  0.1671  0.2273
  105loPI   C2A 1672   4.096  17.512   8.742  0.1192 -0.2303 -0.3479
  105loPI   C3A 1673   4.065  17.403   8.366  0.2846  0.1496 -0.2589
  105loPI   C4A 1674   4.030  17.434   8.007  0.2015 -0.0351  0.1699
  105loPI   C5A 1675   4.341  17.389   7.721  0.2076 -0.1617  0.4444
  105loPI   C6A 1676   4.531  17.424   7.446  0.2154 -0.4177  0.0084
  105loPI   C1B 1677   4.120  16.966   9.030 -0.0808 -0.0960 -0.0346
  105loPI   C2B 1678   3.962  16.985   8.631 -0.2656  0.2995 -0.0329
  105loPI   C3B 1679   3.859  17.002   8.192  0.2201 -0.0413  0.0361
  105loPI   C4B 1680   3.706  17.083   7.858  0.2216 -0.0789 -0.0377
  106loPI    C1 1681   8.884   3.728  10.222 -0.2251 -0.1209  0.3936
  106loPI    C2 1682   9.212   3.579  10.396  0.1091 -0.2051 -0.2766
  106loPI    C3 1683   8.870   3.603  10.602  0.4110 -0.5511  0.2913
  106loPI   PO4 1684   8.840   3.573  10.034 -0.1814  0.2994 -0.2755
  106loPI   GL1 1685   8.834   3.404   9.664 -0.2463  0.2550  0.0827
  106loPI   GL2 1686   8.559   3.556   9.506 -0.0787  0.0451 -0.1211
  106loPI   C1A 1687   9.047   3.402   9.214  0.1090 -0.6043 -0.0582
  106loPI   C2A 1688   9.156   3.432   8.810  0.2735  0.4408 -0.1033
  106loPI   C3A 1689   9.248   3.279   8.457  0.2498 -0.0414  0.0594
  106loPI   C4A 1690   9.249   3.358   8.089  0.0117  0.0290 -0.1446
  106loPI   C5A 1691   9.150   3.564   7.751  0.0194  0.0819  0.0771
  106loPI   C6A 1692   9.245   3.861   7.398  0.0556  0.1649  0.2126
  106loPI   C1B 1693   8.536   3.433   9.154  0.3483 -0.3126  0.2008
  106loPI   C2B 1694   8.605   3.467   8.743 -0.0879  0.0767 -0.1321
  106loPI   C3B 1695   8.658   3.412   8.406  0.0347  0.2409 -0.0442
  106loPI   C4B 1696   8.733   3.382   7.951 -0.0689 -0.1072 -0.1247
  107loPI    C1 1697  10.966  18.431   9.665 -0.1833 -0.0540  0.2677
  107loPI    C2 1698  11.153  18.509  10.011 -0.0573  0.3946  0.1062
  107loPI    C3 1699  10.772  18.621   9.959 -0.2089 -0.0374  0.2401
  107loPI   PO4 1700  11.120  18.515   9.452  0.3625  0.0305  0.2185
  107loPI   GL1 1701  11.367  18.563   9.078  0.1083  0.0997 -0.0170
  107loPI   GL2 1702  11.291  18.949   9.187  0.1734 -0.3247 -0.0849
  107loPI   C1A 1703  11.486  18.615   8.601 -0.0199  0.0732  0.2543
  107loPI   C2A 1704  11.405  18.553   8.277 -0.0542  0.1096 -0.1040
  107loPI   C3A 1705  11.364  18.555   7.879 -0.0620 -0.2611 -0.0917
  107loPI   C4A 1706  11.255  18.556   7.411 -0.1497  0.0183  0.0361
  107loPI   C5A 1707  11.164  18.354   7.108  0.1110  0.1038  0.0774
  107loPI   C6A 1708  11.039  18.188   6.761  0.0559 -0.1038 -0.3026
  107loPI   C1B 1709  11.103  18.966   8.834  0.0509 -0.0010  0.4247
  107loPI   C2B 1710  10.890  18.838   8.589 -0.1050  0.0548  0.1996
  107loPI   C3B 1711  10.943  18.885   8.229 -0.2083  0.2281  0.0466
  107loPI   C4B 1712  10.905  18.758   7.770 -0.1912 -0.2776 -0.1714
  108loPI    C1 1713  10.696   3.609  10.154  0.0519  0.0268  0.0301
  108loPI    C2 1714  10.900   3.952  10.178 -0.0591  0.1127 -0.2211
  108loPI    C3 1715  10.675   3.831  10.486  0.0050  0.2488 -0.1197
  108loPI   PO4 1716  10.792   3.437  10.057  0.2287  0.2265 -0.2135
  108loPI   GL1 1717  11.026   3.388   9.661 -0.0781 -0.5534  0.2966
  108loPI   GL2 1718  11.031   3.785   9.610 -0.0933  0.2008  0.2974
  108loPI   C1A 1719  11.094   3.268   9.262 -0.0944  0.2526 -0.0518
  108loPI   C2A 1720  11.094   3.238   8.836 -0.1095  0.1085 -0.3013
  108loPI   C3A 1721  11.327   3.279   8.497  0.2996  0.0070  0.1302
  108loPI   C4A 1722  11.396   3.310   8.047  0.0424  0.0186 -0.0025
  108loPI   C5A 1723  11.481   3.450   7.665  0.1087  0.0573 -0.0235
  108loPI   C6A 1724  11.312   3.820   7.515  0.0321  0.1300 -0.0835
  108loPI   C1B 1725  11.083   3.804   9.133  0.0726 -0.3774  0.0175
  108loPI   C2B 1726  11.052   3.761   8.728  0.0414 -0.2638 -0.0231
  108loPI   C3B 1727  11.152   3.759   8.337 -0.0909  0.0359  0.0739
  108loPI   C4B 1728  11.520   3.845   7.992 -0.1398 -0.0683 -0.2408
  109loPI    C1 1729  11.017   0.799   9.896  0.3370  0.1047 -0.0714
  109loPI    C2 1730  11.037   0.566  10.220  0.0344  0.1660 -0.0054
  109loPI    C3 1731  10.923   0.948  10.255  0.2573  0.2476 -0.1501
  109loPI   PO4 1732  10.911   0.692   9.695  0.0190  0.0164  0.2164
  109loPI   GL1 1733  10.702   0.734   9.312 -0.0868  0.3108  0.2110
  109loPI   GL2 1734  10.654   1.012   9.212  0.2242  0.0691  0.0173
  109loPI   C1A 1735  10.878   0.779   8.844 -0.0271  0.2278 -0.0981
  109loPI   C2A 1736  10.920   0.706   8.442  0.3334  0.0714  0.0041
  109loPI   C3A 1737  10.874   0.889   8.053 -0.2471  0.3532 -0.1544
  109loPI   C4A 1738  10.760   1.122   7.634  0.0321  0.1404  0.2059
  109loPI   C5A 1739  10.984   1.214   7.261  0.1808  0.3162 -0.0672
  109loPI   C6A 1740  11.210   1.213   6.867  0.1264  0.1837  0.0489
  109loPI   C1B 1741  10.713   1.277   8.853  0.4708 -0.1529  0.0506
  109loPI   C2B 1742  10.827   1.654   8.551  0.1605 -0.1926  0.0973
  109loPI   C3B 1743  10.863   1.726   8.154 -0.3142  0.0144  0.1706
  109loPI   C4B 1744  10.881   2.036   7.762  0.1224 -0.1039 -0.3101
  110loPI    C1 1745  18.060   8.662   9.603 -0.1778  0.2231 -0.0518
  110loPI    C2 1746  17.867   8.381   9.811  0.0880  0.0405 -0.0463
  110loPI    C3 1747  18.185   8.563   9.970  0.0222  0.2210 -0.1192
  110loPI   PO4 1748  18.088   8.575   9.357 -0.2373  0.1464  0.1880
  110loPI   GL1 1749  18.295   8.404   9.021 -0.1479 -0.3734  0.1009
  110loPI   GL2 1750  18.298   8.694   8.936 -0.2415 -0.0488 -0.1664
  110loPI   C1A 1751  18.103   8.321   8.619 -0.0117 -0.2091 -0.5240
  110loPI   C2A 1752  17.943   8.175   8.319  0.0154  0.0149  0.0212
  110loPI   C3A 1753  17.939   8.282   7.985 -0.0970 -0.2574  0.0832
  110loPI   C4A 1754  17.810   8.336   7.581 -0.1185 -0.0602 -0.0699
  110loPI   C5A 1755  17.598   8.048   7.212  0.2231  0.1173 -0.2559
  110loPI   C6A 1756  17.158   8.053   7.387 -0.0932 -0.0175  0.0035
  110loPI   C1B 1757  18.311   8.741   8.537 -0.2391 -0.2038 -0.2342
  110loPI   C2B 1758  18.338   8.628   8.105  0.0423 -0.3418  0.1805
  110loPI   C3B 1759  18.354   8.524   7.607  0.0613 -0.0089  0.0149
  110loPI   C4B 1760  18.217   8.514   7.242 -0.0644  0.1893  0.1116
  111loPI    C1 1761  12.162   5.737  10.077 -0.0609  0.0579  0.0943
  111loPI    C2 1762  12.332   5.447   9.861 -0.0830  0.1764 -0.0842
  111loPI    C3 1763  12.441   5.503  10.242 -0.1308 -0.1120 -0.0263
  111loPI   PO4 1764  11.947   5.711   9.939 -0.1189 -0.0109 -0.0318
  111loPI   GL1 1765  11.843   5.433   9.661  0.0393 -0.1700  0.0028
  111loPI   GL2 1766  11.831   5.690   9.335 -0.4916  0.2746 -0.0461
  111loPI   C1A 1767  12.226   5.342   9.378 -0.0620  0.2140 -0.0550
  111loPI   C2A 1768  12.350   5.763   9.101 -0.0800 -0.2908 -0.4476
  111loPI   C3A 1769  12.621   5.903   8.685  0.1821 -0.2096 -0.0675
  111loPI   C4A 1770  12.568   6.019   8.335  0.1528  0.2252  0.2385
  111loPI   C5A 1771  12.486   5.996   7.946  0.0873  0.1052 -0.0033
  111loPI   C6A 1772  12.305   5.813   7.643  0.2109 -0.3355  0.0420
  111loPI   C1B 1773  11.654   5.851   8.932 -0.0277  0.3038  0.1192
  111loPI   C2B 1774  11.609   5.995   8.530 -0.0217  0.1932 -0.0215
  111loPI   C3B 1775  11.594   5.848   8.126 -0.0796 -0.0854 -0.3968
  111loPI   C4B 1776  11.384   5.512   7.957  0.1154  0.0866  0.0741
  112loPI    C1 1777   0.601  13.260   9.882  0.1999  0.1868 -0.1631
  112loPI    C2 1778   0.436  13.074  10.195  0.2292  0.1144 -0.1905
  112loPI    C3 1779   0.823  13.174  10.203  0.2579  0.0099 -0.2491
  112loPI   PO4 1780   0.649  13.122   9.629  0.0864  0.0455 -0.4756
  112loPI   GL1 1781   0.831  12.786   9.316  0.1070  0.2944  0.0152
  112loPI   GL2 1782   0.567  13.065   9.146  0.0254  0.1904  0.0716
  112loPI   C1A 1783   0.616  12.624   8.944 -0.1330  0.2180  0.3566
  112loPI   C2A 1784   0.520  12.707   8.618 -0.2656  0.0630  0.0528
  112loPI   C3A 1785   0.147  12.580   8.377 -0.2099 -0.2683 -0.0448
  112loPI   C4A 1786   0.127  12.254   8.092 -0.1442 -0.0678  0.0732
  112loPI   C5A 1787   0.126  12.035   7.788  0.1297  0.1579 -0.1625
  112loPI   C6A 1788   0.141  12.105   7.385 -0.3866 -0.3821  0.1768
  112loPI   C1B 1789   0.334  13.180   8.908  0.4917  0.0828 -0.0241
  112loPI   C2B 1790   0.164  13.144   8.546 -0.2207  0.2042  0.1889
  112loPI   C3B 1791   0.324  12.977   8.162 -0.2849  0.2892  0.2216
  112loPI   C4B 1792   0.608  13.130   7.836  0.0847 -0.0492  0.0490
  113loPI    C1 1793   7.463   3.954  10.177 -0.1477  0.2276  0.0337
  113loPI    C2 1794   7.084   4.045  10.268 -0.0938  0.2122  0.2809
  113loPI    C3 1795   7.347   3.968  10.559  0.0323 -0.0531  0.1016
  113loPI   PO4 1796   7.455   3.992   9.877  0.0517  0.0632 -0.3682
  113loPI   GL1 1797   7.654   4.067   9.541 -0.0219 -0.0556 -0.1752
  113loPI   GL2 1798   7.449   4.333   9.414  0.3611 -0.4168  0.1398
  113loPI   C1A 1799   7.752   3.882   9.202 -0.1147  0.0270  0.1804
  113loPI   C2A 1800   7.876   3.979   8.813  0.0860  0.0659  0.1966
  113loPI   C3A 1801   7.864   4.029   8.386  0.0753 -0.1141  0.0446
  113loPI   C4A 1802   7.999   4.095   7.974 -0.0130  0.0788  0.0418
  113loPI   C5A 1803   8.338   4.218   7.645 -0.0266 -0.0281 -0.1405
  113loPI   C6A 1804   8.297   4.411   7.203  0.0408 -0.0562 -0.0758
  113loPI   C1B 1805   7.257   4.530   9.005  0.1797  0.2235  0.0947
  113loPI   C2B 1806   7.208   4.594   8.629 -0.3429 -0.0227  0.2104
  113loPI   C3B 1807   7.332   4.995   8.366  0.4363  0.0725 -0.0532
  113loPI   C4B 1808   7.305   5.422   8.271 -0.2375 -0.3216  0.3462
  114loPI    C1 1809   4.731  14.628   9.919 -0.2909  0.2831 -0.2059
  114loPI    C2 1810   4.793  14.489  10.289 -0.1171  0.0637 -0.3151
  114loPI    C3 1811   4.598  14.833  10.235  0.0350  0.2015 -0.0103
  114loPI   PO4 1812   5.045  14.685   9.862 -0.1064  0.1268  0.0949
  114loPI   GL1 1813   5.407  14.422   9.538  0.0388 -0.0147  0.2380
  114loPI   GL2 1814   5.758  14.389   9.562  0.1107  0.6686 -0.2598
  114loPI   C1A 1815   5.325  14.392   9.116  0.0677 -0.4577 -0.2135
  114loPI   C2A 1816   5.389  14.320   8.670  0.1640 -0.0320 -0.6055
  114loPI   C3A 1817   5.382  14.397   8.234  0.0770  0.0289 -0.1507
  114loPI   C4A 1818   5.656  14.234   7.932 -0.1967 -0.0120  0.3157
  114loPI   C5A 1819   6.017  14.246   8.076 -0.4394  0.1118  0.1425
  114loPI   C6A 1820   6.304  14.225   7.813  0.0139 -0.0314  0.0959
  114loPI   C1B 1821   5.848  14.643   9.207  0.0400  0.1649  0.2120
  114loPI   C2B 1822   5.741  14.703   8.748  0.0322 -0.1548  0.0729
  114loPI   C3B 1823   5.866  14.711   8.255  0.0195 -0.0985  0.0155
  114loPI   C4B 1824   5.555  14.732   7.868  0.2061 -0.5119 -0.0562
  115loPI    C1 1825  15.027   1.811   9.722  0.0523  0.3953 -0.0931
  115loPI    C2 1826  14.899   1.674  10.076  0.0589  0.1783 -0.1730
  115loPI    C3 1827  15.183   1.956  10.061  0.0998  0.1471 -0.0066
  115loPI   PO4 1828  15.173   1.666   9.590  0.2298  0.1287 -0.3601
  115loPI   GL1 1829  15.304   1.733   9.185 -0.0088  0.0854 -0.0569
  115loPI   GL2 1830  15.492   1.458   9.269 -0.2887 -0.1880  0.0326
  115loPI   C1A 1831  15.409   1.696   8.753 -0.0961 -0.2151  0.0756
  115loPI   C2A 1832  15.442   1.843   8.257  0.1616 -0.0235 -0.0374
  115loPI   C3A 1833  15.461   1.936   7.742  0.0669  0.1215 -0.1229
  115loPI   C4A 1834  15.344   1.790   7.349 -0.0276 -0.0467 -0.1600
  115loPI   C5A 1835  15.068   1.922   6.925 -0.1336  0.1645  0.1598
  115loPI   C6A 1836  15.148   2.182   6.561 -0.2377 -0.0883 -0.1752
  115loPI   C1B 1837  15.638   1.234   8.922  0.0953  0.0540 -0.0904
  115loPI   C2B 1838  15.778   1.256   8.449  0.0387 -0.1711  0.1066
  115loPI   C3B 1839  15.636   1.371   8.085 -0.0326 -0.1138 -0.0322
  115loPI   C4B 1840  15.683   1.492   7.603  0.1450  0.0362  0.0997
  116loPI    C1 1841   7.007  10.538  10.094 -0.0014  0.0510  0.1685
  116loPI    C2 1842   7.002  10.247  10.368  0.2538  0.0484  0.1732
  116loPI    C3 1843   6.876  10.614  10.464  0.0887 -0.0182  0.2151
  116loPI   PO4 1844   6.994  10.373   9.898 -0.1787 -0.1152  0.0004
  116loPI   GL1 1845   7.108  10.299   9.448  0.2627 -0.1990 -0.0225
  116loPI   GL2 1846   7.163  10.006   9.207 -0.0835 -0.0694 -0.4514
  116loPI   C1A 1847   7.064  10.367   8.944 -0.1119  0.1953  0.2434
  116loPI   C2A 1848   7.127  10.124   8.576  0.1220  0.1798 -0.1385
  116loPI   C3A 1849   7.182  10.070   8.147 -0.2191 -0.2034 -0.1216
  116loPI   C4A 1850   7.494  10.196   7.771 -0.0478  0.1617  0.2612
  116loPI   C5A 1851   7.602  10.286   7.335 -0.5607 -0.2038 -0.3279
  116loPI   C6A 1852   7.598  10.228   6.853 -0.2464 -0.0211  0.1239
  116loPI   C1B 1853   7.444   9.792   8.960  0.1261 -0.1391  0.3871
  116loPI   C2B 1854   7.622   9.841   8.623  0.2738  0.4078 -0.0036
  116loPI   C3B 1855   7.667   9.764   8.224 -0.0330  0.0427  0.1636
  116loPI   C4B 1856   7.655   9.688   7.824 -0.1735  0.2609 -0.1526
  117loPI    C1 1857  16.694   4.571  10.087 -0.0030  0.1270 -0.1519
  117loPI    C2 1858  16.995   4.734   9.879  0.0874 -0.1171 -0.2152
  117loPI    C3 1859  17.062   4.584  10.244  0.0174 -0.0673 -0.1817
  117loPI   PO4 1860  16.501   4.659  10.001 -0.3482  0.0040 -0.0369
  117loPI   GL1 1861  16.328   4.540   9.632 -0.0754 -0.4269  0.2097
  117loPI   GL2 1862  16.553   4.766   9.485 -0.1443 -0.0517 -0.1265
  117loPI   C1A 1863  16.391   4.358   9.237  0.3927 -0.3034  0.0148
  117loPI   C2A 1864  16.367   4.090   8.941  0.0545 -0.3331  0.0631
  117loPI   C3A 1865  16.266   4.159   8.570 -0.2259  0.1316 -0.0199
  117loPI   C4A 1866  16.200   4.176   8.121  0.0043  0.0817  0.1622
  117loPI   C5A 1867  16.362   4.179   7.759 -0.1878  0.0777 -0.3985
  117loPI   C6A 1868  16.330   4.244   7.316 -0.2229 -0.1450  0.2679
  117loPI   C1B 1869  16.343   4.841   9.139 -0.0729  0.0653  0.0082
  117loPI   C2B 1870  16.324   4.908   8.744 -0.0112  0.0098  0.1882
  117loPI   C3B 1871  16.383   4.776   8.413  0.0326 -0.3996  0.3037
  117loPI   C4B 1872  16.438   4.627   8.028 -0.0743  0.0473 -0.3324
  118loPI    C1 1873  15.833  11.525   9.592  0.2234 -0.0882 -0.0596
  118loPI    C2 1874  15.991  11.175   9.703  0.1948 -0.0135  0.2241
  118loPI    C3 1875  15.837  11.421   9.978  0.0143  0.1252  0.0022
  118loPI   PO4 1876  16.002  11.636   9.285 -0.2197 -0.0532 -0.5159
  118loPI   GL1 1877  16.129  11.601   8.923  0.0148  0.2208 -0.0339
  118loPI   GL2 1878  16.469  11.571   8.890  0.0100 -0.0859 -0.1174
  118loPI   C1A 1879  16.074  11.537   8.416  0.0553 -0.2230 -0.2621
  118loPI   C2A 1880  15.851  11.334   8.094  0.2345 -0.0067  0.0609
  118loPI   C3A 1881  15.607  11.257   7.817 -0.1201  0.0832  0.0919
  118loPI   C4A 1882  15.439  11.370   7.468  0.2097 -0.1309 -0.0390
  118loPI   C5A 1883  15.347  11.241   6.992 -0.1580  0.1829 -0.1262
  118loPI   C6A 1884  15.216  10.742   6.871  0.2012  0.0867  0.0442
  118loPI   C1B 1885  16.560  11.704   8.473 -0.1414 -0.1498  0.2904
  118loPI   C2B 1886  16.456  11.777   8.013 -0.0175 -0.0532  0.0266
  118loPI   C3B 1887  16.512  11.723   7.587 -0.3097 -0.3005  0.1123
  118loPI   C4B 1888  16.508  11.654   7.130 -0.0125 -0.1113  0.1237
  119loPI    C1 1889   8.671   4.982  10.314  0.0412 -0.0028 -0.1971
  119loPI    C2 1890   8.812   4.736  10.596 -0.1758  0.0170 -0.0690
  119loPI    C3 1891   8.418   4.784  10.552 -0.1389  0.1811 -0.2331
  119loPI   PO4 1892   8.670   4.943  10.042 -0.1774 -0.3515  0.3181
  119loPI   GL1 1893   8.558   4.748   9.628 -0.2195  0.1437  0.0022
  119loPI   GL2 1894   8.906   4.619   9.641  0.1509  0.1385  0.2667
  119loPI   C1A 1895   8.661   5.094   9.383 -0.0745  0.0841 -0.1615
  119loPI   C2A 1896   8.861   5.175   8.929 -0.0036 -0.2985 -0.0519
  119loPI   C3A 1897   9.095   5.286   8.486  0.0804  0.2490 -0.4808
  119loPI   C4A 1898   9.025   5.338   8.028 -0.0779  0.0094 -0.0908
  119loPI   C5A 1899   8.939   5.317   7.631 -0.1452 -0.1943 -0.1279
  119loPI   C6A 1900   8.794   5.189   7.291 -0.0074 -0.3398 -0.0966
  119loPI   C1B 1901   8.839   4.642   9.210  0.3456 -0.1226  0.1340
  119loPI   C2B 1902   8.934   4.538   8.800  0.0503  0.3129  0.0425
  119loPI   C3B 1903   8.813   4.352   8.577 -0.1259  0.2411  0.1675
  119loPI   C4B 1904   8.636   4.448   8.174  0.0332  0.1570 -0.1656
  120loPI    C1 1905  16.418  10.390   9.618 -0.0378 -0.1060  0.0807
  120loPI    C2 1906  16.305  10.773   9.643  0.1503 -0.0407 -0.0474
  120loPI    C3 1907  16.311  10.545   9.971 -0.2100 -0.0075 -0.0133
  120loPI   PO4 1908  16.332  10.367   9.318 -0.2876  0.0069  0.1217
  120loPI   GL1 1909  16.350  10.588   8.862  0.1239  0.1097 -0.1508
  120loPI   GL2 1910  16.748  10.490   8.963 -0.0212 -0.2653 -0.0511
  120loPI   C1A 1911  16.417  10.618   8.397 -0.1069 -0.0023  0.1648
  120loPI   C2A 1912  16.351  10.563   7.907  0.0289 -0.3650 -0.0820
  120loPI   C3A 1913  16.344  10.666   7.512  0.0537 -0.1477 -0.3538
  120loPI   C4A 1914  16.702  10.674   7.190  0.1529 -0.3345 -0.1709
  120loPI   C5A 1915  16.949  10.599   6.892 -0.4257 -0.4230  0.3453
  120loPI   C6A 1916  16.942  10.441   6.490 -0.1347 -0.0320  0.0892
  120loPI   C1B 1917  16.721  10.231   8.585 -0.0519 -0.0417  0.0214
  120loPI   C2B 1918  16.735  10.229   8.172 -0.0855 -0.5660 -0.1407
  120loPI   C3B 1919  16.714  10.290   7.742 -0.2852 -0.2202  0.0648
  120loPI   C4B 1920  16.752  10.220   7.229  0.4067  0.1724  0.1844
  121loPI    C1 1921   4.254  12.205  10.212 -0.0281 -0.0270 -0.1629
  121loPI    C2 1922   4.454  12.111  10.546 -0.3008  0.0789  0.0338
  121loPI    C3 1923   4.258  12.459  10.521 -0.0916  0.1765 -0.3271
  121loPI   PO4 1924   4.391  11.980  10.008 -0.1931  0.0687  0.0844
  121loPI   GL1 1925   4.382  11.839   9.577 -0.0842 -0.0199 -0.2056
  121loPI   GL2 1926   4.114  11.919   9.517  0.0243 -0.1414 -0.0560
  121loPI   C1A 1927   4.515  11.813   9.173 -0.0576 -0.2225 -0.3081
  121loPI   C2A 1928   4.610  11.772   8.754 -0.1450 -0.0449 -0.3267
  121loPI   C3A 1929   4.464  11.552   8.408  0.0321  0.0134 -0.0574
  121loPI   C4A 1930   4.549  11.417   8.090 -0.3018  0.0725 -0.2148
  121loPI   C5A 1931   4.577  11.382   7.610 -0.2039  0.1381  0.1222
  121loPI   C6A 1932   4.780  11.551   7.170  0.0053 -0.2633 -0.0153
  121loPI   C1B 1933   3.992  11.970   9.035 -0.1399  0.2184  0.0618
  121loPI   C2B 1934   4.080  11.852   8.663  0.2345 -0.1039 -0.4274
  121loPI   C3B 1935   4.355  12.060   8.303  0.2819  0.0583 -0.1136
  121loPI   C4B 1936   4.382  12.341   8.016 -0.1465 -0.0303  0.2207
  122loPI    C1 1937   7.364   5.051  10.206  0.1270  0.1242 -0.0781
  122loPI    C2 1938   7.705   4.849  10.256  0.1831  0.2546  0.0723
  122loPI    C3 1939   7.662   5.213  10.417 -0.0627  0.1982  0.1383
  122loPI   PO4 1940   7.358   4.952   9.908 -0.1136 -0.2112  0.4056
  122loPI   GL1 1941   7.474   5.009   9.589  0.1665  0.2240 -0.0113
  122loPI   GL2 1942   7.401   5.229   9.400 -0.0447 -0.2000  0.2150
  122loPI   C1A 1943   7.636   4.828   9.240  0.1318 -0.0195 -0.0706
  122loPI   C2A 1944   7.850   4.938   8.851  0.3824  0.1796  0.0141
  122loPI   C3A 1945   8.140   5.012   8.489  0.2916  0.0959 -0.1150
  122loPI   C4A 1946   8.209   5.262   8.106 -0.2673  0.0042 -0.2205
  122loPI   C5A 1947   7.938   5.324   7.894 -0.0350  0.0665 -0.1035
  122loPI   C6A 1948   7.493   5.369   7.762 -0.1927  0.0954 -0.1721
  122loPI   C1B 1949   7.771   5.352   9.181  0.2418  0.1762 -0.2156
  122loPI   C2B 1950   7.983   5.426   8.830  0.1201  0.1808 -0.1234
  122loPI   C3B 1951   7.768   5.362   8.418 -0.0860  0.1091  0.0012
  122loPI   C4B 1952   7.670   4.976   8.051 -0.1707  0.0326  0.1323
  123loPI    C1 1953   9.956  17.951   9.532  0.3299  0.1299  0.0413
  123loPI    C2 1954   9.953  18.233   9.816  0.1023 -0.0084  0.1799
  123loPI    C3 1955   9.911  17.848   9.916 -0.1419 -0.0459 -0.0537
  123loPI   PO4 1956   9.785  18.131   9.401  0.0664  0.0339  0.3905
  123loPI   GL1 1957   9.684  18.356   8.986 -0.2059  0.0256  0.1191
  123loPI   GL2 1958   9.803  17.952   8.920  0.1195 -0.1195 -0.0459
  123loPI   C1A 1959   9.654  18.447   8.508 -0.0996  0.1020 -0.0627
  123loPI   C2A 1960   9.665  18.379   8.139  0.1425  0.2915  0.1502
  123loPI   C3A 1961   9.682  18.534   7.684  0.0366  0.2231  0.0895
  123loPI   C4A 1962   9.605  18.542   7.179  0.1310 -0.3664 -0.0812
  123loPI   C5A 1963   9.717  18.260   6.912  0.0144  0.0283 -0.1649
  123loPI   C6A 1964  10.116  18.329   6.596 -0.1818  0.2709 -0.1700
  123loPI   C1B 1965   9.706  17.949   8.438  0.0373 -0.0579 -0.0519
  123loPI   C2B 1966   9.511  17.812   8.011 -0.1482  0.1225  0.2931
  123loPI   C3B 1967   9.328  17.685   7.708  0.0524 -0.1384 -0.1228
  123loPI   C4B 1968   9.018  17.792   7.396  0.2972 -0.2730 -0.0096
  124loPI    C1 1969   3.216  16.311   9.772  0.0649  0.3599 -0.1270
  124loPI    C2 1970   3.176  15.914   9.791 -0.2924  0.4003  0.0396
  124loPI    C3 1971   3.536  16.080   9.839 -0.1377  0.0976 -0.0454
  124loPI   PO4 1972   3.065  16.373   9.541 -0.2122 -0.4229  0.0646
  124loPI   GL1 1973   2.914  16.073   9.324  0.0110  0.0138  0.2069
  124loPI   GL2 1974   2.877  15.800   9.383  0.0563  0.1747  0.0893
  124loPI   C1A 1975   2.892  16.208   8.913 -0.1251 -0.3301 -0.1293
  124loPI   C2A 1976   2.749  16.106   8.448  0.2110  0.1841  0.1612
  124loPI   C3A 1977   2.723  15.945   8.093 -0.2045  0.0374 -0.3080
  124loPI   C4A 1978   2.818  15.926   7.603 -0.4783  0.1668  0.0370
  124loPI   C5A 1979   2.568  15.831   7.180  0.0186  0.1709 -0.1220
  124loPI   C6A 1980   2.545  15.756   6.732  0.0797 -0.1821 -0.1081
  124loPI   C1B 1981   2.755  15.601   8.953 -0.1070  0.0486 -0.1429
  124loPI   C2B 1982   2.698  15.539   8.641  0.1398  0.0371 -0.0662
  124loPI   C3B 1983   2.605  15.463   8.182 -0.1286 -0.1076  0.0074
  124loPI   C4B 1984   2.647  15.050   7.875 -0.0476 -0.2625  0.0541
  125loPI    C1 1985  18.491   2.219   9.843 -0.2695 -0.1384  0.0172
  125loPI    C2 1986  18.521   2.051  10.205  0.0473 -0.1762 -0.0238
  125loPI    C3 1987  18.750   2.365  10.111 -0.3984  0.1615 -0.0168
  125loPI   PO4 1988  18.428   2.050   9.679  0.0914 -0.3028  0.0249
  125loPI   GL1 1989  18.208   2.134   9.240  0.0360 -0.0325  0.1184
  125loPI   GL2 1990  18.345   2.364   9.175 -0.2247 -0.3239 -0.1158
  125loPI   C1A 1991  17.974   1.948   8.954 -0.2226  0.0624  0.0945
  125loPI   C2A 1992  17.743   2.292   8.734 -0.2027  0.2404  0.1481
  125loPI   C3A 1993  17.628   2.466   8.351 -0.1870  0.0866 -0.1335
  125loPI   C4A 1994  17.701   2.452   7.848 -0.0046 -0.1722  0.0007
  125loPI   C5A 1995  17.571   2.409   7.449  0.0563 -0.0194  0.3706
  125loPI   C6A 1996  17.550   2.449   6.957 -0.1090  0.2109  0.0596
  125loPI   C1B 1997  18.204   2.537   8.875  0.0835 -0.0383  0.0440
  125loPI   C2B 1998  18.127   2.629   8.498  0.0675 -0.0221  0.1189
  125loPI   C3B 1999  18.159   2.885   8.104 -0.1549  0.2778 -0.0147
  125loPI   C4B 2000  18.035   2.841   7.658 -0.0056 -0.1093  0.0350
  126loPI    C1 2001   1.849  16.824   9.998 -0.0587 -0.0320 -0.0749
  126loPI    C2 2002   1.775  16.468   9.830 -0.0642  0.0201 -0.1840
  126loPI    C3 2003   1.664  16.538  10.208 -0.1687 -0.0542 -0.2007
  126loPI   PO4 2004   2.127  16.840   9.856 -0.0523 -0.0498  0.4843
  126loPI   GL1 2005   2.291  16.637   9.537  0.2117  0.0647  0.0602
  126loPI   GL2 2006   2.621  16.501   9.334 -0.0081 -0.0485  0.1911
  126loPI   C1A 2007   2.060  16.767   9.189  0.1514  0.0257 -0.1610
  126loPI   C2A 2008   2.042  16.838   8.738 -0.0168  0.0203  0.3213
  126loPI   C3A 2009   2.051  17.227   8.469 -0.0333  0.0640  0.1388
  126loPI   C4A 2010   1.890  17.568   8.373  0.3315  0.1629  0.1280
  126loPI   C5A 2011   1.708  17.778   8.011 -0.1339 -0.0012 -0.1288
  126loPI   C6A 2012   1.502  17.676   7.608 -0.0117 -0.0923 -0.0729
  126loPI   C1B 2013   2.388  16.465   8.960  0.0117  0.2857 -0.1372
  126loPI   C2B 2014   2.404  16.496   8.499 -0.0858  0.1038 -0.0762
  126loPI   C3B 2015   2.423  16.405   8.158  0.0852  0.3218  0.2174
  126loPI   C4B 2016   2.250  16.053   7.963  0.0591 -0.5051  0.4579
  127loPI    C1 2017   3.786  10.596   9.611  0.1008  0.0486 -0.0968
  127loPI    C2 2018   3.895  10.212   9.627 -0.0413  0.0093 -0.0574
  127loPI    C3 2019   3.582  10.339   9.840  0.1180  0.1855  0.0744
  127loPI   PO4 2020   3.731  10.636   9.286  0.0512  0.2272 -0.0646
  127loPI   GL1 2021   3.780  10.421   8.927 -0.2711  0.1566 -0.1477
  127loPI   GL2 2022   3.467  10.386   8.893 -0.3229 -0.0492 -0.0343
  127loPI   C1A 2023   3.957  10.427   8.557  0.0242  0.0793 -0.3950
  127loPI   C2A 2024   4.096  10.421   8.098  0.3010  0.2012 -0.1380
  127loPI   C3A 2025   4.048  10.368   7.596  0.1120  0.1457  0.1257
  127loPI   C4A 2026   4.096  10.124   7.238 -0.0846  0.0859  0.0544
  127loPI   C5A 2027   4.122  10.154   6.737 -0.2093  0.0786 -0.1111
  127loPI   C6A 2028   4.432  10.294   6.524  0.0800 -0.3382 -0.0993
  127loPI   C1B 2029   3.501  10.179   8.472 -0.0500 -0.1531 -0.4194
  127loPI   C2B 2030   3.609  10.220   8.000  0.2396  0.1446  0.3213
  127loPI   C3B 2031   3.391  10.298   7.752 -0.0946 -0.0722  0.1011
  127loPI   C4B 2032   3.212  10.676   7.695 -0.2048 -0.3564 -0.0202
  128loPI    C1 2033   5.568   9.125  10.267  0.0011  0.1794 -0.1464
  128loPI    C2 2034   5.687   9.506  10.258  0.1626  0.1308 -0.1047
  128loPI    C3 2035   5.776   9.276  10.573  0.0278  0.0702 -0.1101
  128loPI   PO4 2036   5.633   8.970  10.006 -0.1087 -0.1181  0.1412
  128loPI   GL1 2037   5.762   8.763   9.586  0.2043 -0.3932  0.2268
  128loPI   GL2 2038   5.958   9.027   9.663 -0.1193 -0.0204  0.0566
  128loPI   C1A 2039   6.056   8.866   9.167  0.0018  0.0238 -0.2241
  128loPI   C2A 2040   6.245   8.667   8.888 -0.2223  0.0580 -0.1602
  128loPI   C3A 2041   6.379   8.389   8.647 -0.0159 -0.0814  0.0410
  128loPI   C4A 2042   6.250   8.011   8.438 -0.0098 -0.0380 -0.2087
  128loPI   C5A 2043   5.916   7.912   8.034 -0.2301  0.1070 -0.0406
  128loPI   C6A 2044   5.874   7.454   7.864 -0.2183  0.1393 -0.0835
  128loPI   C1B 2045   6.087   9.349   9.282  0.0526  0.1200  0.1582
  128loPI   C2B 2046   6.168   9.273   8.869  0.0986 -0.0637  0.1821
  128loPI   C3B 2047   6.056   9.350   8.438 -0.1376 -0.2917 -0.0108
  128loPI   C4B 2048   5.717   9.203   8.260  0.2416 -0.0154  0.0186
  129loPI    C1 2049   4.177   9.550   9.617 -0.1135 -0.1717  0.1803
  129loPI    C2 2050   4.297   9.853   9.849  0.0501 -0.2643  0.2176
  129loPI    C3 2051   4.154   9.518  10.015  0.0139 -0.2671  0.1807
  129loPI   PO4 2052   3.987   9.606   9.530 -0.1689  0.5074  0.0561
  129loPI   GL1 2053   3.857   9.879   9.196  0.0933  0.1791  0.1161
  129loPI   GL2 2054   3.630   9.951   9.006 -0.1453 -0.0195  0.1641
  129loPI   C1A 2055   4.147   9.951   8.830  0.0333  0.0236  0.1553
  129loPI   C2A 2056   4.181   9.970   8.384 -0.0406 -0.0239 -0.2004
  129loPI   C3A 2057   4.280   9.995   7.976  0.3371 -0.1372 -0.0875
  129loPI   C4A 2058   4.413   9.908   7.576  0.0998  0.5562 -0.2330
  129loPI   C5A 2059   4.677  10.101   7.354 -0.0968 -0.2287  0.0229
  129loPI   C6A 2060   4.786  10.244   7.000  0.0838  0.0776 -0.0648
  129loPI   C1B 2061   3.799   9.714   8.627  0.0596  0.2950 -0.0571
  129loPI   C2B 2062   3.790   9.687   8.130 -0.0240 -0.1504 -0.1260
  129loPI   C3B 2063   3.891   9.875   7.644 -0.2269  0.0279  0.0826
  129loPI   C4B 2064   3.848   9.700   7.320  0.2065 -0.0333  0.4656
  130loPI    C1 2065   7.717  14.543  10.156 -0.0070  0.0248 -0.0915
  130loPI    C2 2066   7.964  14.490  10.466  0.1402  0.0640 -0.2009
  130loPI    C3 2067   7.570  14.442  10.514  0.1715 -0.0353 -0.0339
  130loPI   PO4 2068   7.873  14.674  10.000  0.2604  0.0818  0.2366
  130loPI   GL1 2069   7.933  14.835   9.667  0.1467  0.1747  0.0294
  130loPI   GL2 2070   8.252  14.917   9.512  0.0974  0.2495 -0.0856
  130loPI   C1A 2071   7.559  14.838   9.449  0.0288 -0.1795  0.0013
  130loPI   C2A 2072   7.256  14.717   9.173 -0.2035 -0.0628  0.1906
  130loPI   C3A 2073   6.922  14.692   8.862 -0.0328 -0.2289 -0.3069
  130loPI   C4A 2074   6.579  14.686   8.577  0.2032 -0.3648  0.2319
  130loPI   C5A 2075   6.406  14.558   8.199  0.0842  0.0793 -0.1244
  130loPI   C6A 2076   6.078  14.680   7.730 -0.0189 -0.4184 -0.1011
  130loPI   C1B 2077   8.130  15.131   9.167 -0.2283 -0.1276  0.1023
  130loPI   C2B 2078   7.892  15.196   8.763 -0.0633 -0.2236  0.5226
  130loPI   C3B 2079   7.584  15.171   8.376  0.1278 -0.2320 -0.0156
  130loPI   C4B 2080   7.175  15.196   8.182 -0.1356 -0.0162 -0.4051
  131loPI    C1 2081   4.530   7.117   9.497 -0.2988  0.0791  0.0014
  131loPI    C2 2082   4.576   6.725   9.563  0.0010  0.0970 -0.0865
  131loPI    C3 2083   4.370   6.949   9.822  0.1364 -0.0532  0.1543
  131loPI   PO4 2084   4.469   7.072   9.249  0.1057 -0.0028 -0.1734
  131loPI   GL1 2085   4.642   7.081   8.992  0.0555 -0.1913 -0.0927
  131loPI   GL2 2086   4.748   7.240   8.798 -0.1273  0.1493 -0.0259
  131loPI   C1A 2087   4.549   6.846   8.593 -0.2186 -0.1392 -0.1201
  131loPI   C2A 2088   4.281   6.702   8.219 -0.1050 -0.0189 -0.3664
  131loPI   C3A 2089   3.999   6.284   7.993  0.1155 -0.0868  0.0141
  131loPI   C4A 2090   3.894   6.120   7.687 -0.0384 -0.2493 -0.1542
  131loPI   C5A 2091   3.530   5.947   7.661  0.3553 -0.0088  0.1047
  131loPI   C6A 2092   3.181   5.759   7.507 -0.0058 -0.2327  0.0738
  131loPI   C1B 2093   4.804   7.225   8.379  0.1496  0.0248 -0.1845
  131loPI   C2B 2094   4.657   7.037   8.077 -0.2518  0.0213  0.0661
  131loPI   C3B 2095   4.616   6.624   7.919 -0.1839  0.1699  0.2743
  131loPI   C4B 2096   4.465   6.202   7.749 -0.1184 -0.2116  0.0970
  132loPI    C1 2097  11.966   0.530   9.432  0.0458  0.0598 -0.1253
  132loPI    C2 2098  12.135   0.326   9.732  0.1188 -0.0490 -0.2394
  132loPI    C3 2099  12.056   0.716   9.775 -0.0167 -0.0988 -0.0216
  132loPI   PO4 2100  12.167   0.506   9.244 -0.0567  0.1512 -0.1188
  132loPI   GL1 2101  12.504   0.628   8.980  0.0873 -0.0812  0.0538
  132loPI   GL2 2102  12.272   0.627   8.753 -0.0168 -0.2673 -0.0443
  132loPI   C1A 2103  12.796   0.597   8.632 -0.1462 -0.2006 -0.0725
  132loPI   C2A 2104  12.973   0.629   8.283  0.0236 -0.1742  0.0482
  132loPI   C3A 2105  12.987   0.610   7.818 -0.0225  0.1528 -0.0189
  132loPI   C4A 2106  13.219   0.429   7.536 -0.1454  0.0432  0.1764
  132loPI   C5A 2107  13.638   0.536   7.295  0.0821 -0.2714 -0.0361
  132loPI   C6A 2108  14.040   0.733   7.323  0.1746  0.0252 -0.3205
  132loPI   C1B 2109  12.411   0.592   8.355 -0.0269  0.0752  0.1089
  132loPI   C2B 2110  12.528   0.560   7.939  0.0161 -0.1568 -0.1241
  132loPI   C3B 2111  12.671   0.378   7.491 -0.1504 -0.2100 -0.1413
  132loPI   C4B 2112  12.945   0.537   7.121 -0.0919 -0.3067 -0.3487
  133loPI    C1 2113   0.450  16.788  10.047  0.0950 -0.1397  0.0581
  133loPI    C2 2114   0.063  16.688  10.055  0.0240  0.1270  0.0744
  133loPI    C3 2115   0.342  16.413  10.135 -0.1422 -0.1643 -0.3151
  133loPI   PO4 2116   0.589  16.890   9.809  0.3221 -0.0034 -0.0578
  133loPI   GL1 2117   0.721  17.131   9.498 -0.0160 -0.0535 -0.0278
  133loPI   GL2 2118   0.563  17.384   9.642 -0.2432 -0.1921 -0.0045
  133loPI   C1A 2119   0.804  16.971   9.082 -0.2491 -0.1037  0.0636
  133loPI   C2A 2120   0.867  17.031   8.627  0.0160  0.0187  0.2479
  133loPI   C3A 2121   0.913  17.044   8.232 -0.2097  0.0969  0.2471
  133loPI   C4A 2122   1.248  16.945   8.083  0.1014  0.0728 -0.1114
  133loPI   C5A 2123   1.418  17.186   7.714 -0.4518 -0.0553 -0.2228
  133loPI   C6A 2124   1.848  16.990   7.568  0.1606  0.0425  0.0022
  133loPI   C1B 2125   0.505  17.488   9.198 -0.0262 -0.0387  0.1545
  133loPI   C2B 2126   0.240  17.575   8.890 -0.1766  0.0095  0.1730
  133loPI   C3B 2127   0.118  17.490   8.531 -0.1915 -0.1889 -0.1050
  133loPI   C4B 2128   0.071  17.308   8.125  0.0844 -0.2851 -0.3691
  134loPI    C1 2129  15.699  16.663   9.909  0.2901 -0.1374  0.0517
  134loPI    C2 2130  15.563  17.008  10.060  0.1627 -0.1007 -0.1438
  134loPI    C3 2131  15.604  16.688  10.297  0.3520  0.0676  0.0547
  134loPI   PO4 2132  15.507  16.674   9.642 -0.1988  0.0106  0.5034
  134loPI   GL1 2133  15.471  16.588   9.201 -0.2664 -0.2902 -0.1356
  134loPI   GL2 2134  15.686  16.825   9.182  0.1132  0.1123 -0.2528
  134loPI   C1A 2135  15.499  16.546   8.740  0.2164 -0.1417  0.1326
  134loPI   C2A 2136  15.539  16.435   8.251  0.1615  0.1354  0.0144
  134loPI   C3A 2137  15.449  16.477   7.732  0.0400 -0.2455 -0.4573
  134loPI   C4A 2138  15.418  16.773   7.321  0.0492 -0.0241  0.2345
  134loPI   C5A 2139  15.533  16.947   6.948  0.0256  0.0780 -0.0812
  134loPI   C6A 2140  15.796  17.013   6.686  0.1601 -0.1424 -0.0283
  134loPI   C1B 2141  15.778  16.957   8.828  0.4233  0.1469 -0.1477
  134loPI   C2B 2142  15.761  16.893   8.431  0.0597  0.2411 -0.1927
  134loPI   C3B 2143  15.729  16.908   8.051 -0.1945 -0.2474  0.3912
  134loPI   C4B 2144  15.868  16.789   7.570  0.0200 -0.2210  0.0979
  135loPI    C1 2145  11.318   6.175  10.105  0.2491  0.0488  0.0770
  135loPI    C2 2146  11.454   6.103  10.475 -0.1812  0.0307  0.2370
  135loPI    C3 2147  11.485   5.821  10.193  0.1686  0.0524  0.2494
  135loPI   PO4 2148  11.389   6.435  10.041 -0.0102 -0.0931 -0.2658
  135loPI   GL1 2149  11.485   6.485   9.635 -0.1280  0.0416 -0.1589
  135loPI   GL2 2150  11.723   6.598   9.713 -0.0616  0.2221 -0.0922
  135loPI   C1A 2151  11.488   6.403   9.296 -0.1609  0.0362 -0.1487
  135loPI   C2A 2152  11.459   6.324   8.882  0.2108  0.1349 -0.0831
  135loPI   C3A 2153  11.307   6.433   8.450 -0.3458  0.0165  0.0469
  135loPI   C4A 2154  11.199   6.428   8.013  0.1925 -0.1152  0.2235
  135loPI   C5A 2155  11.362   6.196   7.624 -0.0504  0.0888  0.0742
  135loPI   C6A 2156  11.639   6.270   7.349 -0.1251  0.1156  0.2399
  135loPI   C1B 2157  11.850   6.882   9.519  0.1147  0.0662  0.0825
  135loPI   C2B 2158  11.720   7.069   9.186  0.1269  0.3599  0.0647
  135loPI   C3B 2159  11.675   6.900   8.764  0.0645  0.1754 -0.2863
  135loPI   C4B 2160  11.662   6.830   8.332  0.3490  0.4957 -0.1181
  136loPI    C1 2161  13.733   5.632   9.992 -0.1739 -0.2154 -0.1615
  136loPI    C2 2162  13.611   5.396  10.291 -0.2054  0.3233  0.2664
  136loPI    C3 2163  13.351   5.638  10.108 -0.1254  0.2072 -0.0059
  136loPI   PO4 2164  13.848   5.522   9.896 -0.0924 -0.0781 -0.2975
  136loPI   GL1 2165  13.975   5.525   9.421  0.3515  0.0329  0.2233
  136loPI   GL2 2166  13.778   5.276   9.382 -0.0502 -0.0925  0.1273
  136loPI   C1A 2167  14.211   5.657   9.080  0.0895 -0.1093 -0.1455
  136loPI   C2A 2168  14.465   5.493   8.852 -0.1979  0.1186  0.1839
  136loPI   C3A 2169  14.355   5.267   8.529 -0.0309 -0.5647  0.0607
  136loPI   C4A 2170  14.252   5.339   8.057  0.1176  0.3007  0.1997
  136loPI   C5A 2171  13.830   5.362   7.948 -0.2181  0.1425 -0.1664
  136loPI   C6A 2172  13.578   5.031   7.603 -0.4392 -0.3839  0.1102
  136loPI   C1B 2173  13.844   5.336   8.881  0.1064 -0.0299 -0.0364
  136loPI   C2B 2174  13.733   5.324   8.451  0.2887  0.0805  0.1145
  136loPI   C3B 2175  13.326   5.334   8.259  0.0470  0.2949 -0.0180
  136loPI   C4B 2176  12.913   5.391   8.510  0.1943 -0.2129 -0.4744
  137loPI    C1 2177  10.387   2.319  10.212  0.1330  0.0368  0.1766
  137loPI    C2 2178  10.285   2.227  10.588 -0.3917 -0.1851 -0.0102
  137loPI    C3 2179  10.069   2.087  10.282 -0.0525  0.1034 -0.3940
  137loPI   PO4 2180  10.688   2.207  10.045 -0.1787  0.2396  0.4928
  137loPI   GL1 2181  10.979   2.113   9.576 -0.1729  0.1351  0.1273
  137loPI   GL2 2182  10.619   2.151   9.531 -0.1376  0.0869 -0.2296
  137loPI   C1A 2183  10.855   2.346   9.158 -0.1293 -0.1348 -0.1293
  137loPI   C2A 2184  10.542   2.556   8.988 -0.4295  0.3245 -0.2667
  137loPI   C3A 2185  10.508   2.687   8.528  0.1318  0.0494 -0.0837
  137loPI   C4A 2186  10.493   2.901   8.101 -0.0447 -0.1659  0.4080
  137loPI   C5A 2187  10.654   3.123   7.670  0.1789 -0.1053  0.0453
  137loPI   C6A 2188  10.560   3.524   7.387 -0.0451 -0.0559  0.3012
  137loPI   C1B 2189  10.414   2.033   9.128  0.1133 -0.2468  0.3211
  137loPI   C2B 2190  10.534   2.135   8.772  0.2049 -0.0174  0.0842
  137loPI   C3B 2191  10.601   2.236   8.298  0.3100  0.2444  0.1093
  137loPI   C4B 2192  10.710   2.427   7.992  0.2058 -0.0304  0.0452
  138loPI    C1 2193  11.625  17.732  10.127 -0.2358 -0.1711 -0.2646
  138loPI    C2 2194  11.427  17.649  10.464  0.1352 -0.1330 -0.0317
  138loPI    C3 2195  11.410  18.017  10.308  0.1314 -0.0934  0.0619
  138loPI   PO4 2196  11.474  17.575   9.941  0.2670  0.2183 -0.0477
  138loPI   GL1 2197  11.560  17.432   9.548  0.0716  0.2138 -0.5500
  138loPI   GL2 2198  11.172  17.494   9.558 -0.0597 -0.1323  0.0828
  138loPI   C1A 2199  11.479  17.255   9.051  0.0395 -0.1156 -0.0157
  138loPI   C2A 2200  11.532  17.241   8.650 -0.2074 -0.0558 -0.0683
  138loPI   C3A 2201  11.455  17.252   8.189  0.1387  0.1170 -0.1373
  138loPI   C4A 2202  11.261  17.203   7.751 -0.1443  0.0450 -0.1419
  138loPI   C5A 2203  11.107  17.070   7.359  0.1966 -0.0804 -0.0472
  138loPI   C6A 2204  11.343  16.773   7.096 -0.0190 -0.2499 -0.3600
  138loPI   C1B 2205  11.079  17.625   9.123  0.2412  0.1929  0.0189
  138loPI   C2B 2206  11.171  17.576   8.716  0.0141  0.1433 -0.2667
  138loPI   C3B 2207  11.125  17.658   8.310  0.1367  0.0392 -0.0457
  138loPI   C4B 2208  11.136  17.685   7.824  0.2913  0.1769  0.0884
  139loPI    C1 2209   9.108   6.861  10.323 -0.0297  0.0601 -0.0832
  139loPI    C2 2210   9.486   6.855  10.454 -0.0810 -0.0160  0.0645
  139loPI    C3 2211   9.194   6.697  10.678 -0.1643 -0.1941 -0.1652
  139loPI   PO4 2212   9.120   6.813  10.051 -0.0870  0.2741  0.1201
  139loPI   GL1 2213   9.308   6.602   9.635  0.3018  0.2763 -0.0686
  139loPI   GL2 2214   8.891   6.545   9.671 -0.2474 -0.1341  0.1876
  139loPI   C1A 2215   9.571   6.986   9.322  0.2299  0.2418  0.1737
  139loPI   C2A 2216   9.652   7.088   8.832  0.2882 -0.1224  0.4505
  139loPI   C3A 2217   9.449   7.160   8.416 -0.1911  0.1611  0.2454
  139loPI   C4A 2218   9.438   7.327   8.011 -0.1208 -0.1291 -0.3842
  139loPI   C5A 2219   9.314   7.136   7.647  0.3084 -0.1041  0.1790
  139loPI   C6A 2220   8.915   6.953   7.605  0.0465 -0.0088 -0.0564
  139loPI   C1B 2221   8.925   6.416   9.272  0.3678  0.2785 -0.2020
  139loPI   C2B 2222   8.932   6.328   8.811  0.1199 -0.0666 -0.3052
  139loPI   C3B 2223   8.807   6.483   8.374 -0.0532 -0.3109 -0.0336
  139loPI   C4B 2224   8.713   6.682   7.965  0.2135  0.0640 -0.0129
  140loPI    C1 2225   4.212   6.126   9.414  0.1013 -0.0161 -0.0125
  140loPI    C2 2226   4.240   6.375   9.726  0.0429  0.2112 -0.1865
  140loPI    C3 2227   3.924   6.132   9.692  0.1431  0.0478  0.0296
  140loPI   PO4 2228   4.323   6.244   9.221 -0.1072 -0.1343 -0.1485
  140loPI   GL1 2229   4.213   6.715   8.928  0.6027  0.0231  0.1609
  140loPI   GL2 2230   4.504   6.529   8.914 -0.2395  0.1440  0.1160
  140loPI   C1A 2231   3.940   6.592   8.613 -0.1227 -0.1397  0.0114
  140loPI   C2A 2232   3.783   6.691   8.210  0.2761 -0.0093 -0.0352
  140loPI   C3A 2233   3.906   6.784   7.854  0.1700 -0.1555 -0.0582
  140loPI   C4A 2234   4.191   6.576   7.606  0.1075 -0.0876 -0.3083
  140loPI   C5A 2235   4.447   6.733   7.345 -0.2711 -0.3801 -0.1017
  140loPI   C6A 2236   4.335   7.038   7.082  0.0335  0.1048  0.0717
  140loPI   C1B 2237   4.431   6.383   8.591  0.1003  0.2984  0.1880
  140loPI   C2B 2238   4.419   6.107   8.243  0.1742  0.0301  0.0543
  140loPI   C3B 2239   4.302   5.768   8.042 -0.1107  0.1261  0.2175
  140loPI   C4B 2240   3.897   5.618   7.906 -0.3485  0.0609 -0.1505
  141loPI    C1 2241  16.001   2.988  10.084 -0.0469  0.0109  0.2313
  141loPI    C2 2242  16.381   3.025   9.963 -0.1209 -0.2193 -0.0828
  141loPI    C3 2243  16.300   2.875  10.324  0.0871 -0.1279  0.0033
  141loPI   PO4 2244  15.897   3.122   9.824  0.2480  0.1689  0.0586
  141loPI   GL1 2245  15.864   2.936   9.520  0.1802 -0.1994  0.1968
  141loPI   GL2 2246  16.178   2.933   9.491  0.0444  0.0535 -0.2146
  141loPI   C1A 2247  15.798   2.992   9.111  0.1539 -0.0634 -0.3677
  141loPI   C2A 2248  15.824   3.132   8.776 -0.0300  0.3038  0.0296
  141loPI   C3A 2249  15.787   3.311   8.369 -0.1304  0.2041  0.1067
  141loPI   C4A 2250  15.842   3.344   7.941 -0.0992  0.0050  0.0333
  141loPI   C5A 2251  15.921   3.207   7.574  0.0779  0.2772  0.1613
  141loPI   C6A 2252  15.899   3.472   7.152  0.0365 -0.3734  0.0755
  141loPI   C1B 2253  16.343   3.066   9.025  0.0759  0.0024  0.1156
  141loPI   C2B 2254  16.294   3.135   8.626  0.1917  0.2470 -0.0895
  141loPI   C3B 2255  16.245   3.246   8.262 -0.2378 -0.3650 -0.0819
  141loPI   C4B 2256  16.385   3.529   7.984  0.1321 -0.0030  0.1809
  142loPI    C1 2257  17.912  18.211   9.644 -0.0354  0.1454  0.1833
  142loPI    C2 2258  17.571  18.229   9.437  0.0624  0.0819  0.0147
  142loPI    C3 2259  17.587  18.375   9.809 -0.1237  0.1673 -0.0096
  142loPI   PO4 2260  18.104  18.286   9.458  0.2255 -0.0994  0.0857
  142loPI   GL1 2261  18.374  18.466   9.118 -0.1073 -0.0380 -0.1983
  142loPI   GL2 2262  18.663  18.245   9.090 -0.2414 -0.1902  0.1687
  142loPI   C1A 2263  18.221  18.625   8.850  0.0538  0.3930 -0.0222
  142loPI   C2A 2264  18.273  18.650   8.431 -0.1105  0.1874 -0.2066
  142loPI   C3A 2265  18.296  18.699   8.043 -0.2550 -0.1348 -0.2897
  142loPI   C4A 2266  18.270  18.687   7.572  0.1567 -0.1763  0.4079
  142loPI   C5A 2267  17.932  18.475   7.435 -0.0952 -0.3455  0.1438
  142loPI   C6A 2268  17.575  18.284   7.292 -0.0730 -0.1143  0.0064
  142loPI   C1B 2269  18.701  18.502   8.694 -0.0434  0.2562  0.0613
  142loPI   C2B 2270  18.740  18.529   8.230  0.1121 -0.0178 -0.1110
  142loPI   C3B 2271  18.772  18.556   7.757  0.0549  0.1002 -0.2239
  142loPI   C4B 2272  18.708  18.723   7.268 -0.1129  0.1062  0.2727
  143loPI    C1 2273   1.927   8.949   9.386  0.5787  0.2430 -0.0940
  143loPI    C2 2274   1.800   9.181   9.686  0.2741  0.1502 -0.1472
  143loPI    C3 2275   2.128   8.957   9.731  0.1217 -0.0118  0.1887
  143loPI   PO4 2276   1.596   8.923   9.269 -0.0505 -0.0327 -0.1352
  143loPI   GL1 2277   1.514   8.919   8.866 -0.2335  0.0392  0.2111
  143loPI   GL2 2278   1.348   8.644   8.871  0.0071 -0.2447 -0.1787
  143loPI   C1A 2279   1.448   8.893   8.428  0.0898  0.1156 -0.1911
  143loPI   C2A 2280   1.225   8.761   8.237  0.0317 -0.1705 -0.0972
  143loPI   C3A 2281   1.109   8.560   8.026 -0.2603 -0.1854 -0.2249
  143loPI   C4A 2282   1.187   8.613   7.532  0.0838  0.2982  0.0643
  143loPI   C5A 2283   1.209   8.365   7.235  0.0886  0.0354  0.2415
  143loPI   C6A 2284   1.437   8.377   6.780  0.3417 -0.2685  0.1384
  143loPI   C1B 2285   1.054   8.489   8.610 -0.1397 -0.2134  0.2462
  143loPI   C2B 2286   0.926   8.150   8.375  0.1048  0.2610 -0.1140
  143loPI   C3B 2287   1.143   8.015   8.085 -0.1850  0.2774 -0.3471
  143loPI   C4B 2288   1.164   7.987   7.638 -0.0951  0.0121 -0.0436
  144loPI    C1 2289  10.112   6.293  10.415 -0.0371  0.2536 -0.0772
  144loPI    C2 2290  10.424   6.071  10.300  0.0252  0.1874  0.2117
  144loPI    C3 2291  10.442   6.280  10.641 -0.2386  0.1995  0.2207
  144loPI   PO4 2292   9.965   6.265  10.216 -0.0317 -0.2239 -0.0279
  144loPI   GL1 2293  10.329   6.321   9.845  0.1540  0.1776 -0.0879
  144loPI   GL2 2294  10.532   6.019   9.834  0.1701  0.1650  0.3131
  144loPI   C1A 2295  10.110   6.487   9.541 -0.2512 -0.1978  0.3486
  144loPI   C2A 2296   9.737   6.464   9.465  0.0072  0.0440  0.0021
  144loPI   C3A 2297   9.422   6.559   9.151  0.0142  0.2658 -0.0269
  144loPI   C4A 2298   9.441   6.585   8.738  0.2409 -0.0043 -0.2289
  144loPI   C5A 2299   9.361   6.655   8.302 -0.1866  0.0347  0.3507
  144loPI   C6A 2300   9.255   6.751   7.944 -0.2647  0.0625 -0.1996
  144loPI   C1B 2301  10.618   6.097   9.357  0.1678  0.2959  0.3934
  144loPI   C2B 2302  10.718   6.041   8.932  0.2650  0.3914 -0.2269
  144loPI   C3B 2303  10.576   5.977   8.505 -0.4878 -0.0366  0.1343
  144loPI   C4B 2304  10.468   6.091   8.063 -0.2058  0.4632  0.0940
  145loPI    C1 2305   9.387  14.106   9.881 -0.0307  0.0601  0.0982
  145loPI    C2 2306   9.355  13.829  10.168 -0.1315 -0.2013 -0.1604
  145loPI    C3 2307   9.541  14.175  10.243 -0.0571 -0.3129  0.1843
  145loPI   PO4 2308   9.151  14.102   9.770 -0.0350 -0.1065  0.1812
  145loPI   GL1 2309   8.885  13.875   9.474  0.1218 -0.0674 -0.1633
  145loPI   GL2 2310   8.575  13.797   9.362  0.1293 -0.2916  0.0623
  145loPI   C1A 2311   8.849  13.806   8.994  0.1141  0.0037 -0.0918
  145loPI   C2A 2312   8.960  13.857   8.604 -0.3872 -0.1934  0.5654
  145loPI   C3A 2313   8.830  14.092   8.295  0.4712 -0.5020  0.0838
  145loPI   C4A 2314   8.980  14.055   7.919  0.1198  0.0632 -0.0389
  145loPI   C5A 2315   9.370  13.947   7.837 -0.0419  0.0574  0.2706
  145loPI   C6A 2316   9.603  13.978   7.424  0.0820  0.2137 -0.6191
  145loPI   C1B 2317   8.117  13.825   9.308  0.4214 -0.1135 -0.1042
  145loPI   C2B 2318   7.872  14.133   8.986  0.1611  0.3477 -0.2374
  145loPI   C3B 2319   8.058  14.264   8.613 -0.0684 -0.2473  0.0410
  145loPI   C4B 2320   7.951  14.126   8.193  0.2155 -0.0311 -0.2032
  146loPI    C1 2321   7.691  10.920  10.290  0.0301  0.3895  0.2395
  146loPI    C2 2322   8.023  10.932  10.066 -0.0093 -0.0654  0.1466
  146loPI    C3 2323   8.026  11.081  10.437  0.2349  0.1290  0.0688
  146loPI   PO4 2324   7.545  10.754  10.063  0.0358  0.1339  0.0749
  146loPI   GL1 2325   7.433  10.634   9.647 -0.4466  0.0023  0.1363
  146loPI   GL2 2326   7.716  10.776   9.543 -0.2342  0.2579 -0.0869
  146loPI   C1A 2327   7.437  10.613   9.204  0.0816 -0.1382 -0.1490
  146loPI   C2A 2328   7.586  10.461   8.747  0.1437  0.1915  0.4739
  146loPI   C3A 2329   7.386  10.486   8.337  0.0502 -0.4911 -0.0541
  146loPI   C4A 2330   7.298  10.566   7.946 -0.0224  0.0135 -0.1209
  146loPI   C5A 2331   7.075  10.418   7.718  0.0038 -0.1393  0.3300
  146loPI   C6A 2332   6.951  10.507   7.297  0.1714 -0.2183 -0.0599
  146loPI   C1B 2333   7.793  10.955   9.122  0.0570  0.1332 -0.0897
  146loPI   C2B 2334   7.704  10.953   8.700  0.0586 -0.0541 -0.2679
  146loPI   C3B 2335   7.481  10.973   8.258 -0.2259 -0.1133 -0.3062
  146loPI   C4B 2336   7.208  11.383   8.165 -0.1331  0.0120 -0.1014
  147loPI    C1 2337   1.393  13.529   9.626  0.2583 -0.1735 -0.0050
  147loPI    C2 2338   1.151  13.224   9.539  0.0569 -0.0664  0.1703
  147loPI    C3 2339   1.288  13.269   9.911 -0.1081  0.1906  0.2020
  147loPI   PO4 2340   1.401  13.653   9.504  0.0589  0.1490  0.2404
  147loPI   GL1 2341   1.514  13.520   9.108 -0.0601  0.1269 -0.0350
  147loPI   GL2 2342   1.801  13.501   8.984 -0.2927  0.0294  0.1806
  147loPI   C1A 2343   1.389  13.323   8.717  0.0276  0.1851  0.0481
  147loPI   C2A 2344   1.571  13.363   8.291  0.2580 -0.0065  0.0723
  147loPI   C3A 2345   1.569  13.416   7.862  0.0902  0.1338  0.1492
  147loPI   C4A 2346   1.245  13.306   7.452  0.1214 -0.2519  0.5063
  147loPI   C5A 2347   1.006  13.285   7.046  0.0984 -0.2697  0.3569
  147loPI   C6A 2348   1.056  13.427   6.634 -0.0702 -0.0297 -0.1413
  147loPI   C1B 2349   2.036  13.546   8.583 -0.1932  0.0827 -0.0413
  147loPI   C2B 2350   2.107  13.581   8.100  0.1679  0.0901  0.0874
  147loPI   C3B 2351   2.369  13.283   7.860  0.0984 -0.1335 -0.0481
  147loPI   C4B 2352   2.710  13.111   7.512  0.0029  0.1657  0.0535
  148loPI    C1 2353   3.411  15.504   9.967 -0.1790 -0.0107 -0.0038
  148loPI    C2 2354   3.649  15.357  10.253 -0.0420  0.1997 -0.0077
  148loPI    C3 2355   3.396  15.656  10.336 -0.0941  0.1750 -0.0757
  148loPI   PO4 2356   3.343  15.265   9.857 -0.3585  0.2552 -0.0735
  148loPI   GL1 2357   3.274  14.916   9.526 -0.1831  0.1250 -0.0179
  148loPI   GL2 2358   3.453  15.070   9.383 -0.3187 -0.1133  0.2934
  148loPI   C1A 2359   3.140  14.732   9.061 -0.0004 -0.2649  0.1741
  148loPI   C2A 2360   2.875  14.668   8.733  0.2084  0.0420  0.0255
  148loPI   C3A 2361   2.899  14.693   8.365 -0.2508 -0.0992 -0.2395
  148loPI   C4A 2362   3.010  14.690   7.911  0.4164  0.0816 -0.1113
  148loPI   C5A 2363   3.202  14.850   7.538  0.0675  0.2264  0.2322
  148loPI   C6A 2364   3.592  14.740   7.288 -0.0464  0.2023  0.1577
  148loPI   C1B 2365   3.522  15.210   8.943  0.2027  0.1809 -0.3752
  148loPI   C2B 2366   3.512  15.296   8.473 -0.0918  0.1257  0.2106
  148loPI   C3B 2367   3.516  15.496   8.100  0.0508  0.1838 -0.2038
  148loPI   C4B 2368   3.501  15.261   7.737  0.2569  0.0036  0.1058
  149loPI    C1 2369   4.784   8.278  10.085  0.2638 -0.2138  0.1658
  149loPI    C2 2370   4.820   8.174  10.469 -0.1098  0.0397  0.2747
  149loPI    C3 2371   4.602   7.949  10.220 -0.0691  0.0080  0.2675
  149loPI   PO4 2372   5.014   8.346   9.979 -0.3513  0.0180  0.0407
  149loPI   GL1 2373   5.151   8.447   9.520  0.1113  0.1908  0.2231
  149loPI   GL2 2374   4.806   8.467   9.513 -0.0571  0.0193 -0.2556
  149loPI   C1A 2375   5.284   8.505   9.087  0.1944 -0.1604  0.0093
  149loPI   C2A 2376   5.457   8.541   8.694 -0.3026 -0.1287 -0.0745
  149loPI   C3A 2377   5.599   8.642   8.218 -0.0387  0.1279  0.1022
  149loPI   C4A 2378   5.706   8.839   7.901  0.0553 -0.1464 -0.0321
  149loPI   C5A 2379   5.786   9.283   7.745 -0.0499 -0.1264  0.1162
  149loPI   C6A 2380   5.512   9.585   7.852 -0.1533 -0.1654 -0.0775
  149loPI   C1B 2381   4.519   8.192   9.317  0.0655 -0.0379 -0.0523
  149loPI   C2B 2382   4.428   8.128   8.968 -0.0872 -0.2319  0.0719
  149loPI   C3B 2383   4.593   7.852   8.749  0.0751 -0.2498  0.1534
  149loPI   C4B 2384   4.643   7.647   8.517  0.2833  0.2846  0.1220
  150loPI    C1 2385   6.919   7.840  10.273 -0.1375  0.0281 -0.1602
  150loPI    C2 2386   7.009   7.878  10.661  0.1591 -0.1003 -0.2137
  150loPI    C3 2387   6.643   7.761  10.551  0.1481 -0.3092  0.0359
  150loPI   PO4 2388   7.126   7.658  10.179  0.2906  0.4151  0.2271
  150loPI   GL1 2389   7.146   7.445   9.777 -0.3256 -0.0453  0.0654
  150loPI   GL2 2390   6.923   7.358   9.776  0.1401  0.0512  0.0667
  150loPI   C1A 2391   6.793   7.705   9.452  0.2787 -0.2041 -0.2649
  150loPI   C2A 2392   6.647   7.994   9.088 -0.0025  0.3387 -0.0464
  150loPI   C3A 2393   6.588   7.804   8.725  0.0930 -0.0292 -0.0194
  150loPI   C4A 2394   6.726   7.757   8.154  0.0478 -0.3249 -0.3870
  150loPI   C5A 2395   6.397   7.765   7.927  0.1837  0.1005  0.2854
  150loPI   C6A 2396   6.195   7.747   7.481  0.2209 -0.3462  0.1175
  150loPI   C1B 2397   7.204   7.453   9.347 -0.1074 -0.1312  0.1801
  150loPI   C2B 2398   7.283   7.454   8.991 -0.1836 -0.5701 -0.2362
  150loPI   C3B 2399   7.490   7.690   8.703  0.0745  0.0266 -0.0761
  150loPI   C4B 2400   7.799   7.681   8.464 -0.1532  0.0423 -0.0527
  151loPI    C1 2401   7.440  12.239  10.258  0.0888 -0.0014  0.0960
  151loPI    C2 2402   7.051  12.305  10.324  0.0278 -0.0255 -0.2249
  151loPI    C3 2403   7.318  12.380  10.612 -0.2119  0.0035 -0.0068
  151loPI   PO4 2404   7.540  12.413  10.042  0.0134 -0.2254 -0.2119
  151loPI   GL1 2405   7.515  12.530   9.604 -0.0557  0.4077  0.0215
  151loPI   GL2 2406   7.231  12.576   9.632  0.1034  0.3150 -0.0842
  151loPI   C1A 2407   7.780  12.476   9.294  0.0252  0.3238 -0.2819
  151loPI   C2A 2408   7.870  12.424   8.906 -0.3313  0.1536 -0.0622
  151loPI   C3A 2409   7.990  12.360   8.546  0.2089 -0.1342  0.1362
  151loPI   C4A 2410   8.021  12.214   8.141 -0.0241 -0.0683 -0.1659
  151loPI   C5A 2411   7.889  12.045   7.767  0.1890  0.0242  0.1888
  151loPI   C6A 2412   7.786  12.209   7.380  0.4611 -0.0445 -0.1907
  151loPI   C1B 2413   7.169  12.243   9.296  0.0288 -0.0100 -0.1855
  151loPI   C2B 2414   6.945  12.099   8.990  0.0427 -0.4551  0.3493
  151loPI   C3B 2415   6.593  11.979   8.580  0.0303 -0.1919  0.0654
  151loPI   C4B 2416   6.252  11.855   8.455 -0.1738  0.0331 -0.0969
  152loPI    C1 2417  11.792  18.584  10.107 -0.0533 -0.0043 -0.3364
  152loPI    C2 2418  11.509  18.867  10.113 -0.1454 -0.0988  0.0629
  152loPI    C3 2419  11.861  18.931  10.292 -0.1068 -0.1772  0.0158
  152loPI   PO4 2420  11.628  18.383   9.865  0.3536 -0.5762  0.1472
  152loPI   GL1 2421  11.543  18.256   9.462 -0.1777 -0.0435 -0.2303
  152loPI   GL2 2422  11.316  18.081   9.236  0.1052  0.3991 -0.1343
  152loPI   C1A 2423  11.747  18.281   9.074 -0.3837  0.3741 -0.1624
  152loPI   C2A 2424  11.800  18.214   8.583  0.2129 -0.0082  0.1929
  152loPI   C3A 2425  11.901  18.170   8.182 -0.6541 -0.3057  0.1105
  152loPI   C4A 2426  12.024  18.040   7.738  0.4314  0.1259 -0.1886
  152loPI   C5A 2427  12.071  18.134   7.317  0.1040 -0.1620 -0.1121
  152loPI   C6A 2428  12.254  17.779   7.163 -0.1372 -0.0090 -0.2419
  152loPI   C1B 2429  11.342  18.060   8.795  0.2625 -0.1951 -0.3251
  152loPI   C2B 2430  11.356  18.022   8.323 -0.1933  0.0787  0.0376
  152loPI   C3B 2431  11.508  18.048   7.882 -0.0107  0.2474 -0.0908
  152loPI   C4B 2432  11.519  18.109   7.415  0.0856  0.0426  0.2221
  153loPI    C1 2433  13.098   9.214   9.732  0.0178 -0.0631  0.0428
  153loPI    C2 2434  12.922   9.538   9.887  0.1194  0.0192 -0.0126
  153loPI    C3 2435  13.103   9.275  10.127 -0.0203 -0.0310  0.0384
  153loPI   PO4 2436  12.932   9.103   9.537  0.1947  0.0776  0.1740
  153loPI   GL1 2437  12.505   8.986   9.214 -0.3990 -0.3509 -0.2532
  153loPI   GL2 2438  12.318   9.269   9.184  0.1168 -0.0639 -0.0233
  153loPI   C1A 2439  12.371   8.683   9.014 -0.1050 -0.1734 -0.0760
  153loPI   C2A 2440  12.319   8.668   8.618 -0.2614 -0.3391 -0.1469
  153loPI   C3A 2441  12.078   8.779   8.237  0.0644 -0.0283  0.3078
  153loPI   C4A 2442  12.147   8.889   7.769 -0.1864  0.3198 -0.1477
  153loPI   C5A 2443  12.116   9.049   7.391 -0.1175 -0.1535  0.1543
  153loPI   C6A 2444  12.141   9.448   7.197 -0.4453  0.0128  0.2860
  153loPI   C1B 2445  12.345   9.220   8.771 -0.2275  0.2427  0.1134
  153loPI   C2B 2446  12.402   9.283   8.397 -0.0813  0.2557  0.1523
  153loPI   C3B 2447  12.496   9.088   8.021 -0.0205  0.1786  0.0017
  153loPI   C4B 2448  12.626   8.962   7.603  0.0423 -0.0121  0.0255
  154loPI    C1 2449   5.865  11.050  10.388  0.2004  0.0013 -0.3082
  154loPI    C2 2450   5.607  11.255  10.162 -0.2521 -0.0373  0.1552
  154loPI    C3 2451   5.477  10.954  10.391  0.1900 -0.0000  0.4684
  154loPI   PO4 2452   6.073  11.036  10.199 -0.1229  0.0501 -0.0770
  154loPI   GL1 2453   6.217  10.902   9.911  0.0310 -0.1720  0.3755
  154loPI   GL2 2454   6.476  10.747   9.700 -0.3718  0.1651  0.5189
  154loPI   C1A 2455   6.120  10.961   9.465  0.0139 -0.0862  0.3427
  154loPI   C2A 2456   6.069  10.982   9.075  0.1181 -0.1538  0.2711
  154loPI   C3A 2457   6.195  10.885   8.713  0.1086 -0.0470 -0.0719
  154loPI   C4A 2458   6.459  10.875   8.288 -0.2231 -0.1437  0.3238
  154loPI   C5A 2459   6.420  11.071   7.869 -0.1189 -0.1794  0.1353
  154loPI   C6A 2460   6.696  11.297   7.607  0.2288  0.2376 -0.1215
  154loPI   C1B 2461   6.459  10.609   9.290  0.4320  0.1164  0.1096
  154loPI   C2B 2462   6.456  10.448   8.908  0.1173 -0.1921 -0.0498
  154loPI   C3B 2463   6.719  10.550   8.635  0.1243 -0.0677 -0.1357
  154loPI   C4B 2464   6.854  10.464   8.215 -0.0329 -0.2396 -0.2056
  155loPI    C1 2465   6.088   7.116   9.839 -0.1684  0.1163 -0.2983
  155loPI    C2 2466   5.876   7.439   9.735 -0.1919  0.3206  0.3386
  155loPI    C3 2467   6.170   7.471  10.004  0.0892 -0.1185  0.0966
  155loPI   PO4 2468   5.917   6.945   9.873 -0.2119  0.3025  0.0132
  155loPI   GL1 2469   5.599   6.790   9.531 -0.0369  0.3110 -0.0770
  155loPI   GL2 2470   5.568   7.127   9.545 -0.1042  0.4394  0.1333
  155loPI   C1A 2471   5.566   6.762   9.012 -0.1432 -0.1548  0.1760
  155loPI   C2A 2472   5.626   6.772   8.606  0.0076 -0.2471  0.1929
  155loPI   C3A 2473   5.878   7.023   8.316 -0.4549  0.3959  0.0828
  155loPI   C4A 2474   6.123   7.105   8.074  0.3187  0.0824 -0.0658
  155loPI   C5A 2475   6.500   7.197   7.967 -0.2437 -0.0188  0.0526
  155loPI   C6A 2476   6.606   7.395   7.585  0.1486 -0.0871  0.1893
  155loPI   C1B 2477   5.941   7.095   9.321  0.2258 -0.1071  0.0807
  155loPI   C2B 2478   6.039   7.108   8.930  0.1620  0.1028 -0.0100
  155loPI   C3B 2479   6.208   7.346   8.630 -0.1647 -0.0594  0.0945
  155loPI   C4B 2480   6.158   7.553   8.335  0.1446  0.1043  0.0127
  156loPI    C1 2481  15.315   2.908   9.817 -0.0728  0.2957  0.1641
  156loPI    C2 2482  15.150   3.058  10.149  0.0367  0.0465  0.3335
  156loPI    C3 2483  15.495   2.856  10.170 -0.0763 -0.1765  0.1034
  156loPI   PO4 2484  15.137   2.923   9.587 -0.3452  0.1499 -0.2184
  156loPI   GL1 2485  15.080   3.165   9.197  0.0548  0.1612 -0.3166
  156loPI   GL2 2486  15.261   3.465   9.243  0.1184  0.1107 -0.1996
  156loPI   C1A 2487  15.337   3.184   8.909  0.3213  0.0349  0.0464
  156loPI   C2A 2488  15.309   3.136   8.446 -0.1612 -0.1546 -0.1935
  156loPI   C3A 2489  15.347   3.346   8.119 -0.1770 -0.2342 -0.0731
  156loPI   C4A 2490  15.422   3.281   7.729  0.0646 -0.0624 -0.0302
  156loPI   C5A 2491  15.443   3.221   7.333 -0.1832 -0.0866 -0.0211
  156loPI   C6A 2492  15.151   3.383   7.018  0.1985  0.4894  0.1348
  156loPI   C1B 2493  15.063   3.610   8.863 -0.0036 -0.0729  0.1517
  156loPI   C2B 2494  14.977   3.578   8.412  0.1197  0.2172 -0.1787
  156loPI   C3B 2495  14.985   3.567   7.888  0.1572 -0.1872  0.3281
  156loPI   C4B 2496  15.128   3.697   7.415  0.2427  0.0517  0.0215
  157loPI    C1 2497   1.579   7.620   9.704 -0.1020  0.3013 -0.0000
  157loPI    C2 2498   1.223   7.438   9.696 -0.0311  0.1644 -0.0706
  157loPI    C3 2499   1.315   7.683   9.998 -0.1755  0.1812 -0.0396
  157loPI   PO4 2500   1.625   7.496   9.419  0.2130 -0.3368  0.2923
  157loPI   GL1 2501   1.523   7.147   9.324 -0.0728 -0.0799  0.0919
  157loPI   GL2 2502   1.169   7.127   9.281  0.0774  0.0173  0.2166
  157loPI   C1A 2503   1.563   7.165   8.809 -0.0235 -0.0589  0.2157
  157loPI   C2A 2504   1.440   7.093   8.303 -0.0360 -0.0615 -0.0026
  157loPI   C3A 2505   1.445   7.141   7.849  0.2591  0.0545 -0.0434
  157loPI   C4A 2506   1.400   7.571   7.611  0.0475  0.4450  0.0626
  157loPI   C5A 2507   1.144   7.676   7.193  0.3780  0.2779  0.2739
  157loPI   C6A 2508   0.939   7.356   6.921 -0.0230 -0.0191  0.0401
  157loPI   C1B 2509   1.152   6.900   8.982  0.1327 -0.0086 -0.1057
  157loPI   C2B 2510   1.264   6.762   8.664 -0.1533  0.2712  0.0224
  157loPI   C3B 2511   1.370   6.643   8.216 -0.1365  0.3189  0.3288
  157loPI   C4B 2512   1.206   6.673   7.715  0.2463 -0.0033 -0.3679
  158loPI    C1 2513   5.356   5.486   9.769 -0.0724  0.0724  0.0289
  158loPI    C2 2514   5.223   5.683  10.091 -0.1379 -0.0880  0.1012
  158loPI    C3 2515   5.021   5.367   9.952 -0.0861 -0.0460 -0.0722
  158loPI   PO4 2516   5.412   5.638   9.540  0.0842  0.0176 -0.0445
  158loPI   GL1 2517   5.439   5.529   9.208  0.0022  0.1165  0.5121
  158loPI   GL2 2518   5.732   5.610   9.165 -0.0267 -0.0259 -0.0152
  158loPI   C1A 2519   5.505   5.464   8.709  0.2616 -0.1565 -0.3522
  158loPI   C2A 2520   5.272   5.900   8.442 -0.1623 -0.1966  0.0577
  158loPI   C3A 2521   5.410   6.326   8.304 -0.0711 -0.1341  0.0403
  158loPI   C4A 2522   5.470   6.721   8.109  0.0552  0.0528 -0.1835
  158loPI   C5A 2523   5.682   6.931   7.809  0.0154  0.1306  0.1010
  158loPI   C6A 2524   6.098   7.061   7.596  0.1351 -0.1633  0.1063
  158loPI   C1B 2525   5.859   5.755   8.724 -0.0623 -0.0822 -0.0800
  158loPI   C2B 2526   5.791   5.705   8.395 -0.2933  0.0978  0.0493
  158loPI   C3B 2527   5.788   5.966   8.047  0.2807  0.0996 -0.1340
  158loPI   C4B 2528   6.049   6.143   7.706  0.1394  0.0871 -0.2581
  159loPI    C1 2529   6.250  12.615   9.992 -0.0585 -0.2683  0.0203
  159loPI    C2 2530   5.875  12.680   9.867  0.0107  0.1367  0.0116
  159loPI    C3 2531   5.942  12.538  10.235 -0.1554 -0.0991 -0.0473
  159loPI   PO4 2532   6.387  12.514   9.801  0.0511  0.2437 -0.0846
  159loPI   GL1 2533   6.302  12.509   9.304 -0.3703 -0.2309  0.1689
  159loPI   GL2 2534   6.510  12.240   9.410  0.1085  0.0801  0.1740
  159loPI   C1A 2535   6.345  12.442   8.894 -0.3487  0.0276 -0.2021
  159loPI   C2A 2536   6.329  12.438   8.388 -0.3912  0.0296 -0.0199
  159loPI   C3A 2537   6.450  12.142   8.091 -0.1831 -0.2097 -0.0316
  159loPI   C4A 2538   6.215  11.846   7.942  0.1983  0.0032  0.0977
  159loPI   C5A 2539   6.161  11.547   7.667  0.0017  0.1081  0.1751
  159loPI   C6A 2540   6.198  11.139   7.384  0.0047 -0.3354 -0.0191
  159loPI   C1B 2541   6.273  11.919   9.117 -0.2521 -0.1129 -0.2634
  159loPI   C2B 2542   5.949  11.782   8.793 -0.2593 -0.0522 -0.1311
  159loPI   C3B 2543   5.800  11.713   8.278 -0.1866  0.3012 -0.1324
  159loPI   C4B 2544   5.641  11.856   7.912 -0.0413  0.2667 -0.1406
  160loPI    C1 2545   8.225   0.188   9.967 -0.0521 -0.0180  0.0714
  160loPI    C2 2546   7.975   0.240  10.275 -0.2253 -0.2603 -0.0247
  160loPI    C3 2547   8.362   0.336  10.313 -0.3986  0.4940 -0.0004
  160loPI   PO4 2548   8.075   0.170   9.682 -0.0935 -0.0824  0.0049
  160loPI   GL1 2549   8.096   0.256   9.334 -0.0087  0.2849 -0.2883
  160loPI   GL2 2550   8.388   0.237   9.142 -0.1682 -0.0467 -0.3929
  160loPI   C1A 2551   7.977   0.124   8.878 -0.5681 -0.1708 -0.1493
  160loPI   C2A 2552   8.004   0.090   8.410 -0.1106  0.0633 -0.1622
  160loPI   C3A 2553   8.147   0.020   8.007 -0.1479 -0.0917 -0.1194
  160loPI   C4A 2554   8.174   0.096   7.590 -0.3066  0.1618  0.0594
  160loPI   C5A 2555   8.479  -0.088   7.386 -0.1030  0.0081 -0.2658
  160loPI   C6A 2556   8.715  -0.446   7.327  0.0207 -0.4003  0.0325
  160loPI   C1B 2557   8.460   0.129   8.793 -0.1134  0.1599  0.1269
  160loPI   C2B 2558   8.547   0.026   8.365 -0.0517 -0.2521  0.1613
  160loPI   C3B 2559   8.648   0.030   8.143  0.0892  0.1160 -0.2128
  160loPI   C4B 2560   8.590   0.169   7.836  0.3156  0.1218  0.0841
  161loPI    C1 2561   9.629   0.651   9.754 -0.0815 -0.1450 -0.0188
  161loPI    C2 2562   9.876   0.867   9.982 -0.1701  0.0953 -0.1464
  161loPI    C3 2563   9.699   0.541  10.133  0.1961 -0.0628 -0.0441
  161loPI   PO4 2564   9.786   0.559   9.510  0.0305 -0.0354 -0.4336
  161loPI   GL1 2565   9.673   0.684   9.091 -0.0064  0.0413 -0.0091
  161loPI   GL2 2566   9.745   0.338   8.988  0.0011 -0.2832 -0.2609
  161loPI   C1A 2567   9.664   0.972   8.790  0.0395  0.3051  0.3072
  161loPI   C2A 2568   9.701   1.071   8.388 -0.0864  0.3983  0.1041
  161loPI   C3A 2569   9.829   1.109   7.983  0.1250 -0.1464  0.0246
  161loPI   C4A 2570   9.838   1.123   7.501  0.0362 -0.1901  0.0020
  161loPI   C5A 2571  10.109   0.776   7.363  0.0823 -0.1930 -0.2089
  161loPI   C6A 2572  10.498   0.713   7.448  0.2219 -0.1125 -0.4432
  161loPI   C1B 2573   9.929   0.524   8.684  0.0370 -0.3794 -0.0614
  161loPI   C2B 2574   9.932   0.628   8.233 -0.1307 -0.0108 -0.0715
  161loPI   C3B 2575  10.049   0.648   7.839  0.1320  0.2120 -0.0306
  161loPI   C4B 2576  10.236   0.268   7.607  0.0207 -0.2616  0.3544
  162loPI    C1 2577   8.412   4.238  10.273  0.1259 -0.0183  0.0241
  162loPI    C2 2578   8.339   4.572  10.065 -0.0049 -0.0256  0.0574
  162loPI    C3 2579   8.072   4.440  10.333  0.0117 -0.1979 -0.0093
  162loPI   PO4 2580   8.532   4.090  10.125  0.0698  0.4623 -0.2062
  162loPI   GL1 2581   8.416   4.055   9.758 -0.0392 -0.0370  0.2611
  162loPI   GL2 2582   8.191   3.900   9.519 -0.0578  0.2013  0.0518
  162loPI   C1A 2583   8.403   4.342   9.383  0.2828  0.2459 -0.0091
  162loPI   C2A 2584   8.369   4.358   8.989  0.1743 -0.0950  0.0814
  162loPI   C3A 2585   8.268   4.423   8.522  0.1409 -0.1277 -0.1589
  162loPI   C4A 2586   8.109   4.652   8.145  0.2038 -0.2234  0.0973
  162loPI   C5A 2587   8.015   4.735   7.702  0.1171 -0.0528 -0.0309
  162loPI   C6A 2588   8.010   4.945   7.327  0.2225  0.1977 -0.1465
  162loPI   C1B 2589   8.275   3.913   9.113 -0.0246 -0.0544 -0.3515
  162loPI   C2B 2590   8.372   3.937   8.709 -0.2125  0.0298  0.0417
  162loPI   C3B 2591   8.545   3.949   8.389  0.4180  0.0696 -0.0146
  162loPI   C4B 2592   8.675   3.894   7.870 -0.2641  0.0615  0.0423
  163loPI    C1 2593  17.051  16.596   9.744 -0.0673 -0.1385 -0.0900
  163loPI    C2 2594  17.098  16.647  10.138 -0.0816 -0.0994 -0.0932
  163loPI    C3 2595  16.731  16.601   9.985 -0.0713 -0.1803 -0.0943
  163loPI   PO4 2596  17.312  16.400   9.726 -0.2292 -0.2259  0.1291
  163loPI   GL1 2597  17.331  16.286   9.317  0.1814 -0.2781 -0.2920
  163loPI   GL2 2598  17.645  16.238   9.348  0.0959 -0.2762 -0.0505
  163loPI   C1A 2599  17.239  16.209   8.918 -0.0856  0.1007 -0.3112
  163loPI   C2A 2600  17.211  16.186   8.506  0.1045 -0.1169  0.2441
  163loPI   C3A 2601  17.309  16.194   8.095 -0.1264  0.0310 -0.0960
  163loPI   C4A 2602  17.236  16.271   7.635  0.0658  0.3168 -0.1497
  163loPI   C5A 2603  17.234  16.001   7.360  0.1562 -0.3048 -0.1520
  163loPI   C6A 2604  16.890  15.816   7.045 -0.1548 -0.3026 -0.1996
  163loPI   C1B 2605  17.706  16.041   8.851 -0.1298 -0.0375 -0.1360
  163loPI   C2B 2606  17.890  16.027   8.399 -0.0115  0.0717  0.2643
  163loPI   C3B 2607  17.840  16.049   7.971  0.2157 -0.0475  0.2316
  163loPI   C4B 2608  17.626  15.894   7.562  0.3132 -0.0486  0.5735
  164loPI    C1 2609  18.748   2.887   9.722 -0.0335  0.1188  0.3144
  164loPI    C2 2610  18.454   2.634   9.626  0.1753 -0.0024 -0.0236
  164loPI    C3 2611  18.366   2.995   9.774 -0.1386 -0.0727 -0.0311
  164loPI   PO4 2612  18.927   2.903   9.532 -0.2622 -0.2372 -0.0211
  164loPI   GL1 2613  19.057   3.017   9.142 -0.1424 -0.4491  0.0155
  164loPI   GL2 2614  18.807   3.294   8.930  0.2192 -0.1553 -0.0820
  164loPI   C1A 2615  18.957   2.928   8.718  0.1823  0.1909 -0.0553
  164loPI   C2A 2616  19.033   2.755   8.242  0.0450  0.0588 -0.0566
  164loPI   C3A 2617  18.971   2.753   7.760 -0.3194  0.0284  0.0653
  164loPI   C4A 2618  18.835   2.654   7.289 -0.3765  0.4451 -0.0285
  164loPI   C5A 2619  18.994   2.706   6.881 -0.0114 -0.2885 -0.1353
  164loPI   C6A 2620  19.186   2.748   6.512  0.1038 -0.0776  0.2459
  164loPI   C1B 2621  18.607   3.387   8.525 -0.1196 -0.2814  0.0188
  164loPI   C2B 2622  18.681   3.338   8.071 -0.0865  0.1592 -0.1512
  164loPI   C3B 2623  18.560   3.118   7.661 -0.2126  0.1690 -0.3592
  164loPI   C4B 2624  18.246   3.080   7.268  0.2854 -0.0571  0.0276
  165loPI    C1 2625   6.449   3.708   9.688 -0.2858  0.0666  0.0408
  165loPI    C2 2626   6.565   3.934   9.997 -0.0030  0.1157 -0.0983
  165loPI    C3 2627   6.473   3.549  10.055 -0.1019  0.1638  0.0722
  165loPI   PO4 2628   6.591   3.762   9.466 -0.1858 -0.0386 -0.1322
  165loPI   GL1 2629   6.923   3.930   9.400  0.1237 -0.1015 -0.0855
  165loPI   GL2 2630   7.222   3.837   9.314 -0.1720  0.3277  0.0248
  165loPI   C1A 2631   6.819   4.226   9.060  0.0644  0.0817 -0.0862
  165loPI   C2A 2632   6.912   4.241   8.624  0.0810 -0.0810  0.1559
  165loPI   C3A 2633   7.106   4.238   8.161  0.2888  0.0562 -0.1219
  165loPI   C4A 2634   6.951   4.540   7.823  0.1966  0.1403  0.1148
  165loPI   C5A 2635   6.916   5.002   7.469 -0.1471  0.1494 -0.2014
  165loPI   C6A 2636   7.037   5.455   7.514  0.1745 -0.2023 -0.1445
  165loPI   C1B 2637   7.367   4.031   8.950  0.0316  0.0096  0.0357
  165loPI   C2B 2638   7.388   4.014   8.595  0.3732 -0.1131  0.1929
  165loPI   C3B 2639   7.466   3.879   8.208  0.2379  0.0311  0.1333
  165loPI   C4B 2640   7.527   3.869   7.764 -0.1415 -0.0060 -0.1235
  166loPI    C1 2641   3.385   6.086   9.699  0.3823 -0.2223  0.1828
  166loPI    C2 2642   3.285   6.431   9.875  0.0921 -0.2549  0.0865
  166loPI    C3 2643   3.021   6.132   9.858  0.1888 -0.3261 -0.2197
  166loPI   PO4 2644   3.473   6.098   9.387 -0.1946 -0.1225 -0.1550
  166loPI   GL1 2645   3.758   5.853   9.093 -0.1311  0.1820  0.0823
  166loPI   GL2 2646   3.571   6.049   8.888  0.3438 -0.0473 -0.3337
  166loPI   C1A 2647   3.775   5.519   8.791  0.0582 -0.2708  0.0700
  166loPI   C2A 2648   3.541   5.382   8.403 -0.0505  0.3302 -0.2932
  166loPI   C3A 2649   3.410   5.391   7.978 -0.1184 -0.2866 -0.2871
  166loPI   C4A 2650   3.162   5.278   7.556  0.2316  0.0076  0.0804
  166loPI   C5A 2651   2.851   5.250   7.198 -0.1428  0.1123 -0.2565
  166loPI   C6A 2652   2.544   5.039   6.921  0.0944  0.1480  0.1112
  166loPI   C1B 2653   3.682   6.008   8.430  0.1375 -0.0375  0.0924
  166loPI   C2B 2654   3.418   5.825   8.231 -0.0059  0.0188 -0.3351
  166loPI   C3B 2655   3.068   5.960   7.934 -0.2023  0.3511  0.1516
  166loPI   C4B 2656   2.663   6.130   7.809 -0.0755  0.1622  0.0768
  167loPI    C1 2657   6.535   9.512  10.227  0.0165 -0.1124  0.1228
  167loPI    C2 2658   6.390   9.139  10.221 -0.2191 -0.0206 -0.1438
  167loPI    C3 2659   6.252   9.404  10.488  0.0084 -0.1437  0.1012
  167loPI   PO4 2660   6.516   9.633   9.973 -0.0003  0.2644  0.0876
  167loPI   GL1 2661   6.609   9.503   9.539 -0.1559 -0.0678  0.0015
  167loPI   GL2 2662   6.386   9.234   9.663 -0.1711  0.3501  0.1291
  167loPI   C1A 2663   6.588   9.510   9.084 -0.3705 -0.0915  0.0951
  167loPI   C2A 2664   6.586   9.427   8.582 -0.1572 -0.2852  0.0183
  167loPI   C3A 2665   6.608   9.313   8.133  0.2680 -0.1452 -0.1783
  167loPI   C4A 2666   7.000   9.068   7.870 -0.1220  0.0830 -0.0159
  167loPI   C5A 2667   6.899   9.091   7.460  0.4505  0.0068 -0.1353
  167loPI   C6A 2668   6.869   9.017   7.008  0.1419  0.0574 -0.1057
  167loPI   C1B 2669   6.509   9.041   9.197  0.1214  0.1532  0.2014
  167loPI   C2B 2670   6.666   9.072   8.927 -0.4151  0.2420 -0.1039
  167loPI   C3B 2671   6.544   8.961   8.471 -0.0947 -0.0339 -0.1759
  167loPI   C4B 2672   6.552   8.811   8.065 -0.2290  0.2621 -0.3775
  168loPI    C1 2673  18.470  10.773   9.682 -0.0939 -0.0059  0.0182
  168loPI    C2 2674  18.713  10.502   9.847  0.0078  0.0067 -0.1100
  168loPI    C3 2675  18.412  10.656  10.060  0.0196 -0.1215  0.0005
  168loPI   PO4 2676  18.461  10.880   9.425 -0.1307  0.2071 -0.0185
  168loPI   GL1 2677  18.367  10.905   9.033  0.1420 -0.0471  0.1580
  168loPI   GL2 2678  18.579  10.647   8.963  0.0876  0.1497 -0.0376
  168loPI   C1A 2679  18.339  10.988   8.635 -0.2566  0.2559 -0.0053
  168loPI   C2A 2680  18.301  10.993   8.176 -0.0246  0.2055 -0.4534
  168loPI   C3A 2681  18.304  11.007   7.787 -0.3589 -0.3229  0.2733
  168loPI   C4A 2682  18.118  10.901   7.425  0.1344  0.2511 -0.2418
  168loPI   C5A 2683  17.936  11.010   7.144 -0.1451  0.1519 -0.0646
  168loPI   C6A 2684  17.757  11.398   7.170  0.2293 -0.0156  0.4493
  168loPI   C1B 2685  18.617  10.527   8.595 -0.2874 -0.2138  0.2634
  168loPI   C2B 2686  18.661  10.682   8.149 -0.1697  0.3158 -0.3296
  168loPI   C3B 2687  18.796  10.780   7.766  0.2426  0.0354  0.0853
  168loPI   C4B 2688  18.702  10.951   7.359 -0.2356  0.0577  0.1564
  169loPI    C1 2689   0.280   3.123   9.982  0.0052  0.2681  0.2806
  169loPI    C2 2690  -0.084   3.273   9.907  0.0330  0.2562  0.1183
  169loPI    C3 2691   0.003   3.131  10.271 -0.1029  0.3209  0.1767
  169loPI   PO4 2692   0.295   3.296   9.574  0.2391  0.2221  0.1579
  169loPI   GL1 2693   0.049   3.569   9.432  0.0152 -0.1954  0.0596
  169loPI   GL2 2694   0.258   3.847   9.400 -0.2491  0.1422  0.1949
  169loPI   C1A 2695   0.131   3.426   8.986  0.2533 -0.0984  0.3010
  169loPI   C2A 2696  -0.027   3.312   8.495  0.3299 -0.5018 -0.0157
  169loPI   C3A 2697   0.015   3.226   8.098  0.1851  0.0189  0.0757
  169loPI   C4A 2698  -0.120   3.299   7.594  0.2250 -0.0233  0.2138
  169loPI   C5A 2699  -0.312   3.148   7.175  0.1683 -0.2323 -0.1456
  169loPI   C6A 2700  -0.497   3.113   6.930  0.0001 -0.2064 -0.0871
  169loPI   C1B 2701   0.504   3.787   9.048  0.0083  0.1892  0.0628
  169loPI   C2B 2702   0.410   3.697   8.599  0.2239 -0.1427  0.1812
  169loPI   C3B 2703   0.094   3.804   8.282 -0.0237 -0.2076 -0.2860
  169loPI   C4B 2704  -0.104   3.660   7.951 -0.1593 -0.4466 -0.1080
  170loPI    C1 2705  15.636  13.192   9.365  0.3870  0.1916  0.2259
  170loPI    C2 2706  15.365  13.394   9.580  0.0913  0.0596 -0.0151
  170loPI    C3 2707  15.531  13.563   9.257  0.2545  0.1179  0.0978
  170loPI   PO4 2708  15.533  12.979   9.358  0.2672  0.5810  0.0185
  170loPI   GL1 2709  15.408  12.787   8.933  0.2117  0.0554 -0.1053
  170loPI   GL2 2710  15.720  12.996   8.942 -0.0380 -0.0085  0.3413
  170loPI   C1A 2711  15.622  12.778   8.512  0.2447 -0.1264 -0.0970
  170loPI   C2A 2712  15.614  12.942   8.018  0.0757  0.0206 -0.1081
  170loPI   C3A 2713  15.785  12.875   7.674  0.2168  0.1532 -0.0834
  170loPI   C4A 2714  15.677  13.162   7.382  0.2530 -0.0845 -0.0529
  170loPI   C5A 2715  15.570  13.260   6.949  0.2942  0.2128 -0.2508
  170loPI   C6A 2716  15.084  13.191   6.687 -0.1005 -0.2158 -0.0692
  170loPI   C1B 2717  15.562  13.224   8.690  0.2535  0.2444  0.1014
  170loPI   C2B 2718  15.577  13.399   8.357 -0.0321  0.1280 -0.0370
  170loPI   C3B 2719  15.480  13.391   7.981 -0.0505 -0.1667  0.0540
  170loPI   C4B 2720  15.256  13.118   7.791 -0.2798 -0.0716 -0.2242
  171loPI    C1 2721  12.497  15.643   9.889  0.1652 -0.1166  0.0959
  171loPI    C2 2722  12.233  15.342   9.876  0.0454 -0.0054 -0.1049
  171loPI    C3 2723  12.332  15.508  10.227 -0.3917  0.1600 -0.0536
  171loPI   PO4 2724  12.440  15.742   9.600  0.1288  0.0012  0.1750
  171loPI   GL1 2725  12.450  16.122   9.261 -0.0910  0.1411 -0.0547
  171loPI   GL2 2726  12.081  16.052   9.272  0.1588  0.1775 -0.1353
  171loPI   C1A 2727  12.403  16.174   8.932 -0.2511 -0.0769 -0.2776
  171loPI   C2A 2728  12.471  16.226   8.553 -0.2823  0.0998  0.0460
  171loPI   C3A 2729  12.527  16.194   8.209  0.0956  0.0502 -0.0598
  171loPI   C4A 2730  12.488  16.110   7.819  0.1822 -0.2127 -0.1398
  171loPI   C5A 2731  12.662  16.055   7.401  0.0674  0.4301 -0.3584
  171loPI   C6A 2732  12.589  15.776   7.087  0.1499 -0.2333 -0.1862
  171loPI   C1B 2733  12.056  15.917   8.755  0.0917 -0.1270  0.1479
  171loPI   C2B 2734  12.119  15.955   8.276 -0.3880 -0.0308 -0.0054
  171loPI   C3B 2735  12.003  16.126   7.838 -0.0323  0.0602 -0.0793
  171loPI   C4B 2736  12.150  16.137   7.415  0.3497  0.0741 -0.1220
  172loPI    C1 2737  10.192  12.066  10.381  0.2642 -0.0593 -0.1693
  172loPI    C2 2738  10.352  11.734  10.537 -0.0585 -0.0539  0.1889
  172loPI    C3 2739   9.980  11.727  10.390 -0.1677  0.2088  0.4433
  172loPI   PO4 2740  10.450  12.140  10.207 -0.1514 -0.0515 -0.1321
  172loPI   GL1 2741  10.600  12.212   9.707  0.2449  0.0647  0.3277
  172loPI   GL2 2742  10.282  12.212   9.682 -0.3549 -0.3771 -0.1766
  172loPI   C1A 2743  10.824  12.108   9.376 -0.0874  0.0909 -0.0212
  172loPI   C2A 2744  10.999  12.247   9.064 -0.4071 -0.2462 -0.1855
  172loPI   C3A 2745  10.933  12.265   8.576  0.1831 -0.1303 -0.0731
  172loPI   C4A 2746  10.806  12.071   8.142  0.2225 -0.0561  0.1595
  172loPI   C5A 2747  10.425  11.859   7.824  0.2502 -0.0436 -0.0774
  172loPI   C6A 2748  10.503  11.632   7.334 -0.2744  0.1865 -0.0414
  172loPI   C1B 2749  10.289  12.154   9.275 -0.0072  0.5731  0.0869
  172loPI   C2B 2750  10.254  12.048   8.934  0.2778  0.2840  0.1784
  172loPI   C3B 2751  10.510  11.930   8.615 -0.2497  0.1348  0.1938
  172loPI   C4B 2752  10.631  11.551   8.253 -0.0293  0.2236  0.0070
  173loPI    C1 2753  15.202  11.701   9.653 -0.0299  0.0192 -0.0989
  173loPI    C2 2754  15.040  11.348   9.748 -0.1272  0.0478 -0.1571
  173loPI    C3 2755  15.325  11.505   9.979 -0.2060  0.0126 -0.0349
  173loPI   PO4 2756  15.338  11.621   9.382 -0.3184  0.1304 -0.0793
  173loPI   GL1 2757  15.334  11.580   8.910 -0.5300 -0.0289 -0.2164
  173loPI   GL2 2758  15.316  11.298   8.752 -0.0845  0.2198 -0.0456
  173loPI   C1A 2759  15.141  11.726   8.712  0.2663  0.1564  0.0812
  173loPI   C2A 2760  15.048  11.984   8.368  0.2902  0.1483 -0.0609
  173loPI   C3A 2761  15.151  12.037   7.959  0.0357 -0.2045 -0.1981
  173loPI   C4A 2762  15.315  12.171   7.677 -0.2585  0.0259  0.1527
  173loPI   C5A 2763  15.476  11.904   7.316  0.1211  0.0171  0.1059
  173loPI   C6A 2764  15.767  12.159   7.016 -0.0357  0.0808  0.0252
  173loPI   C1B 2765  15.346  11.432   8.336  0.0563 -0.0595  0.1905
  173loPI   C2B 2766  15.161  11.519   7.958  0.0704  0.2620  0.3639
  173loPI   C3B 2767  15.091  11.703   7.540  0.2601 -0.1776  0.1017
  173loPI   C4B 2768  14.873  11.931   7.323 -0.1044 -0.0098  0.3733
  174loPI    C1 2769  15.905   7.937   9.671 -0.1728 -0.1980  0.1258
  174loPI    C2 2770  16.187   8.014   9.945  0.0145 -0.0452 -0.1060
  174loPI    C3 2771  15.885   7.767  10.033  0.1150 -0.0600  0.2099
  174loPI   PO4 2772  15.880   8.221   9.528 -0.0910  0.4712 -0.0618
  174loPI   GL1 2773  15.934   8.205   9.148 -0.1765  0.3713  0.2515
  174loPI   GL2 2774  15.880   8.574   9.240  0.1994  0.0382 -0.5529
  174loPI   C1A 2775  15.834   8.070   8.841 -0.0416 -0.3049 -0.1404
  174loPI   C2A 2776  15.836   8.101   8.393  0.0583  0.1364  0.2269
  174loPI   C3A 2777  15.887   8.104   7.989 -0.1151 -0.2471  0.1462
  174loPI   C4A 2778  15.916   8.089   7.651 -0.0513  0.4855  0.2647
  174loPI   C5A 2779  15.578   8.160   7.335 -0.0158  0.0535  0.1790
  174loPI   C6A 2780  15.628   8.235   6.950 -0.2579  0.0278  0.1310
  174loPI   C1B 2781  16.132   8.547   8.877 -0.0811  0.1397  0.0951
  174loPI   C2B 2782  16.157   8.514   8.378 -0.3423  0.3631 -0.0206
  174loPI   C3B 2783  16.109   8.863   8.091  0.0503 -0.1457  0.1220
  174loPI   C4B 2784  15.914   9.023   7.761 -0.0369  0.1244 -0.1243
  175loPI    C1 2785  18.371  11.869   9.868  0.0118 -0.0567 -0.0873
  175loPI    C2 2786  18.233  11.682  10.193  0.0690 -0.0783 -0.0753
  175loPI    C3 2787  18.123  12.059  10.117  0.4771  0.1166  0.2578
  175loPI   PO4 2788  18.435  11.751   9.676 -0.2614  0.0895  0.1968
  175loPI   GL1 2789  18.615  11.716   9.288  0.2258 -0.1375 -0.3258
  175loPI   GL2 2790  18.811  12.021   9.141  0.0751 -0.1762  0.0757
  175loPI   C1A 2791  18.843  11.589   8.871 -0.2952  0.1308  0.1924
  175loPI   C2A 2792  18.931  11.805   8.481  0.1919 -0.0977  0.1336
  175loPI   C3A 2793  18.809  11.763   8.047 -0.0271  0.3197 -0.0677
  175loPI   C4A 2794  18.803  11.907   7.625  0.1153 -0.0035  0.0257
  175loPI   C5A 2795  18.658  11.946   7.252 -0.2042 -0.0817 -0.0625
  175loPI   C6A 2796  18.534  11.781   6.838  0.0327 -0.0680 -0.2214
  175loPI   C1B 2797  18.547  11.964   8.741  0.1903  0.0856  0.0959
  175loPI   C2B 2798  18.411  12.120   8.556  0.3070  0.2707  0.0427
  175loPI   C3B 2799  18.304  12.013   8.181  0.1048 -0.1714 -0.0498
  175loPI   C4B 2800  18.375  12.102   7.809  0.1580  0.0512 -0.2014
  176loPI    C1 2801   7.335   3.370  10.254  0.0672  0.0004 -0.0305
  176loPI    C2 2802   7.672   3.164  10.318  0.2426  0.1803 -0.3527
  176loPI    C3 2803   7.585   3.482  10.545  0.0201 -0.1800  0.0807
  176loPI   PO4 2804   7.393   3.488  10.028  0.0655  0.1502 -0.1473
  176loPI   GL1 2805   7.549   3.530   9.598  0.1101 -0.1294 -0.0816
  176loPI   GL2 2806   7.787   3.645   9.755 -0.1051 -0.3568  0.1309
  176loPI   C1A 2807   7.562   3.475   9.089 -0.1601 -0.2730 -0.1561
  176loPI   C2A 2808   7.577   3.587   8.693  0.3239  0.1039  0.2883
  176loPI   C3A 2809   7.724   3.469   8.498  0.1701  0.0704  0.2623
  176loPI   C4A 2810   7.800   3.513   8.058  0.2455 -0.1453 -0.2886
  176loPI   C5A 2811   7.905   3.522   7.614  0.2602  0.4578 -0.1487
  176loPI   C6A 2812   7.664   3.478   7.224  0.5217 -0.0786 -0.1728
  176loPI   C1B 2813   7.996   3.415   9.332 -0.1781 -0.1499  0.0122
  176loPI   C2B 2814   8.011   3.427   8.918 -0.1338  0.0380 -0.1478
  176loPI   C3B 2815   8.180   3.582   8.487 -0.0432  0.0211  0.0915
  176loPI   C4B 2816   8.231   3.681   8.052  0.0897 -0.0599 -0.1530
  177loPI    C1 2817   3.882  15.684   9.948  0.3949 -0.2288  0.0909
  177loPI    C2 2818   3.862  15.961  10.236  0.0149 -0.0504 -0.1009
  177loPI    C3 2819   4.092  15.638  10.285  0.1057  0.0730  0.3187
  177loPI   PO4 2820   3.864  15.765   9.636  0.2487  0.1596  0.1195
  177loPI   GL1 2821   3.697  15.998   9.384 -0.0542  0.0415 -0.0862
  177loPI   GL2 2822   3.472  16.173   9.315 -0.2441  0.0068 -0.2171
  177loPI   C1A 2823   3.854  16.020   8.953 -0.1286 -0.3325 -0.0459
  177loPI   C2A 2824   4.163  16.123   8.531 -0.2081 -0.1801 -0.1334
  177loPI   C3A 2825   4.040  16.129   8.070 -0.3920  0.3836 -0.0949
  177loPI   C4A 2826   4.056  16.109   7.572 -0.0843  0.1009 -0.1508
  177loPI   C5A 2827   4.241  15.834   7.272  0.1890 -0.0973 -0.1548
  177loPI   C6A 2828   4.318  15.503   7.344 -0.1296  0.1159 -0.0572
  177loPI   C1B 2829   3.384  16.237   8.900  0.1122 -0.2649  0.1873
  177loPI   C2B 2830   3.272  16.237   8.512 -0.1638 -0.2046 -0.0198
  177loPI   C3B 2831   3.128  16.298   8.166  0.1059 -0.1208  0.3138
  177loPI   C4B 2832   3.176  16.344   7.802  0.4715  0.0507 -0.1256
  178loPI    C1 2833  13.291   9.917   9.630  0.1284 -0.0606 -0.1529
  178loPI    C2 2834  13.156  10.270   9.497 -0.0064 -0.0530 -0.0004
  178loPI    C3 2835  13.550  10.199   9.514  0.0197  0.0690 -0.0842
  178loPI   PO4 2836  13.187   9.761   9.494 -0.3130  0.1120  0.0123
  178loPI   GL1 2837  13.139   9.463   9.248  0.1758 -0.0637 -0.5609
  178loPI   GL2 2838  12.839   9.313   9.046 -0.0395  0.2492 -0.1515
  178loPI   C1A 2839  13.182   9.707   8.831 -0.0187  0.2722 -0.0319
  178loPI   C2A 2840  13.042   9.813   8.450 -0.0255  0.3243 -0.1462
  178loPI   C3A 2841  12.947   9.927   8.075 -0.0903  0.0691  0.0617
  178loPI   C4A 2842  12.869  10.283   7.813  0.2331 -0.0519 -0.1023
  178loPI   C5A 2843  12.612  10.292   7.458 -0.0368  0.0597 -0.1610
  178loPI   C6A 2844  12.507   9.898   7.515  0.0090  0.2772  0.1632
  178loPI   C1B 2845  12.788   9.440   8.616 -0.1058 -0.2247 -0.0448
  178loPI   C2B 2846  12.819   9.457   8.163  0.0559 -0.0490  0.0706
  178loPI   C3B 2847  12.780   9.479   7.810  0.2836  0.0576  0.2923
  178loPI   C4B 2848  12.413   9.422   7.595  0.0704 -0.2352 -0.1037
  179loPI    C1 2849  16.610   5.174   9.938  0.0027  0.0118  0.0377
  179loPI    C2 2850  16.800   5.421  10.189  0.1490  0.1109 -0.1680
  179loPI    C3 2851  16.802   5.027  10.257  0.0411  0.1514  0.0796
  179loPI   PO4 2852  16.738   5.230   9.738 -0.1531  0.0426  0.0984
  179loPI   GL1 2853  16.900   5.146   9.371 -0.0135 -0.0927  0.2660
  179loPI   GL2 2854  17.158   4.932   9.392  0.3059  0.0484 -0.2332
  179loPI   C1A 2855  16.799   5.167   8.951 -0.0136 -0.2782  0.0884
  179loPI   C2A 2856  16.656   5.355   8.655 -0.4523 -0.2567 -0.0228
  179loPI   C3A 2857  16.330   5.268   8.385  0.3244  0.2935  0.0388
  179loPI   C4A 2858  16.333   5.147   7.937 -0.0987  0.3451 -0.2657
  179loPI   C5A 2859  16.700   5.111   7.678 -0.1988  0.1352  0.3406
  179loPI   C6A 2860  17.122   4.973   7.794 -0.0242 -0.2820  0.0901
  179loPI   C1B 2861  17.166   4.854   8.945 -0.0188  0.0123 -0.2823
  179loPI   C2B 2862  17.217   5.116   8.654 -0.0667  0.3208  0.1425
  179loPI   C3B 2863  17.383   5.328   8.290  0.1245 -0.2647  0.0536
  179loPI   C4B 2864  17.348   5.474   7.922  0.1642 -0.5531 -0.3210
  180loPI    C1 2865  16.583   9.852   9.561 -0.2679 -0.1022  0.0344
  180loPI    C2 2866  16.680   9.708   9.921  0.1809  0.1885  0.0395
  180loPI    C3 2867  16.756  10.090   9.832  0.0843  0.1176 -0.3699
  180loPI   PO4 2868  16.650   9.779   9.419  0.1324  0.0859 -0.2128
  180loPI   GL1 2869  16.637   9.462   9.118 -0.3906 -0.0163  0.1307
  180loPI   GL2 2870  17.058   9.466   9.218  0.0544 -0.5085 -0.1028
  180loPI   C1A 2871  16.665   9.432   8.647  0.0289 -0.2341 -0.0510
  180loPI   C2A 2872  16.766   9.673   8.350 -0.3656  0.4100 -0.4047
  180loPI   C3A 2873  16.627   9.823   7.945 -0.5437  0.1866 -0.1905
  180loPI   C4A 2874  16.659   9.838   7.528  0.1203 -0.2623  0.1295
  180loPI   C5A 2875  16.838   9.670   7.136 -0.0751  0.3214  0.0438
  180loPI   C6A 2876  16.765   9.429   6.866  0.1738  0.3655  0.3312
  180loPI   C1B 2877  17.216   9.502   8.784  0.0161  0.0593 -0.2121
  180loPI   C2B 2878  17.216   9.546   8.391 -0.1531  0.0564  0.4465
  180loPI   C3B 2879  17.049   9.490   7.954  0.2123 -0.2242 -0.0420
  180loPI   C4B 2880  16.706   9.400   7.650 -0.0540  0.1589  0.1817
  181loPI    C1 2881  10.575  13.307  10.183 -0.2475 -0.0179  0.0931
  181loPI    C2 2882  10.822  12.993  10.183 -0.0406  0.1417  0.1967
  181loPI    C3 2883  10.470  12.971  10.372 -0.2125 -0.1655 -0.1462
  181loPI   PO4 2884  10.470  13.317   9.846 -0.0503 -0.1649  0.2801
  181loPI   GL1 2885  10.583  13.170   9.474  0.5140  0.1174 -0.0336
  181loPI   GL2 2886  10.143  13.153   9.412  0.0575  0.1755  0.0750
  181loPI   C1A 2887  10.660  13.178   9.000  0.0040 -0.2117  0.1808
  181loPI   C2A 2888  10.644  13.122   8.574  0.0810  0.3497 -0.0294
  181loPI   C3A 2889  10.478  12.917   8.210 -0.1306 -0.0802  0.0321
  181loPI   C4A 2890  10.405  12.845   7.746 -0.0045 -0.2058 -0.1926
  181loPI   C5A 2891  10.551  12.732   7.340  0.0280  0.0880 -0.0288
  181loPI   C6A 2892  10.577  12.500   7.001 -0.3056  0.0669  0.0027
  181loPI   C1B 2893  10.233  12.897   9.087 -0.1111  0.0226  0.0341
  181loPI   C2B 2894  10.180  12.786   8.639 -0.0744 -0.0586 -0.0001
  181loPI   C3B 2895   9.978  12.740   8.180  0.0119 -0.0526 -0.2481
  181loPI   C4B 2896   9.887  12.678   7.766  0.0975 -0.1122  0.1537
  182loPI    C1 2897  14.658   0.682  10.249 -0.2072 -0.0846 -0.0429
  182loPI    C2 2898  14.467   0.943  10.483  0.1945  0.3619 -0.1977
  182loPI    C3 2899  14.807   0.773  10.608 -0.0087 -0.0134 -0.1415
  182loPI   PO4 2900  14.592   0.802   9.988  0.1566 -0.0093 -0.2438
  182loPI   GL1 2901  14.564   0.614   9.525  0.0095  0.1261 -0.3122
  182loPI   GL2 2902  14.193   0.755   9.500  0.2866  0.1195 -0.2033
  182loPI   C1A 2903  14.577   0.652   9.049  0.0068  0.1607  0.2023
  182loPI   C2A 2904  14.592   0.646   8.589 -0.0143  0.0412 -0.2836
  182loPI   C3A 2905  14.691   0.581   8.052  0.0114  0.0186 -0.1148
  182loPI   C4A 2906  14.854   0.563   7.576  0.3310  0.1009 -0.0277
  182loPI   C5A 2907  14.944   0.160   7.242 -0.2364  0.1300  0.3021
  182loPI   C6A 2908  14.752   0.113   6.786 -0.1088  0.0361 -0.0559
  182loPI   C1B 2909  14.089   0.731   9.053  0.0896 -0.0721 -0.1103
  182loPI   C2B 2910  14.125   0.878   8.517 -0.1968 -0.0670  0.4228
  182loPI   C3B 2911  14.251   0.956   8.145  0.5916 -0.0488 -0.1218
  182loPI   C4B 2912  14.327   0.738   7.721  0.0362  0.3361 -0.2978
  183loPI    C1 2913   1.210  14.313   9.850  0.2108 -0.2762  0.1346
  183loPI    C2 2914   1.066  14.057  10.122 -0.2202  0.0748  0.2485
  183loPI    C3 2915   0.893  14.414  10.072 -0.0019  0.1101 -0.3283
  183loPI   PO4 2916   1.307  14.116   9.644  0.0782 -0.2141 -0.0921
  183loPI   GL1 2917   1.183  13.927   9.130  0.1346  0.5477 -0.0163
  183loPI   GL2 2918   1.127  14.174   9.226  0.2583 -0.2573  0.0686
  183loPI   C1A 2919   1.111  13.788   8.737  0.1445  0.2216  0.1964
  183loPI   C2A 2920   0.907  13.713   8.421  0.1360 -0.4239  0.0998
  183loPI   C3A 2921   0.723  13.583   8.123  0.0206  0.2223  0.1592
  183loPI   C4A 2922   0.732  13.601   7.703 -0.0958  0.1027  0.1211
  183loPI   C5A 2923   0.592  13.373   7.338 -0.2070  0.1281 -0.1971
  183loPI   C6A 2924   0.275  13.414   7.168 -0.1511 -0.0843  0.2308
  183loPI   C1B 2925   0.810  14.227   8.971  0.0666  0.0350  0.1382
  183loPI   C2B 2926   0.721  14.153   8.548  0.1788  0.1719 -0.1625
  183loPI   C3B 2927   0.878  14.076   8.112  0.2960 -0.2457 -0.2370
  183loPI   C4B 2928   0.886  14.098   7.657  0.2744 -0.2893 -0.0437
  184loPI    C1 2929  14.837   9.906   9.529  0.0284 -0.0005 -0.1858
  184loPI    C2 2930  14.482   9.722   9.504 -0.2010  0.3991  0.0240
  184loPI    C3 2931  14.580   9.923   9.836  0.3962 -0.0432  0.1313
  184loPI   PO4 2932  14.864  10.043   9.266  0.6849  0.3169  0.1640
  184loPI   GL1 2933  14.671   9.995   8.968  0.0657  0.0646  0.2137
  184loPI   GL2 2934  14.447  10.025   9.028  0.1049  0.0111  0.2270
  184loPI   C1A 2935  14.744  10.022   8.569 -0.0846 -0.0528  0.0885
  184loPI   C2A 2936  14.613  10.111   8.156 -0.2189 -0.1007  0.0441
  184loPI   C3A 2937  14.450  10.108   7.855  0.0038 -0.1125  0.0204
  184loPI   C4A 2938  14.129   9.810   7.609 -0.0641  0.2154 -0.1718
  184loPI   C5A 2939  13.773   9.840   7.358  0.1285 -0.0258  0.1159
  184loPI   C6A 2940  13.389   9.931   7.230 -0.0345 -0.0633  0.0780
  184loPI   C1B 2941  14.187  10.237   8.660 -0.0403 -0.2151 -0.2820
  184loPI   C2B 2942  14.179  10.360   8.345 -0.2251 -0.0973  0.1321
  184loPI   C3B 2943  14.139  10.552   7.961 -0.1593 -0.0641 -0.0096
  184loPI   C4B 2944  14.542  10.650   7.942 -0.2475  0.3727  0.0789
  185loPI    C1 2945  11.034  17.048   9.817  0.2724  0.1032  0.0736
  185loPI    C2 2946  10.703  17.266   9.872  0.1931  0.0744 -0.2654
  185loPI    C3 2947  10.870  17.074  10.181 -0.0108  0.2230 -0.0593
  185loPI   PO4 2948  11.008  16.956   9.638 -0.3131 -0.0742 -0.5628
  185loPI   GL1 2949  11.200  16.954   9.310 -0.0968  0.0178 -0.2281
  185loPI   GL2 2950  10.987  17.137   9.158 -0.1616  0.0541  0.0180
  185loPI   C1A 2951  11.169  16.562   9.038  0.2003  0.0189  0.2809
  185loPI   C2A 2952  11.118  16.393   8.701 -0.0800 -0.3249 -0.0046
  185loPI   C3A 2953  11.070  16.396   8.304  0.0052 -0.0131 -0.0282
  185loPI   C4A 2954  10.907  16.235   7.948  0.0731 -0.1111 -0.3982
  185loPI   C5A 2955  10.545  16.426   7.730  0.3019  0.2891 -0.2540
  185loPI   C6A 2956  10.255  16.534   7.413  0.0036 -0.0309  0.1634
  185loPI   C1B 2957  11.091  17.063   8.794 -0.1394  0.3624  0.2074
  185loPI   C2B 2958  11.192  16.884   8.427  0.6804 -0.0118  0.2495
  185loPI   C3B 2959  11.236  16.741   7.925 -0.1670  0.3393 -0.2927
  185loPI   C4B 2960  11.227  16.593   7.558 -0.1423 -0.1161  0.0596
  186loPI    C1 2961  17.036  11.173   9.551  0.0482 -0.2698 -0.0373
  186loPI    C2 2962  17.174  11.549   9.561  0.0864 -0.2765 -0.2597
  186loPI    C3 2963  17.207  11.315   9.884 -0.3763  0.0637  0.0472
  186loPI   PO4 2964  17.022  11.113   9.376  0.0337  0.4551 -0.2065
  186loPI   GL1 2965  17.005  11.191   9.038 -0.0137  0.0758 -0.2875
  186loPI   GL2 2966  16.749  11.009   8.934  0.3033  0.0803 -0.2958
  186loPI   C1A 2967  16.929  11.393   8.740 -0.1188 -0.0192  0.3015
  186loPI   C2A 2968  16.848  11.407   8.278 -0.0796  0.0835 -0.0874
  186loPI   C3A 2969  16.934  11.285   7.876 -0.0724 -0.2981 -0.0620
  186loPI   C4A 2970  16.929  11.508   7.386  0.1173  0.1395  0.0203
  186loPI   C5A 2971  17.208  11.493   7.077  0.0375 -0.1039  0.1064
  186loPI   C6A 2972  17.569  11.628   6.766 -0.0109 -0.1322  0.0364
  186loPI   C1B 2973  16.746  10.962   8.545 -0.1602 -0.0654  0.2705
  186loPI   C2B 2974  16.782  10.814   8.066  0.0320  0.0035  0.2709
  186loPI   C3B 2975  16.823  10.859   7.650  0.2093 -0.3071 -0.0337
  186loPI   C4B 2976  17.080  11.012   7.358  0.2397  0.2609 -0.2772
  187loPI    C1 2977  18.302  16.250   9.950  0.2354 -0.0569  0.0130
  187loPI    C2 2978  18.462  16.135  10.298 -0.0522 -0.1869  0.1060
  187loPI    C3 2979  18.079  16.249  10.283  0.0141  0.0116 -0.1325
  187loPI   PO4 2980  18.446  16.397   9.834 -0.0965  0.1477 -0.2820
  187loPI   GL1 2981  18.362  16.735   9.537 -0.2151 -0.2220 -0.2912
  187loPI   GL2 2982  18.046  16.548   9.539 -0.1230 -0.1446 -0.0458
  187loPI   C1A 2983  18.485  16.714   9.130  0.0119  0.0162  0.3344
  187loPI   C2A 2984  18.542  16.633   8.712  0.0501 -0.3145 -0.4229
  187loPI   C3A 2985  18.528  16.625   8.330 -0.0706  0.2663 -0.1314
  187loPI   C4A 2986  18.601  16.669   7.869  0.0338  0.1804 -0.1416
  187loPI   C5A 2987  18.983  16.608   7.644  0.0227 -0.1594  0.1063
  187loPI   C6A 2988  19.407  16.622   7.472 -0.0665  0.1555 -0.1594
  187loPI   C1B 2989  18.121  16.382   9.070  0.2027  0.1506  0.2439
  187loPI   C2B 2990  18.124  16.429   8.666 -0.0836 -0.3315  0.0183
  187loPI   C3B 2991  18.059  16.546   8.261  0.0584 -0.1669  0.0519
  187loPI   C4B 2992  18.011  16.565   7.876 -0.0895  0.2783 -0.1008
  188loPI    C1 2993   0.423  14.557   9.832 -0.3715  0.5328 -0.3320
  188loPI    C2 2994   0.142  14.573  10.116  0.1165  0.0239  0.2040
  188loPI    C3 2995   0.486  14.772  10.163  0.2875 -0.2347  0.0761
  188loPI   PO4 2996   0.285  14.364   9.664  0.2889 -0.1297  0.0457
  188loPI   GL1 2997   0.350  14.372   9.283  0.1933  0.1399  0.0818
  188loPI   GL2 2998   0.209  14.002   9.173 -0.2857 -0.0284  0.4347
  188loPI   C1A 2999   0.436  14.608   8.960 -0.0128 -0.0971 -0.1703
  188loPI   C2A 3000   0.423  14.640   8.459 -0.1176  0.3326 -0.2155
  188loPI   C3A 3001   0.481  14.484   8.010 -0.2135 -0.1567  0.1232
  188loPI   C4A 3002   0.524  14.471   7.579  0.0005 -0.0315 -0.0607
  188loPI   C5A 3003   0.529  14.674   7.162 -0.1338 -0.0551 -0.0688
  188loPI   C6A 3004   0.380  14.629   6.824 -0.2725 -0.0774  0.0169
  188loPI   C1B 3005   0.260  14.095   8.752 -0.6729 -0.2103  0.0618
  188loPI   C2B 3006   0.357  14.089   8.261  0.0075 -0.0637  0.0800
  188loPI   C3B 3007   0.390  13.972   7.889 -0.0210 -0.0250 -0.1386
  188loPI   C4B 3008   0.497  13.913   7.453  0.2847 -0.0547 -0.1368
  189loPI    C1 3009   4.469  18.744   9.761 -0.0858  0.2573  0.4687
  189loPI    C2 3010   4.496  18.376   9.917 -0.0512  0.0501 -0.0067
  189loPI    C3 3011   4.510  18.697  10.156  0.0273 -0.2513  0.4041
  189loPI   PO4 3012   4.568  18.703   9.474 -0.1919 -0.1776 -0.2195
  189loPI   GL1 3013   4.441  19.029   9.128  0.3076 -0.0648  0.0520
  189loPI   GL2 3014   4.724  19.033   9.123  0.1906  0.3278  0.1490
  189loPI   C1A 3015   4.474  18.757   8.804 -0.0690  0.0772  0.0640
  189loPI   C2A 3016   4.537  18.681   8.395 -0.0439 -0.4370  0.1654
  189loPI   C3A 3017   4.710  18.712   7.962  0.0819 -0.2231 -0.3534
  189loPI   C4A 3018   4.860  18.455   7.585 -0.1806 -0.3878 -0.0871
  189loPI   C5A 3019   4.988  18.653   7.291  0.2912 -0.0642 -0.0011
  189loPI   C6A 3020   5.252  18.989   7.222 -0.0441 -0.2643  0.3469
  189loPI   C1B 3021   5.016  18.776   8.799 -0.0810 -0.2912  0.2695
  189loPI   C2B 3022   5.049  18.513   8.469 -0.0581 -0.1884  0.1197
  189loPI   C3B 3023   5.136  18.331   8.001  0.1709 -0.1798  0.1437
  189loPI   C4B 3024   5.371  18.011   7.923 -0.0313 -0.2494 -0.1067
  190loPI    C1 3025  17.557   7.738   9.447 -0.1383 -0.0216 -0.0832
  190loPI    C2 3026  17.437   7.569   9.790  0.2998 -0.1043  0.0352
  190loPI    C3 3027  17.650   7.908   9.797  0.0473  0.0629 -0.1723
  190loPI   PO4 3028  17.600   7.483   9.277 -0.2334 -0.1706 -0.1042
  190loPI   GL1 3029  17.670   7.327   8.849 -0.0705 -0.2623  0.1494
  190loPI   GL2 3030  18.001   7.259   9.006 -0.2228  0.2446 -0.0068
  190loPI   C1A 3031  17.586   7.231   8.458  0.0944 -0.1585  0.1846
  190loPI   C2A 3032  17.425   6.958   8.019 -0.0775 -0.0695  0.2922
  190loPI   C3A 3033  17.260   6.979   7.674 -0.1259  0.0459  0.3790
  190loPI   C4A 3034  17.639   7.046   7.357 -0.1976  0.0907  0.3195
  190loPI   C5A 3035  17.824   7.234   7.008 -0.0400  0.0005 -0.1521
  190loPI   C6A 3036  18.159   7.399   6.909  0.2301  0.0367 -0.2515
  190loPI   C1B 3037  18.038   6.973   8.529 -0.0147  0.1700  0.0798
  190loPI   C2B 3038  17.965   6.814   8.199 -0.0906  0.1330  0.0765
  190loPI   C3B 3039  17.945   7.075   7.862  0.0129  0.0355 -0.1985
  190loPI   C4B 3040  17.866   7.417   8.070 -0.0673 -0.0629 -0.0449
  191loPI    C1 3041   2.400   1.073   9.940  0.0025 -0.1479 -0.0222
  191loPI    C2 3042   2.560   1.398  10.109 -0.2490  0.1441 -0.3310
  191loPI    C3 3043   2.223   1.242  10.257 -0.2314  0.1377 -0.2975
  191loPI   PO4 3044   2.440   1.141   9.652 -0.0110  0.0981 -0.1946
  191loPI   GL1 3045   2.440   1.371   9.212  0.3877 -0.0081  0.1688
  191loPI   GL2 3046   2.300   1.161   9.169 -0.3453 -0.1420  0.2653
  191loPI   C1A 3047   2.337   1.638   8.943 -0.1047 -0.2939  0.2301
  191loPI   C2A 3048   2.364   1.716   8.583 -0.2241  0.1808  0.0188
  191loPI   C3A 3049   2.351   1.799   8.085  0.2969 -0.3033 -0.3486
  191loPI   C4A 3050   2.449   1.535   7.763 -0.0178  0.2136  0.1610
  191loPI   C5A 3051   2.803   1.527   7.480 -0.1136  0.1029  0.0284
  191loPI   C6A 3052   3.070   1.583   7.126 -0.3119  0.0533  0.2239
  191loPI   C1B 3053   2.371   1.183   8.754  0.0589 -0.0469  0.5079
  191loPI   C2B 3054   2.515   1.309   8.342  0.0339  0.0386 -0.3133
  191loPI   C3B 3055   2.845   1.290   7.912  0.0757  0.0481  0.2244
  191loPI   C4B 3056   3.191   1.199   7.696  0.0070 -0.1911  0.2072
  192loPI    C1 3057   4.962  10.827  10.293 -0.2456  0.1909  0.0671
  192loPI    C2 3058   4.719  11.143  10.329 -0.0622  0.3049  0.3367
  192loPI    C3 3059   4.873  10.971  10.655 -0.2535 -0.1409  0.2005
  192loPI   PO4 3060   5.095  10.872  10.044  0.1140 -0.0969  0.1427
  192loPI   GL1 3061   4.933  11.074   9.649  0.4946 -0.0496  0.0599
  192loPI   GL2 3062   5.325  11.152   9.677  0.1272  0.0542  0.1630
  192loPI   C1A 3063   4.768  10.794   9.270  0.0479 -0.2066  0.1187
  192loPI   C2A 3064   4.801  10.722   8.834  0.3164  0.1419 -0.0692
  192loPI   C3A 3065   4.891  10.606   8.528  0.0348  0.1145  0.0550
  192loPI   C4A 3066   5.014  10.634   8.047 -0.1129 -0.0949 -0.0385
  192loPI   C5A 3067   5.047  10.399   7.660  0.0463 -0.0061  0.0902
  192loPI   C6A 3068   5.213  10.284   7.257 -0.1427  0.3085  0.0424
  192loPI   C1B 3069   5.658  11.020   9.341 -0.2638  0.3307  0.0414
  192loPI   C2B 3070   5.651  10.883   8.793  0.0344 -0.0040 -0.0030
  192loPI   C3B 3071   5.869  10.814   8.321 -0.0137 -0.0872 -0.0149
  192loPI   C4B 3072   6.126  10.621   8.067  0.0232  0.0593  0.4646
  193loPI    C1 3073   7.412  10.191  10.099  0.0135  0.2420  0.1778
  193loPI    C2 3074   7.763  10.026  10.198 -0.0008  0.1647  0.1011
  193loPI    C3 3075   7.465  10.037  10.464 -0.0872 -0.1732  0.0227
  193loPI   PO4 3076   7.452  10.163   9.798  0.0660 -0.1936  0.2294
  193loPI   GL1 3077   7.574   9.981   9.508  0.2622  0.1373  0.0600
  193loPI   GL2 3078   7.875   9.923   9.717  0.2101  0.0244 -0.0002
  193loPI   C1A 3079   7.669  10.178   9.169  0.1772  0.1270  0.3845
  193loPI   C2A 3080   8.062  10.170   8.751 -0.1315  0.0612 -0.3666
  193loPI   C3A 3081   7.942  10.164   8.283  0.0300  0.2008  0.2532
  193loPI   C4A 3082   8.043  10.171   7.789 -0.0274  0.0742  0.2069
  193loPI   C5A 3083   7.939   9.960   7.510 -0.0201  0.0256  0.8359
  193loPI   C6A 3084   7.665   9.795   7.317 -0.1757  0.1899  0.1058
  193loPI   C1B 3085   8.052   9.906   9.258  0.1570 -0.0417  0.0694
  193loPI   C2B 3086   7.962   9.600   8.962 -0.0401  0.1792  0.2424
  193loPI   C3B 3087   8.027   9.489   8.476  0.0937 -0.2107  0.0426
  193loPI   C4B 3088   8.176   9.733   8.090 -0.2809  0.0108 -0.0513
  194loPI    C1 3089   3.991  16.245   9.908 -0.1015 -0.0018 -0.1650
  194loPI    C2 3090   3.725  16.489  10.079 -0.1460 -0.0226 -0.2044
  194loPI    C3 3091   4.084  16.436  10.248 -0.1833 -0.0300 -0.1267
  194loPI   PO4 3092   4.023  16.297   9.686  0.2878  0.1400  0.0827
  194loPI   GL1 3093   3.951  16.383   9.294  0.0271 -0.2400  0.0032
  194loPI   GL2 3094   4.215  16.061   9.297  0.2761  0.2779  0.0635
  194loPI   C1A 3095   3.934  16.522   8.846 -0.0497 -0.2115  0.1688
  194loPI   C2A 3096   3.824  16.556   8.517 -0.1862  0.2255  0.2424
  194loPI   C3A 3097   3.723  16.494   8.096 -0.3614 -0.0393 -0.0960
  194loPI   C4A 3098   3.970  16.612   7.775  0.0232  0.2420 -0.1055
  194loPI   C5A 3099   4.092  16.948   7.447 -0.0769 -0.2143  0.0506
  194loPI   C6A 3100   3.950  17.344   7.454  0.0372  0.0571 -0.1790
  194loPI   C1B 3101   4.366  16.157   8.984 -0.2504 -0.1131  0.0883
  194loPI   C2B 3102   4.347  16.547   8.626 -0.2286 -0.0402 -0.0182
  194loPI   C3B 3103   4.253  16.519   8.213  0.0400  0.0631 -0.1680
  194loPI   C4B 3104   4.434  16.399   7.794  0.2055 -0.2874 -0.1327
  195loPI    C1 3105   2.713  14.555  10.026  0.0837 -0.1250 -0.1175
  195loPI    C2 3106   2.897  14.202   9.995 -0.1657 -0.2891  0.2030
  195loPI    C3 3107   3.028  14.473  10.259  0.0025 -0.1528 -0.0166
  195loPI   PO4 3108   2.726  14.688   9.734  0.0992  0.0177 -0.1279
  195loPI   GL1 3109   2.738  14.818   9.337  0.1765  0.0548  0.0824
  195loPI   GL2 3110   2.397  14.600   9.219 -0.0276 -0.0697 -0.1386
  195loPI   C1A 3111   2.616  15.061   8.984  0.4280 -0.0080  0.3909
  195loPI   C2A 3112   2.470  15.117   8.619 -0.1850 -0.0809  0.2256
  195loPI   C3A 3113   2.335  14.957   8.229  0.3376 -0.1117  0.1385
  195loPI   C4A 3114   2.184  15.151   7.803 -0.1124  0.1562 -0.0947
  195loPI   C5A 3115   1.969  15.023   7.471  0.3133 -0.0003 -0.3130
  195loPI   C6A 3116   1.577  14.705   7.305 -0.1044 -0.0679  0.1177
  195loPI   C1B 3117   2.415  14.537   8.627  0.2887 -0.0868 -0.1497
  195loPI   C2B 3118   2.265  14.444   8.202 -0.1146  0.2233 -0.0801
  195loPI   C3B 3119   2.295  14.123   7.828 -0.0810  0.0282 -0.0938
  195loPI   C4B 3120   2.223  13.819   7.438 -0.1930 -0.1006  0.3425
  196loPI    C1 3121  15.435  17.836   9.749  0.0744  0.2047  0.0762
  196loPI    C2 3122  15.260  17.782  10.104  0.2187 -0.1288  0.1011
  196loPI    C3 3123  15.362  17.466   9.882  0.0971  0.0773 -0.2561
  196loPI   PO4 3124  15.263  18.018   9.619 -0.0214  0.0688  0.0440
  196loPI   GL1 3125  15.113  18.273   9.338  0.0580  0.3818 -0.0135
  196loPI   GL2 3126  14.873  18.433   9.440 -0.0759  0.0880 -0.2070
  196loPI   C1A 3127  15.042  18.221   8.805  0.2465 -0.0096 -0.0429
  196loPI   C2A 3128  15.041  18.344   8.398  0.1947 -0.2216  0.2250
  196loPI   C3A 3129  14.950  18.447   7.923 -0.0065 -0.2535  0.0585
  196loPI   C4A 3130  15.119  18.251   7.625 -0.2333 -0.1957 -0.2645
  196loPI   C5A 3131  15.456  18.085   7.405 -0.0465 -0.1681  0.4100
  196loPI   C6A 3132  15.819  17.766   7.325 -0.0854 -0.0189  0.0848
  196loPI   C1B 3133  14.809  18.710   9.101 -0.3830  0.0961 -0.0822
  196loPI   C2B 3134  14.705  18.741   8.622  0.1410  0.0140 -0.1216
  196loPI   C3B 3135  14.713  18.759   8.252  0.0962  0.1219  0.0424
  196loPI   C4B 3136  14.564  18.798   7.773 -0.1924  0.0026  0.2097
  197loPI    C1 3137   4.581  13.994  10.344 -0.0047 -0.0858  0.0943
  197loPI    C2 3138   4.651  13.661  10.554 -0.0211 -0.2552 -0.1648
  197loPI    C3 3139   4.284  13.735  10.413 -0.0729 -0.0089  0.0902
  197loPI   PO4 3140   4.733  13.991  10.117  0.5689  0.0855  0.2009
  197loPI   GL1 3141   4.904  14.191   9.646 -0.0645 -0.1466  0.3666
  197loPI   GL2 3142   4.554  14.038   9.628  0.0479 -0.0275 -0.1371
  197loPI   C1A 3143   4.803  14.485   9.220  0.0703  0.0817 -0.1755
  197loPI   C2A 3144   4.932  14.370   8.839  0.0614 -0.1543  0.1184
  197loPI   C3A 3145   4.760  14.458   8.454 -0.2258  0.1566 -0.0840
  197loPI   C4A 3146   4.836  14.143   8.051 -0.0113  0.2173 -0.1070
  197loPI   C5A 3147   4.895  13.772   7.730 -0.1250 -0.1202 -0.5077
  197loPI   C6A 3148   4.999  13.660   7.305  0.1779  0.1507 -0.0340
  197loPI   C1B 3149   4.440  13.891   9.244  0.0484 -0.1505 -0.2065
  197loPI   C2B 3150   4.513  13.981   8.867 -0.0469 -0.1430  0.2362
  197loPI   C3B 3151   4.522  14.001   8.539 -0.0903 -0.2950 -0.2290
  197loPI   C4B 3152   4.227  14.273   8.231 -0.1513  0.0292  0.0133
  198loPI    C1 3153   2.732  17.404   9.569 -0.1250  0.1279 -0.2116
  198loPI    C2 3154   2.645  17.080   9.351 -0.0018 -0.1184  0.0986
  198loPI    C3 3155   2.579  17.080   9.746  0.3335  0.1022  0.1593
  198loPI   PO4 3156   2.565  17.611   9.372  0.0642 -0.0665  0.0840
  198loPI   GL1 3157   2.188  17.589   9.090 -0.0451 -0.0527  0.0003
  198loPI   GL2 3158   2.295  17.782   8.977  0.0975  0.2096 -0.0100
  198loPI   C1A 3159   2.312  17.167   9.009 -0.4433 -0.0582 -0.0096
  198loPI   C2A 3160   2.540  17.080   8.582  0.0325  0.0810 -0.0777
  198loPI   C3A 3161   2.539  17.106   8.162 -0.1025  0.2254  0.0754
  198loPI   C4A 3162   2.284  16.811   7.908  0.1739 -0.1480  0.0196
  198loPI   C5A 3163   2.131  16.484   7.631 -0.1984 -0.0541  0.1138
  198loPI   C6A 3164   2.253  16.169   7.396 -0.0390  0.1341  0.0429
  198loPI   C1B 3165   2.383  17.630   8.545 -0.1636 -0.0788  0.0325
  198loPI   C2B 3166   2.278  17.708   8.055 -0.0690  0.1099  0.0325
  198loPI   C3B 3167   2.391  17.394   7.727 -0.0511  0.1067  0.0254
  198loPI   C4B 3168   2.483  17.252   7.223 -0.0342  0.3113  0.3671
  199loPI    C1 3169   9.620  10.839  10.230 -0.0707 -0.1842  0.2657
  199loPI    C2 3170   9.223  10.867  10.278 -0.0494  0.0178  0.3359
  199loPI    C3 3171   9.465  11.135  10.450  0.0807  0.2690 -0.2168
  199loPI   PO4 3172   9.789  10.807   9.950 -0.0174  0.3771  0.0649
  199loPI   GL1 3173   9.694  10.534   9.540  0.0515  0.0439  0.2400
  199loPI   GL2 3174  10.058  10.499   9.663  0.2933 -0.0415  0.1174
  199loPI   C1A 3175   9.346  10.711   9.243 -0.3273 -0.1637 -0.3500
  199loPI   C2A 3176   9.017  10.591   8.900 -0.2848  0.1829 -0.1053
  199loPI   C3A 3177   8.946  10.603   8.410 -0.0176 -0.2884  0.0240
  199loPI   C4A 3178   8.703  10.791   7.995 -0.2199  0.4128  0.0473
  199loPI   C5A 3179   8.533  10.594   7.652  0.0864 -0.0410  0.0657
  199loPI   C6A 3180   8.601  10.405   7.220 -0.0485 -0.0387  0.0918
  199loPI   C1B 3181  10.204  10.450   9.250 -0.0234  0.1200  0.1604
  199loPI   C2B 3182  10.094  10.417   8.776 -0.1131  0.0251 -0.4659
  199loPI   C3B 3183   9.938  10.446   8.354  0.1698 -0.0480 -0.1733
  199loPI   C4B 3184   9.793  10.499   7.996 -0.0319  0.4119 -0.0074
  200loPI    C1 3185  10.614   0.209   9.739 -0.2392  0.2230 -0.0877
  200loPI    C2 3186  10.570   0.477  10.033  0.0567  0.0597  0.1108
  200loPI    C3 3187  10.808   0.159  10.085  0.1057  0.0220 -0.3036
  200loPI   PO4 3188  10.541   0.266   9.535 -0.1155 -0.1678 -0.0935
  200loPI   GL1 3189  10.547   0.187   9.233 -0.0479 -0.1059 -0.0355
  200loPI   GL2 3190  10.317   0.240   9.128 -0.1871 -0.0062 -0.1450
  200loPI   C1A 3191  10.633   0.032   8.840 -0.5638  0.0122 -0.1925
  200loPI   C2A 3192  10.586   0.030   8.368  0.2291  0.0399  0.4604
  200loPI   C3A 3193  10.586  -0.111   7.986  0.1072  0.1146 -0.2605
  200loPI   C4A 3194  10.445  -0.258   7.509 -0.1584 -0.1177  0.2056
  200loPI   C5A 3195  10.330  -0.216   7.055 -0.0220 -0.3596 -0.1359
  200loPI   C6A 3196  10.585  -0.039   6.814 -0.1520 -0.0723  0.0755
  200loPI   C1B 3197  10.485   0.518   8.761  0.0885  0.0679  0.1003
  200loPI   C2B 3198  10.368   0.492   8.306 -0.4262 -0.0300 -0.0740
  200loPI   C3B 3199  10.543   0.494   7.932 -0.1827 -0.2009  0.2464
  200loPI   C4B 3200  10.886   0.564   7.656 -0.1710 -0.1694  0.1242
  201loPI    C1 3201  18.203  18.016  10.046  0.1867 -0.1027  0.1590
  201loPI    C2 3202  18.339  18.392  10.065  0.2888 -0.1366  0.1051
  201loPI    C3 3203  17.969  18.307  10.192  0.1767  0.0255 -0.1050
  201loPI   PO4 3204  18.327  17.931   9.744  0.0571 -0.1901  0.0062
  201loPI   GL1 3205  18.575  17.748   9.390 -0.0760  0.3209  0.0858
  201loPI   GL2 3206  18.860  17.866   9.400 -0.0695  0.0052 -0.0765
  201loPI   C1A 3207  18.515  17.565   8.941 -0.1444 -0.1696 -0.3004
  201loPI   C2A 3208  18.539  17.498   8.475  0.2106 -0.3476  0.1064
  201loPI   C3A 3209  18.539  17.550   7.988 -0.0853  0.0302 -0.1527
  201loPI   C4A 3210  18.726  17.317   7.672 -0.1569 -0.4531  0.0007
  201loPI   C5A 3211  18.848  17.591   7.348 -0.0616  0.0667 -0.0674
  201loPI   C6A 3212  18.702  17.666   7.004  0.0233  0.1162  0.0456
  201loPI   C1B 3213  19.031  17.883   9.052 -0.0431 -0.1101  0.0096
  201loPI   C2B 3214  19.027  17.888   8.632 -0.0116 -0.0996 -0.2306
  201loPI   C3B 3215  18.958  17.818   8.205  0.3187 -0.1550  0.0742
  201loPI   C4B 3216  19.095  17.653   7.819 -0.0866 -0.1247 -0.0163
  202loPI    C1 3217   3.224  18.869   9.841 -0.0925  0.0289  0.1305
  202loPI    C2 3218   3.517  19.091   9.999 -0.3214  0.3075  0.1723
  202loPI    C3 3219   3.346  18.801  10.216  0.0168  0.0462  0.0985
  202loPI   PO4 3220   3.219  19.023   9.627 -0.1671 -0.3433  0.1666
  202loPI   GL1 3221   3.565  19.020   9.305 -0.0066 -0.3093 -0.0710
  202loPI   GL2 3222   3.632  18.701   9.144  0.1474 -0.0390 -0.0366
  202loPI   C1A 3223   3.959  19.063   9.010  0.1985 -0.2567 -0.3160
  202loPI   C2A 3224   4.205  19.104   8.573 -0.1625 -0.0722  0.2739
  202loPI   C3A 3225   4.245  19.010   8.102  0.3210 -0.1171 -0.0507
  202loPI   C4A 3226   4.371  18.948   7.642 -0.1259 -0.2864 -0.0415
  202loPI   C5A 3227   4.356  18.626   7.482 -0.0820  0.0851 -0.0674
  202loPI   C6A 3228   4.453  18.251   7.285  0.0881  0.1360 -0.1125
  202loPI   C1B 3229   3.492  18.479   8.838  0.1264  0.2677  0.3450
  202loPI   C2B 3230   3.516  18.308   8.444 -0.1762  0.0890  0.1158
  202loPI   C3B 3231   3.737  18.259   8.023  0.1526 -0.0177 -0.0586
  202loPI   C4B 3232   3.503  18.319   7.617 -0.2861  0.1116  0.2193
  203loPI    C1 3233  11.660   3.962  10.511 -0.1874  0.0485  0.3101
  203loPI    C2 3234  11.644   3.578  10.625 -0.0779 -0.1266 -0.2331
  203loPI    C3 3235  11.984   3.786  10.666 -0.0463 -0.1803 -0.2230
  203loPI   PO4 3236  11.595   3.961  10.263 -0.1615  0.0980 -0.1089
  203loPI   GL1 3237  11.330   4.119   9.914  0.2128  0.1614 -0.1971
  203loPI   GL2 3238  11.600   3.819   9.799  0.1913 -0.0873  0.0772
  203loPI   C1A 3239  11.414   4.073   9.454  0.0653  0.2718 -0.1264
  203loPI   C2A 3240  11.426   4.213   9.069  0.1203  0.1233  0.0858
  203loPI   C3A 3241  11.293   4.171   8.670  0.0257  0.0475  0.0528
  203loPI   C4A 3242  11.523   4.242   8.269 -0.0633 -0.0160 -0.1544
  203loPI   C5A 3243  11.978   4.218   7.995 -0.3090  0.1732 -0.1556
  203loPI   C6A 3244  12.372   4.477   8.230 -0.3744  0.2177 -0.0312
  203loPI   C1B 3245  11.460   3.590   9.415 -0.1361  0.2649 -0.4229
  203loPI   C2B 3246  11.496   3.507   9.016 -0.1965  0.3173  0.1568
  203loPI   C3B 3247  11.578   3.662   8.590  0.0465  0.2232 -0.1653
  203loPI   C4B 3248  11.931   3.611   8.277  0.0663 -0.0091 -0.0982
  204loPI    C1 3249   2.880  15.610  10.091 -0.0468  0.2979  0.1696
  204loPI    C2 3250   3.033  15.308  10.304  0.1721  0.0863 -0.2744
  204loPI    C3 3251   2.872  15.623  10.491  0.3026 -0.1179  0.1973
  204loPI   PO4 3252   2.887  15.408   9.840  0.0567 -0.2206  0.2107
  204loPI   GL1 3253   2.772  15.267   9.537  0.1327  0.0497  0.0217
  204loPI   GL2 3254   2.491  15.331   9.357 -0.1698 -0.1000  0.1218
  204loPI   C1A 3255   3.032  15.227   9.160 -0.1835 -0.0957  0.0800
  204loPI   C2A 3256   3.059  15.129   8.748 -0.2125  0.0603  0.1093
  204loPI   C3A 3257   3.032  15.238   8.449  0.1332 -0.1258  0.1150
  204loPI   C4A 3258   3.035  15.365   7.954  0.0246 -0.1657 -0.3822
  204loPI   C5A 3259   2.986  15.295   7.479  0.1528  0.3116 -0.0087
  204loPI   C6A 3260   2.833  15.419   7.067  0.0441 -0.2067 -0.2956
  204loPI   C1B 3261   2.273  15.490   8.969  0.1241 -0.2679 -0.2879
  204loPI   C2B 3262   2.171  15.500   8.538  0.0791 -0.0899  0.0785
  204loPI   C3B 3263   2.092  15.574   8.093 -0.1366 -0.0393  0.0566
  204loPI   C4B 3264   2.274  15.661   7.673  0.0338 -0.6888  0.2072
  205loPI    C1 3265   8.211   5.394  10.095 -0.3599 -0.1884  0.0092
  205loPI    C2 3266   8.209   5.110   9.813  0.1955 -0.0971 -0.0988
  205loPI    C3 3267   8.147   5.013  10.196 -0.2367 -0.2681 -0.2066
  205loPI   PO4 3268   8.368   5.558   9.962  0.0995 -0.0348  0.1842
  205loPI   GL1 3269   8.494   5.537   9.508 -0.2512  0.1095 -0.1257
  205loPI   GL2 3270   8.738   5.706   9.597 -0.1130  0.0403  0.0930
  205loPI   C1A 3271   8.444   5.455   9.076 -0.3004 -0.1817  0.3929
  205loPI   C2A 3272   8.537   5.404   8.633  0.0837  0.1844 -0.0823
  205loPI   C3A 3273   8.627   5.593   8.240  0.0817  0.0335  0.4845
  205loPI   C4A 3274   8.679   5.685   7.840  0.0087  0.1038  0.0034
  205loPI   C5A 3275   8.626   5.901   7.495 -0.1917 -0.1832  0.1241
  205loPI   C6A 3276   8.518   6.223   7.287  0.0389 -0.5755 -0.3301
  205loPI   C1B 3277   8.921   5.532   9.314  0.0968 -0.0728  0.2551
  205loPI   C2B 3278   8.898   5.710   8.869 -0.1884  0.1342 -0.2355
  205loPI   C3B 3279   8.978   5.954   8.542  0.1187 -0.2926  0.2563
  205loPI   C4B 3280   8.917   6.064   8.132 -0.1770  0.2416  0.1653
  206loPI    C1 3281   9.547   6.033  10.489 -0.1409 -0.2077 -0.1255
  206loPI    C2 3282   9.646   5.647  10.529 -0.0011 -0.1770 -0.1684
  206loPI    C3 3283   9.871   5.930  10.700 -0.0984 -0.1135 -0.1444
  206loPI   PO4 3284   9.494   5.959  10.144 -0.3963 -0.0538  0.0089
  206loPI   GL1 3285   9.741   6.096   9.737  0.0919  0.3672  0.1170
  206loPI   GL2 3286   9.727   5.763   9.643 -0.3995 -0.0866 -0.3492
  206loPI   C1A 3287  10.055   6.028   9.396 -0.1193  0.0507  0.0078
  206loPI   C2A 3288  10.201   6.019   9.035 -0.0451  0.2516  0.0922
  206loPI   C3A 3289  10.123   6.049   8.624  0.1064 -0.2104 -0.4224
  206loPI   C4A 3290  10.014   6.066   8.147  0.1918  0.1742 -0.0842
  206loPI   C5A 3291  10.075   5.912   7.733 -0.0198  0.1777 -0.0306
  206loPI   C6A 3292   9.728   5.833   7.462  0.1526 -0.0199 -0.4454
  206loPI   C1B 3293   9.753   5.697   9.186 -0.0372 -0.1076  0.3757
  206loPI   C2B 3294   9.740   5.685   8.674  0.0989 -0.1914 -0.1231
  206loPI   C3B 3295   9.410   5.648   8.336 -0.1513  0.0480  0.1260
  206loPI   C4B 3296   9.307   5.758   7.851 -0.2194 -0.0451  0.2255
  207loPI    C1 3297  15.717   5.253   9.768  0.1227  0.0932  0.2002
  207loPI    C2 3298  15.644   4.987  10.058 -0.2374  0.2203  0.2315
  207loPI    C3 3299  15.913   5.278  10.116  0.0915 -0.0769  0.2308
  207loPI   PO4 3300  15.426   5.281   9.705  0.0119  0.0012 -0.3057
  207loPI   GL1 3301  15.115   5.124   9.402 -0.0094 -0.0498  0.2688
  207loPI   GL2 3302  15.407   5.249   9.212 -0.0447  0.2387 -0.0883
  207loPI   C1A 3303  14.960   4.987   8.973  0.1241  0.1005  0.0793
  207loPI   C2A 3304  15.165   5.051   8.585 -0.0722 -0.1879 -0.0906
  207loPI   C3A 3305  15.318   5.059   8.098 -0.0909  0.0877 -0.1191
  207loPI   C4A 3306  15.296   5.187   7.695  0.0200  0.1932 -0.2931
  207loPI   C5A 3307  15.535   4.977   7.383 -0.2973  0.2842 -0.0788
  207loPI   C6A 3308  15.424   4.688   7.095  0.1718 -0.0583 -0.3467
  207loPI   C1B 3309  15.624   5.564   8.893  0.0130  0.1006  0.1396
  207loPI   C2B 3310  15.508   5.555   8.523 -0.2124  0.1444  0.3753
  207loPI   C3B 3311  15.494   5.557   8.028  0.1306  0.4424  0.2767
  207loPI   C4B 3312  15.564   5.791   7.703  0.2031  0.0353 -0.2700
  208loPI    C1 3313   7.252  13.318  10.516 -0.1301 -0.1531  0.0152
  208loPI    C2 3314   7.210  13.662  10.715 -0.0075  0.1216 -0.4193
  208loPI    C3 3315   6.922  13.385  10.732 -0.1162  0.2497 -0.0806
  208loPI   PO4 3316   7.395  13.420  10.262  0.0696 -0.2041  0.1899
  208loPI   GL1 3317   7.334  13.552   9.738 -0.2995 -0.0890  0.0969
  208loPI   GL2 3318   7.647  13.486   9.778  0.1784 -0.1153  0.3472
  208loPI   C1A 3319   7.294  13.467   9.325 -0.0892 -0.1508  0.1289
  208loPI   C2A 3320   7.287  13.368   8.955  0.1158  0.2460 -0.0057
  208loPI   C3A 3321   7.345  13.085   8.735  0.0526  0.3068 -0.1473
  208loPI   C4A 3322   7.521  12.690   8.547 -0.1741  0.0596  0.0272
  208loPI   C5A 3323   7.726  12.618   8.114  0.3900 -0.0467  0.1980
  208loPI   C6A 3324   7.469  12.606   7.666 -0.4165  0.2589 -0.1564
  208loPI   C1B 3325   7.753  13.469   9.386 -0.1126 -0.3087 -0.2704
  208loPI   C2B 3326   7.811  13.542   9.085  0.4311  0.2609  0.5223
  208loPI   C3B 3327   7.809  13.717   8.610 -0.0657  0.0387  0.3253
  208loPI   C4B 3328   7.680  13.764   8.172  0.5237 -0.0926 -0.0587
  209loPI    C1 3329   0.354   9.102   9.462  0.0876  0.2195  0.4448
  209loPI    C2 3330  -0.039   9.065   9.523  0.0607  0.1243  0.2250
  209loPI    C3 3331   0.156   8.789   9.309  0.1355  0.4751 -0.1712
  209loPI   PO4 3332   0.403   9.259   9.320  0.1215  0.1996  0.2905
  209loPI   GL1 3333   0.476   9.182   8.917 -0.2630 -0.1716  0.2216
  209loPI   GL2 3334   0.208   9.024   8.897  0.3299  0.1558  0.0344
  209loPI   C1A 3335   0.439   9.423   8.482  0.2584  0.1408 -0.2498
  209loPI   C2A 3336   0.449   9.561   8.163 -0.2022 -0.1483  0.1791
  209loPI   C3A 3337   0.439   9.721   7.794  0.1279  0.2469  0.0966
  209loPI   C4A 3338   0.349   9.672   7.415 -0.0676 -0.2523  0.0667
  209loPI   C5A 3339   0.428   9.872   7.002  0.1062 -0.2239 -0.1047
  209loPI   C6A 3340   0.647   9.657   6.882  0.0988  0.1919 -0.0446
  209loPI   C1B 3341   0.158   8.957   8.578  0.0988 -0.1030 -0.0691
  209loPI   C2B 3342   0.253   9.012   8.132  0.1680 -0.1437 -0.1766
  209loPI   C3B 3343   0.308   9.113   7.763  0.1690 -0.1415 -0.1282
  209loPI   C4B 3344   0.262   9.041   7.295  0.4197  0.1723  0.1395
  210loPI    C1 3345   4.488   4.209   9.596 -0.0959  0.0669  0.0637
  210loPI    C2 3346   4.659   4.505   9.804 -0.1192  0.1560 -0.0428
  210loPI    C3 3347   4.697   4.126   9.926  0.0048  0.1924  0.0324
  210loPI   PO4 3348   4.464   4.350   9.327  0.2996  0.1263  0.2333
  210loPI   GL1 3349   4.580   4.394   8.868 -0.0004  0.3200  0.2500
  210loPI   GL2 3350   4.472   4.084   8.917 -0.1082 -0.0482 -0.3168
  210loPI   C1A 3351   4.497   4.426   8.334 -0.0053  0.1116 -0.0890
  210loPI   C2A 3352   4.447   4.447   7.884  0.0488  0.3932 -0.1677
  210loPI   C3A 3353   4.390   4.467   7.453 -0.2721  0.2381 -0.0869
  210loPI   C4A 3354   4.382   4.737   7.174 -0.2614 -0.2918  0.1058
  210loPI   C5A 3355   4.505   5.053   7.024  0.1319 -0.0359 -0.0990
  210loPI   C6A 3356   4.443   5.476   6.710  0.1102  0.4462  0.1473
  210loPI   C1B 3357   4.516   3.943   8.583  0.2645  0.1505  0.1473
  210loPI   C2B 3358   4.618   3.957   8.135  0.1101  0.0825 -0.2206
  210loPI   C3B 3359   4.470   3.780   7.692 -0.0028  0.0459 -0.0074
  210loPI   C4B 3360   4.567   3.371   7.330 -0.1980  0.1875 -0.0588
  211loPI    C1 3361  11.470   8.841  10.444 -0.1952 -0.2271  0.0128
  211loPI    C2 3362  11.562   8.528  10.675 -0.2026 -0.1153  0.1688
  211loPI    C3 3363  11.533   8.893  10.835 -0.0588 -0.0119 -0.0362
  211loPI   PO4 3364  11.433   8.839  10.219  0.3109  0.1205  0.2676
  211loPI   GL1 3365  11.394   8.661   9.782 -0.0586 -0.1805  0.0803
  211loPI   GL2 3366  11.446   8.863   9.522  0.1042 -0.1816 -0.0479
  211loPI   C1A 3367  11.327   8.403   9.381  0.1317  0.1005 -0.1242
  211loPI   C2A 3368  11.432   8.510   8.988 -0.1401 -0.2304 -0.1101
  211loPI   C3A 3369  11.384   8.369   8.655  0.1404  0.2138 -0.1522
  211loPI   C4A 3370  11.425   8.321   8.322 -0.0251 -0.2491  0.0663
  211loPI   C5A 3371  11.408   8.138   7.816  0.0565 -0.0136 -0.3301
  211loPI   C6A 3372  11.274   7.873   7.426  0.0460 -0.1477  0.0681
  211loPI   C1B 3373  11.314   8.987   9.130  0.0591  0.1184 -0.1679
  211loPI   C2B 3374  11.252   8.888   8.695 -0.1714 -0.2403  0.1024
  211loPI   C3B 3375  11.087   8.704   8.366 -0.1822 -0.0896 -0.0912
  211loPI   C4B 3376  10.994   8.516   8.000 -0.3840  0.0868  0.0188
  212loPI    C1 3377   5.773   1.429   9.947  0.0027 -0.0297  0.0851
  212loPI    C2 3378   5.507   1.475  10.242 -0.1005 -0.1768  0.0162
  212loPI    C3 3379   5.866   1.314  10.318  0.0535  0.2196  0.1512
  212loPI   PO4 3380   5.670   1.237   9.750  0.0321  0.0503  0.0624
  212loPI   GL1 3381   5.654   1.143   9.259  0.2416 -0.3843  0.2100
  212loPI   GL2 3382   5.776   1.431   9.189 -0.1420  0.1904  0.3630
  212loPI   C1A 3383   5.242   1.253   9.056 -0.2601  0.1169 -0.1111
  212loPI   C2A 3384   5.032   1.484   8.687 -0.1323 -0.1054 -0.2573
  212loPI   C3A 3385   5.068   1.366   8.204  0.2309 -0.1405  0.0116
  212loPI   C4A 3386   5.056   1.509   7.831 -0.4236 -0.0982 -0.0793
  212loPI   C5A 3387   4.969   1.799   7.579  0.1052 -0.1347 -0.0696
  212loPI   C6A 3388   4.904   2.118   7.208  0.0524  0.0260 -0.4193
  212loPI   C1B 3389   5.669   1.323   8.764  0.3073  0.0270 -0.0049
  212loPI   C2B 3390   5.533   1.399   8.456 -0.1224  0.0125 -0.1567
  212loPI   C3B 3391   5.491   1.381   8.007 -0.0345  0.0100  0.1734
  212loPI   C4B 3392   5.390   1.069   7.630  0.1661 -0.0180  0.4266
  213loPI    C1 3393  14.912  15.703   9.778 -0.0092  0.0558 -0.0252
  213loPI    C2 3394  14.980  16.029  10.000 -0.0881 -0.0045  0.0887
  213loPI    C3 3395  14.742  15.739  10.138  0.1190 -0.1901  0.0623
  213loPI   PO4 3396  14.830  15.807   9.597 -0.1030  0.1896 -0.2468
  213loPI   GL1 3397  14.859  16.091   9.222  0.0473  0.1645 -0.0992
  213loPI   GL2 3398  15.026  16.327   9.007  0.0845  0.1726  0.5407
  213loPI   C1A 3399  14.578  16.013   8.858 -0.1966 -0.0290 -0.0884
  213loPI   C2A 3400  14.483  15.888   8.401 -0.0547 -0.0002  0.1179
  213loPI   C3A 3401  14.227  15.955   8.135  0.1631  0.0565 -0.0115
  213loPI   C4A 3402  13.981  15.789   7.768 -0.0997  0.2177  0.0444
  213loPI   C5A 3403  14.003  15.795   7.325  0.1338 -0.4172 -0.1938
  213loPI   C6A 3404  13.607  15.689   7.227  0.0462  0.4343 -0.0137
  213loPI   C1B 3405  15.087  16.327   8.465  0.0689  0.2385 -0.0431
  213loPI   C2B 3406  14.987  16.336   8.060  0.1808 -0.1099 -0.1617
  213loPI   C3B 3407  14.623  16.039   7.878 -0.0401  0.0476 -0.3142
  213loPI   C4B 3408  14.308  16.113   7.576  0.1960  0.3028 -0.4226
  214loPI    C1 3409  15.200  15.261   9.763 -0.1548 -0.0149 -0.0730
  214loPI    C2 3410  15.340  15.513  10.039 -0.2619  0.1231 -0.1434
  214loPI    C3 3411  14.983  15.340  10.090 -0.1846 -0.0224 -0.0909
  214loPI   PO4 3412  15.452  15.118   9.640  0.0769  0.2273  0.0885
  214loPI   GL1 3413  15.598  15.122   9.228 -0.3105 -0.3070  0.2613
  214loPI   GL2 3414  15.488  14.908   8.931 -0.0816  0.1769 -0.4992
  214loPI   C1A 3415  15.506  15.370   8.783  0.3335 -0.1176 -0.2097
  214loPI   C2A 3416  15.374  15.400   8.320 -0.0230 -0.1059 -0.1053
  214loPI   C3A 3417  15.534  15.538   7.941  0.0027  0.0560 -0.1422
  214loPI   C4A 3418  15.574  15.612   7.443  0.1360  0.1729  0.2537
  214loPI   C5A 3419  15.719  15.973   7.247 -0.2210 -0.1680  0.0096
  214loPI   C6A 3420  15.779  16.355   7.332 -0.0407 -0.0033 -0.1040
  214loPI   C1B 3421  15.674  14.965   8.525 -0.2586  0.3559  0.2168
  214loPI   C2B 3422  15.770  15.173   8.116 -0.0680  0.0720 -0.0489
  214loPI   C3B 3423  15.460  15.025   7.655  0.0169  0.0670  0.1405
  214loPI   C4B 3424  15.230  15.073   7.274  0.0510  0.2094 -0.0951
  215loPI    C1 3425   1.479  10.652   9.723 -0.0348 -0.2744  0.0062
  215loPI    C2 3426   1.540  10.298   9.899  0.1747 -0.2084  0.0688
  215loPI    C3 3427   1.842  10.559   9.863 -0.0064  0.0128  0.1302
  215loPI   PO4 3428   1.357  10.539   9.485  0.0823 -0.1931  0.0380
  215loPI   GL1 3429   1.242  10.712   9.096  0.0493 -0.0518 -0.0595
  215loPI   GL2 3430   1.475  10.527   8.985  0.0412  0.1358  0.2636
  215loPI   C1A 3431   1.063  10.742   8.690  0.0695  0.3584  0.4004
  215loPI   C2A 3432   0.890  11.011   8.450 -0.3648  0.2015 -0.0307
  215loPI   C3A 3433   0.929  11.084   8.131  0.1321  0.0359  0.0752
  215loPI   C4A 3434   0.926  10.896   7.633 -0.2488  0.3953 -0.1906
  215loPI   C5A 3435   0.988  10.921   7.212 -0.0839 -0.0181 -0.0826
  215loPI   C6A 3436   1.292  10.861   6.938 -0.2376  0.0799 -0.0674
  215loPI   C1B 3437   1.489  10.537   8.574  0.0061  0.0053 -0.1535
  215loPI   C2B 3438   1.387  10.570   8.082 -0.1954  0.0116  0.0322
  215loPI   C3B 3439   1.379  10.561   7.616 -0.0070 -0.2013  0.0266
  215loPI   C4B 3440   1.482  10.480   7.194  0.1482  0.1475 -0.1323
  216loPI    C1 3441   4.345  12.889  10.118 -0.0710  0.0226 -0.2114
  216loPI    C2 3442   4.643  12.863  10.384 -0.2142 -0.0229 -0.0536
  216loPI    C3 3443   4.517  13.222  10.260  0.0411 -0.0071 -0.2765
  216loPI   PO4 3444   4.338  12.631  10.014  0.5460 -0.0241 -0.2978
  216loPI   GL1 3445   4.521  12.372   9.681 -0.2294 -0.2205 -0.0257
  216loPI   GL2 3446   4.605  12.679   9.598 -0.1694 -0.0830 -0.2504
  216loPI   C1A 3447   4.373  12.312   9.249  0.1164 -0.1836 -0.0056
  216loPI   C2A 3448   4.304  12.353   8.802 -0.1022 -0.1671 -0.0354
  216loPI   C3A 3449   4.126  12.725   8.566 -0.1953  0.3418 -0.2136
  216loPI   C4A 3450   4.127  12.834   8.171  0.3339  0.2211  0.1145
  216loPI   C5A 3451   4.037  12.943   7.856 -0.1077 -0.0020  0.0584
  216loPI   C6A 3452   4.256  12.633   7.554  0.3060 -0.1886 -0.2263
  216loPI   C1B 3453   4.747  12.604   9.246 -0.2531 -0.1877  0.1073
  216loPI   C2B 3454   4.702  12.616   8.764 -0.0771 -0.2263  0.0855
  216loPI   C3B 3455   4.644  12.646   8.321 -0.1864  0.0806  0.0517
  216loPI   C4B 3456   4.686  12.831   7.803  0.0322 -0.0994 -0.2256
  217loPI    C1 3457   2.152  18.634  10.009  0.0909  0.1609  0.3937
  217loPI    C2 3458   2.050  19.010   9.917  0.0109  0.0848  0.1635
  217loPI    C3 3459   1.767  18.742  10.006  0.0407 -0.0087 -0.0169
  217loPI   PO4 3460   2.248  18.587   9.709 -0.1432  0.0543 -0.0186
  217loPI   GL1 3461   2.364  18.575   9.337 -0.2306 -0.2709  0.2229
  217loPI   GL2 3462   2.060  18.482   9.158 -0.2301  0.2492 -0.3005
  217loPI   C1A 3463   2.618  18.649   8.922  0.2100 -0.0799  0.1059
  217loPI   C2A 3464   2.512  18.531   8.542 -0.3889  0.0613 -0.5096
  217loPI   C3A 3465   2.501  18.529   8.143 -0.1991 -0.0484 -0.0187
  217loPI   C4A 3466   2.414  18.618   7.751 -0.0636 -0.3473  0.0181
  217loPI   C5A 3467   2.631  18.891   7.567  0.0446 -0.2269 -0.0007
  217loPI   C6A 3468   2.609  19.134   7.251  0.1761  0.0124 -0.0052
  217loPI   C1B 3469   2.176  18.268   8.762  0.2464 -0.2111  0.0953
  217loPI   C2B 3470   2.177  18.170   8.383 -0.1460  0.4142  0.0794
  217loPI   C3B 3471   2.066  18.204   7.996 -0.2819  0.0143 -0.0558
  217loPI   C4B 3472   2.029  18.335   7.514 -0.0853  0.0729  0.2017
  218loPI    C1 3473  11.837   7.121  10.485 -0.1021  0.0281  0.1448
  218loPI    C2 3474  11.478   7.013  10.623 -0.1809 -0.0362 -0.1040
  218loPI    C3 3475  11.738   6.734  10.502  0.0722 -0.0096  0.3525
  218loPI   PO4 3476  11.710   7.317  10.284 -0.1453 -0.1985  0.0796
  218loPI   GL1 3477  11.571   7.384   9.934 -0.0892  0.0651 -0.2238
  218loPI   GL2 3478  11.297   7.582   9.858  0.2016  0.0632 -0.0434
  218loPI   C1A 3479  11.523   7.488   9.409 -0.2294  0.1175 -0.0676
  218loPI   C2A 3480  11.410   7.440   8.964 -0.0905 -0.1378 -0.2064
  218loPI   C3A 3481  11.489   7.368   8.455 -0.2321  0.0794  0.3275
  218loPI   C4A 3482  11.563   7.284   8.029 -0.1127  0.0717 -0.1222
  218loPI   C5A 3483  11.626   6.878   7.776 -0.0476 -0.1188  0.2941
  218loPI   C6A 3484  11.722   6.565   7.854  0.0040 -0.1333  0.1154
  218loPI   C1B 3485  10.969   7.441   9.602  0.1561 -0.1656  0.0795
  218loPI   C2B 3486  10.926   7.322   9.149 -0.2382 -0.0997 -0.1125
  218loPI   C3B 3487  10.976   7.343   8.696  0.2110  0.1643 -0.2335
  218loPI   C4B 3488  11.062   7.354   8.271  0.2129  0.2309 -0.0183
  219loPI    C1 3489  15.635   2.283   9.875  0.1871  0.0335  0.0164
  219loPI    C2 3490  15.502   2.081   9.557  0.0225  0.0237  0.0907
  219loPI    C3 3491  15.621   1.884   9.884 -0.1187  0.0447  0.1555
  219loPI   PO4 3492  15.712   2.527   9.768 -0.0199  0.1234 -0.2989
  219loPI   GL1 3493  15.476   2.711   9.325 -0.5197 -0.1308 -0.0742
  219loPI   GL2 3494  15.364   2.419   9.252 -0.0219 -0.0512  0.2766
  219loPI   C1A 3495  15.475   2.732   8.872  0.3273 -0.0268  0.2903
  219loPI   C2A 3496  15.528   2.634   8.464  0.0463 -0.1623  0.0280
  219loPI   C3A 3497  15.643   2.835   8.026  0.3148 -0.1669 -0.0890
  219loPI   C4A 3498  15.570   2.795   7.572 -0.2244  0.1536  0.1760
  219loPI   C5A 3499  15.203   2.812   7.193  0.3056  0.0001 -0.3418
  219loPI   C6A 3500  14.816   3.038   7.136  0.2883 -0.1844 -0.5526
  219loPI   C1B 3501  15.288   2.191   8.862  0.1312 -0.0415 -0.1407
  219loPI   C2B 3502  15.167   2.257   8.460 -0.3457 -0.1310 -0.1358
  219loPI   C3B 3503  15.286   2.377   7.947  0.0253 -0.0312 -0.3034
  219loPI   C4B 3504  15.306   2.352   7.436 -0.1622 -0.0919 -0.2909
  220loPI    C1 3505   5.526   7.957   9.903  0.1022 -0.1668  0.0985
  220loPI    C2 3506   5.235   7.929  10.176  0.0041  0.3711  0.0607
  220loPI    C3 3507   5.572   7.717  10.220 -0.2636 -0.0263  0.2640
  220loPI   PO4 3508   5.349   8.028   9.705  0.0284 -0.0281 -0.0521
  220loPI   GL1 3509   5.213   7.744   9.363  0.3580 -0.1194  0.0667
  220loPI   GL2 3510   5.016   7.983   9.277 -0.4637 -0.1464 -0.1915
  220loPI   C1A 3511   5.424   7.940   8.971 -0.0549 -0.3287  0.2441
  220loPI   C2A 3512   5.434   7.966   8.663  0.0769  0.0323  0.1535
  220loPI   C3A 3513   5.508   8.106   8.241  0.0383  0.2064 -0.0255
  220loPI   C4A 3514   5.437   7.853   7.920 -0.2380 -0.1706 -0.0092
  220loPI   C5A 3515   5.411   7.485   7.604  0.1486  0.2945 -0.2462
  220loPI   C6A 3516   5.664   7.288   7.342  0.0325  0.0011 -0.2258
  220loPI   C1B 3517   4.963   8.177   8.837 -0.0093  0.1340 -0.1313
  220loPI   C2B 3518   5.023   8.159   8.466  0.3436  0.1511  0.2228
  220loPI   C3B 3519   4.593   7.976   8.165  0.0580  0.0846 -0.0276
  220loPI   C4B 3520   4.397   7.599   8.021 -0.0419  0.0310 -0.1068
  221loPI    C1 3521  11.929  16.773   9.915 -0.1388 -0.0732 -0.1262
  221loPI    C2 3522  11.745  17.122   9.979  0.0078 -0.0243  0.0330
  221loPI    C3 3523  11.784  16.858  10.278 -0.1309 -0.1915 -0.0948
  221loPI   PO4 3524  12.183  16.824   9.684 -0.0340 -0.1828  0.2273
  221loPI   GL1 3525  12.210  16.654   9.399  0.3481  0.0370  0.0724
  221loPI   GL2 3526  12.393  16.662   9.202 -0.0586 -0.0279 -0.0413
  221loPI   C1A 3527  11.983  16.469   8.956 -0.0832 -0.0791 -0.0586
  221loPI   C2A 3528  11.988  16.380   8.550  0.3807  0.0962 -0.0421
  221loPI   C3A 3529  12.053  16.511   8.233 -0.0319  0.1968  0.1996
  221loPI   C4A 3530  11.740  16.620   7.860 -0.0962 -0.2813 -0.0999
  221loPI   C5A 3531  11.653  16.842   7.508  0.0813  0.1845 -0.1203
  221loPI   C6A 3532  11.638  17.186   7.354  0.0938 -0.0732 -0.0817
  221loPI   C1B 3533  12.448  16.786   8.821  0.2065 -0.0665  0.0895
  221loPI   C2B 3534  12.386  16.856   8.398  0.0488 -0.0661 -0.2508
  221loPI   C3B 3535  12.337  16.879   8.009 -0.1140  0.3658 -0.2049
  221loPI   C4B 3536  12.283  16.594   7.716  0.0755 -0.0544  0.0896
  222loPI    C1 3537  15.057   7.456   9.984 -0.0485 -0.1910  0.1688
  222loPI    C2 3538  14.722   7.564  10.173 -0.0924  0.2666 -0.1535
  222loPI    C3 3539  15.077   7.633  10.342 -0.1502 -0.0875  0.1241
  222loPI   PO4 3540  14.978   7.206   9.828  0.3402  0.0565 -0.4131
  222loPI   GL1 3541  14.961   7.196   9.401 -0.0933  0.0153 -0.2063
  222loPI   GL2 3542  15.080   6.955   9.163 -0.2549 -0.1639  0.2452
  222loPI   C1A 3543  15.198   7.402   9.100 -0.0159  0.3601  0.4396
  222loPI   C2A 3544  15.151   7.374   8.628 -0.2281  0.0721  0.0179
  222loPI   C3A 3545  15.301   7.314   8.168 -0.1091  0.1166 -0.1129
  222loPI   C4A 3546  15.149   7.389   7.813 -0.1393  0.1936  0.2161
  222loPI   C5A 3547  15.288   7.286   7.311  0.0402  0.0890  0.1462
  222loPI   C6A 3548  15.530   7.110   6.944 -0.2015 -0.2697 -0.0179
  222loPI   C1B 3549  15.086   6.899   8.780 -0.3873  0.1586  0.4615
  222loPI   C2B 3550  14.988   6.913   8.371 -0.0272 -0.0804 -0.1732
  222loPI   C3B 3551  14.812   7.107   7.950 -0.1520 -0.1358 -0.0003
  222loPI   C4B 3552  14.842   7.229   7.446 -0.1889 -0.1708  0.2344
  223loPI    C1 3553  19.095  18.988   9.897 -0.3405  0.1429 -0.1318
  223loPI    C2 3554  19.231  19.243  10.173 -0.0501  0.0021 -0.1414
  223loPI    C3 3555  19.011  18.929  10.284 -0.1197  0.0677 -0.0938
  223loPI   PO4 3556  19.147  19.148   9.637  0.0323 -0.1737 -0.0409
  223loPI   GL1 3557  19.334  19.236   9.316  0.1024  0.0636 -0.0971
  223loPI   GL2 3558  19.344  18.979   9.264 -0.0423  0.1552 -0.0880
  223loPI   C1A 3559  19.210  19.302   8.921 -0.1147 -0.0893 -0.2379
  223loPI   C2A 3560  19.020  19.254   8.518 -0.1513  0.3658 -0.0140
  223loPI   C3A 3561  18.988  19.383   8.093  0.0378  0.2198  0.1925
  223loPI   C4A 3562  18.974  19.521   7.694  0.0178  0.1553  0.2254
  223loPI   C5A 3563  19.171  19.832   7.440 -0.0180  0.0014  0.4207
  223loPI   C6A 3564  19.384  19.672   7.044 -0.0465 -0.3647 -0.1122
  223loPI   C1B 3565  19.211  18.764   8.896  0.0436 -0.1107  0.1800
  223loPI   C2B 3566  19.186  18.734   8.366  0.2718 -0.1817 -0.1424
  223loPI   C3B 3567  19.088  18.915   8.019 -0.1039  0.2764 -0.0039
  223loPI   C4B 3568  19.031  18.974   7.563  0.0417  0.2258 -0.0733
  224loPI    C1 3569  11.510  11.488  10.105 -0.1232 -0.2123 -0.0380
  224loPI    C2 3570  11.305  11.766  10.306  0.0435 -0.0258 -0.1222
  224loPI    C3 3571  11.273  11.381  10.409 -0.1203  0.0327  0.0526
  224loPI   PO4 3572  11.508  11.464   9.902 -0.0092 -0.0238 -0.2581
  224loPI   GL1 3573  11.732  11.655   9.604 -0.0748  0.2160 -0.0661
  224loPI   GL2 3574  11.483  11.623   9.406  0.3997  0.0244  0.0111
  224loPI   C1A 3575  11.890  11.718   9.172  0.1265 -0.0196  0.1152
  224loPI   C2A 3576  12.019  11.681   8.832  0.0580 -0.0134 -0.0377
  224loPI   C3A 3577  11.814  11.919   8.437  0.2366 -0.2875 -0.1782
  224loPI   C4A 3578  11.772  11.936   7.994  0.2715 -0.2115 -0.2874
  224loPI   C5A 3579  11.849  12.038   7.559  0.0891  0.2728  0.2194
  224loPI   C6A 3580  11.824  11.919   7.216 -0.3094  0.0006 -0.3040
  224loPI   C1B 3581  11.068  11.645   9.306 -0.1924  0.1922 -0.1077
  224loPI   C2B 3582  10.828  11.760   8.960 -0.2297  0.5792  0.4400
  224loPI   C3B 3583  10.954  11.778   8.494  0.3730 -0.1246 -0.0749
  224loPI   C4B 3584  11.113  11.655   8.082 -0.0631  0.5264 -0.3045
  225loPI    C1 3585   6.704   4.488   9.924 -0.0217  0.0581 -0.1297
  225loPI    C2 3586   6.970   4.211   9.811  0.1859  0.1570  0.1076
  225loPI    C3 3587   6.666   4.306   9.570  0.3288 -0.0031 -0.1398
  225loPI   PO4 3588   6.847   4.696   9.932  0.2598 -0.0547  0.1241
  225loPI   GL1 3589   6.977   4.676   9.507  0.0268  0.0427 -0.2677
  225loPI   GL2 3590   6.872   5.042   9.628 -0.2068  0.3633 -0.0146
  225loPI   C1A 3591   6.794   4.719   9.063  0.0246 -0.1451  0.4120
  225loPI   C2A 3592   6.705   4.705   8.690  0.0047 -0.0398  0.0892
  225loPI   C3A 3593   6.887   4.760   8.284  0.1460 -0.0681  0.1056
  225loPI   C4A 3594   7.077   4.983   7.939 -0.0038 -0.2052 -0.0298
  225loPI   C5A 3595   7.341   4.861   7.631 -0.0434 -0.1073 -0.0402
  225loPI   C6A 3596   7.485   4.825   7.151  0.0313 -0.0418 -0.0035
  225loPI   C1B 3597   6.990   5.141   9.231  0.0663  0.0107  0.4247
  225loPI   C2B 3598   7.307   5.048   8.889 -0.0397  0.0411  0.1555
  225loPI   C3B 3599   7.400   5.367   8.793  0.1879 -0.3111  0.0489
  225loPI   C4B 3600   7.396   5.699   9.056  0.0600 -0.0166 -0.0715
  226loPI    C1 3601   5.048  18.283   9.991  0.1527 -0.0299 -0.1210
  226loPI    C2 3602   4.981  18.677  10.016 -0.2092 -0.0865 -0.1470
  226loPI    C3 3603   4.968  18.450  10.345  0.0409 -0.0731 -0.1257
  226loPI   PO4 3604   5.264  18.303   9.796  0.0456  0.3109 -0.3011
  226loPI   GL1 3605   5.302  18.065   9.482 -0.2625 -0.0151  0.2939
  226loPI   GL2 3606   5.294  18.337   9.226  0.0853  0.1943  0.0380
  226loPI   C1A 3607   5.535  17.880   9.134 -0.2657  0.0175 -0.0839
  226loPI   C2A 3608   5.548  17.748   8.687  0.1460 -0.2996  0.0319
  226loPI   C3A 3609   5.546  17.618   8.231  0.2025  0.0744  0.3351
  226loPI   C4A 3610   5.430  17.557   7.752 -0.3012  0.0580  0.1461
  226loPI   C5A 3611   5.214  17.505   7.320  0.0302 -0.2146  0.0756
  226loPI   C6A 3612   4.859  17.337   7.030  0.0232  0.1088 -0.1753
  226loPI   C1B 3613   5.252  18.183   8.844  0.1033  0.2122  0.2717
  226loPI   C2B 3614   5.155  18.023   8.411 -0.0202 -0.2141 -0.2395
  226loPI   C3B 3615   4.989  17.793   8.102  0.2926 -0.0221 -0.2013
  226loPI   C4B 3616   4.909  17.559   7.744 -0.1085  0.1200  0.1214
  227loPI    C1 3617  18.549   7.766   9.717 -0.0151  0.1264 -0.1394
  227loPI    C2 3618  18.195   7.823   9.894  0.1226  0.1005  0.1494
  227loPI    C3 3619  18.533   7.898  10.094  0.2817  0.1309 -0.1262
  227loPI   PO4 3620  18.577   7.478   9.526  0.0560  0.0045 -0.1390
  227loPI   GL1 3621  18.677   7.475   9.158  0.0618  0.0654 -0.0492
  227loPI   GL2 3622  18.846   7.698   9.024  0.3024 -0.0987 -0.3522
  227loPI   C1A 3623  18.384   7.549   8.815  0.1186  0.0127  0.2549
  227loPI   C2A 3624  18.031   7.521   8.524 -0.1257  0.1966  0.1641
  227loPI   C3A 3625  17.723   7.770   8.509 -0.1455 -0.0639 -0.1245
  227loPI   C4A 3626  17.443   7.649   8.173  0.0677 -0.2370  0.0247
  227loPI   C5A 3627  17.425   7.466   7.841  0.1600 -0.0885  0.0556
  227loPI   C6A 3628  17.410   7.561   7.375 -0.2214 -0.0808 -0.2484
  227loPI   C1B 3629  18.847   7.525   8.600  0.1145 -0.0581 -0.1427
  227loPI   C2B 3630  18.849   7.598   8.172  0.0252 -0.1080  0.0596
  227loPI   C3B 3631  18.859   7.697   7.786  0.1101  0.0747  0.4159
  227loPI   C4B 3632  18.760   7.997   7.485  0.0078  0.0783 -0.3519
  228loPI    C1 3633  18.772  11.222   9.729  0.2142 -0.1310  0.0996
  228loPI    C2 3634  18.816  11.066  10.094  0.1621 -0.1158  0.1127
  228loPI    C3 3635  18.473  11.247   9.994  0.1338 -0.2208  0.0181
  228loPI   PO4 3636  19.013  11.411   9.658 -0.0810  0.0970 -0.0291
  228loPI   GL1 3637  19.030  11.320   9.289  0.0375  0.0186  0.1820
  228loPI   GL2 3638  18.694  11.243   9.189 -0.2475  0.4309  0.1336
  228loPI   C1A 3639  19.288  11.355   8.897 -0.1162 -0.1382  0.2763
  228loPI   C2A 3640  19.227  11.431   8.501  0.0171  0.0492  0.0471
  228loPI   C3A 3641  19.247  11.479   7.998  0.0389 -0.1728 -0.1392
  228loPI   C4A 3642  19.289  11.577   7.540  0.0030 -0.2442  0.0703
  228loPI   C5A 3643  19.693  11.623   7.482  0.0403 -0.2085 -0.0589
  228loPI   C6A 3644  20.068  11.857   7.458 -0.2338 -0.0806  0.2101
  228loPI   C1B 3645  18.380  11.424   8.907 -0.0077  0.4517 -0.1291
  228loPI   C2B 3646  18.422  11.467   8.438 -0.2275 -0.1635  0.1550
  228loPI   C3B 3647  18.333  11.483   8.029 -0.0736  0.0397  0.0909
  228loPI   C4B 3648  18.409  11.642   7.706 -0.1727 -0.0769  0.0713
  229loPI    C1 3649  11.616   0.064   9.760 -0.0939  0.0836 -0.0493
  229loPI    C2 3650  11.314   0.201   9.984  0.0962  0.0618  0.2246
  229loPI    C3 3651  11.692   0.287  10.084  0.1865 -0.0114 -0.0473
  229loPI   PO4 3652  11.539   0.144   9.455 -0.0769  0.2377  0.1298
  229loPI   GL1 3653  11.639   0.246   9.069  0.2134  0.0384 -0.3557
  229loPI   GL2 3654  11.748   0.522   8.959 -0.3487 -0.0277 -0.0680
  229loPI   C1A 3655  11.579  -0.093   8.749 -0.1106 -0.0017 -0.2869
  229loPI   C2A 3656  11.521  -0.104   8.347  0.1396 -0.3229 -0.0433
  229loPI   C3A 3657  11.568  -0.037   7.916  0.3575  0.5278  0.0112
  229loPI   C4A 3658  11.700   0.143   7.578 -0.3638 -0.1645 -0.1398
  229loPI   C5A 3659  12.073  -0.175   7.406  0.0240  0.1946  0.2576
  229loPI   C6A 3660  12.152  -0.542   7.118 -0.2183  0.0650  0.2252
  229loPI   C1B 3661  11.786   0.430   8.524  0.3817  0.1786  0.2146
  229loPI   C2B 3662  11.756   0.385   8.129  0.0273  0.0198 -0.1607
  229loPI   C3B 3663  11.813   0.664   7.726  0.0313  0.0389 -0.3215
  229loPI   C4B 3664  11.935   0.816   7.323  0.0671 -0.2440  0.2174
  230loPI    C1 3665  11.449  13.493   9.995  0.0506 -0.2278 -0.3411
  230loPI    C2 3666  11.839  13.522  10.082  0.0269  0.0969 -0.3274
  230loPI    C3 3667  11.622  13.221  10.232  0.1638  0.1934  0.0762
  230loPI   PO4 3668  11.392  13.661   9.975 -0.3024  0.2787  0.1936
  230loPI   GL1 3669  11.179  13.739   9.548 -0.1735 -0.1423  0.0680
  230loPI   GL2 3670  10.977  13.495   9.490 -0.3318  0.2234 -0.2051
  230loPI   C1A 3671  11.216  13.838   9.076 -0.0054  0.0058  0.1751
  230loPI   C2A 3672  11.109  13.719   8.777 -0.0562  0.1214  0.4280
  230loPI   C3A 3673  10.985  13.600   8.424 -0.3155 -0.2487  0.1246
  230loPI   C4A 3674  10.810  13.284   8.080  0.0893  0.2430  0.0001
  230loPI   C5A 3675  10.850  13.117   7.611  0.3712 -0.0426  0.1246
  230loPI   C6A 3676  11.151  12.765   7.456 -0.0498 -0.1626  0.0887
  230loPI   C1B 3677  11.125  13.341   9.179  0.1944  0.3326  0.1901
  230loPI   C2B 3678  11.238  13.152   8.852  0.1213 -0.3425 -0.0819
  230loPI   C3B 3679  11.185  13.052   8.426 -0.0945 -0.0536  0.2037
  230loPI   C4B 3680  11.174  12.919   7.991  0.1404 -0.1460 -0.1533
  231loPI    C1 3681  10.187  15.023   9.790  0.0129  0.0753 -0.0658
  231loPI    C2 3682  10.028  15.196   9.467  0.0626 -0.0302 -0.1475
  231loPI    C3 3683  10.398  15.293   9.583  0.0037  0.0894 -0.0569
  231loPI   PO4 3684  10.148  14.796   9.756 -0.1821 -0.1426 -0.0757
  231loPI   GL1 3685  10.008  14.663   9.415 -0.0567  0.1235  0.1139
  231loPI   GL2 3686  10.022  14.319   9.408  0.1332  0.0535  0.1928
  231loPI   C1A 3687  10.137  14.786   9.005 -0.3147 -0.0391 -0.0635
  231loPI   C2A 3688  10.231  14.836   8.506 -0.0139 -0.2366  0.3309
  231loPI   C3A 3689  10.440  14.709   8.097  0.2123  0.0473  0.0400
  231loPI   C4A 3690  10.383  14.398   7.887  0.0624  0.1489  0.1028
  231loPI   C5A 3691  10.213  14.400   7.507 -0.0641 -0.1311  0.0334
  231loPI   C6A 3692  10.118  14.007   7.178 -0.0528 -0.1516  0.3562
  231loPI   C1B 3693  10.150  14.057   9.057 -0.1637 -0.2726 -0.2769
  231loPI   C2B 3694  10.172  13.983   8.656  0.0512 -0.0895 -0.1152
  231loPI   C3B 3695  10.087  13.962   8.183  0.1627  0.1998  0.4264
  231loPI   C4B 3696  10.094  13.963   7.730  0.2569  0.1432  0.4543
  232loPI    C1 3697  15.473   9.849   9.677  0.0046  0.1282  0.1257
  232loPI    C2 3698  15.163   9.893   9.925  0.0391 -0.1548  0.2227
  232loPI    C3 3699  15.438   9.612   9.997  0.1074 -0.1676 -0.0779
  232loPI   PO4 3700  15.393   9.930   9.384  0.2036  0.0979 -0.0227
  232loPI   GL1 3701  15.297   9.747   9.040 -0.0673  0.1442 -0.0795
  232loPI   GL2 3702  15.083   9.592   9.119 -0.0664 -0.1656 -0.3611
  232loPI   C1A 3703  15.243   9.896   8.629  0.2502 -0.0139  0.1533
  232loPI   C2A 3704  15.217   9.977   8.200  0.0054 -0.0026 -0.3045
  232loPI   C3A 3705  14.988   9.873   7.894  0.0924 -0.1568  0.1119
  232loPI   C4A 3706  14.881  10.204   7.537  0.0613 -0.0819 -0.0496
  232loPI   C5A 3707  14.970  10.601   7.609  0.2468  0.1966  0.0945
  232loPI   C6A 3708  14.674  10.941   7.351  0.3085  0.2797  0.3833
  232loPI   C1B 3709  14.871   9.560   8.707 -0.0981 -0.1401  0.0895
  232loPI   C2B 3710  14.793   9.585   8.289  0.1470  0.0804 -0.0783
  232loPI   C3B 3711  14.599   9.598   7.950 -0.3342  0.0575 -0.0426
  232loPI   C4B 3712  14.718   9.723   7.442 -0.1184 -0.2705  0.4379
  233loPI    C1 3713   4.517  10.289  10.023 -0.0401  0.0063  0.3753
  233loPI    C2 3714   4.215  10.283  10.284 -0.0434  0.1056  0.3739
  233loPI    C3 3715   4.520  10.028  10.326 -0.1905 -0.0853  0.2995
  233loPI   PO4 3716   4.370  10.297   9.794 -0.2473 -0.0381 -0.1469
  233loPI   GL1 3717   4.273  10.237   9.295  0.3455  0.1143 -0.3536
  233loPI   GL2 3718   4.301   9.935   9.292  0.0478 -0.2507  0.0376
  233loPI   C1A 3719   4.451  10.334   8.893 -0.1293  0.1424 -0.2457
  233loPI   C2A 3720   4.469  10.329   8.517 -0.0229  0.2814 -0.2446
  233loPI   C3A 3721   4.627  10.392   8.116  0.0914  0.3623  0.2670
  233loPI   C4A 3722   4.539  10.408   7.744  0.2910  0.0336 -0.1493
  233loPI   C5A 3723   4.463  10.528   7.274  0.1675 -0.1806 -0.1842
  233loPI   C6A 3724   4.185  10.653   6.918 -0.0324 -0.3182  0.0599
  233loPI   C1B 3725   4.777  10.101   9.222  0.0508  0.3629  0.0221
  233loPI   C2B 3726   4.929  10.170   8.782 -0.0902 -0.0993 -0.1041
  233loPI   C3B 3727   5.112  10.197   8.374 -0.1235 -0.0881 -0.1022
  233loPI   C4B 3728   5.424  10.063   7.959  0.0062  0.2094 -0.0776
  234loPI    C1 3729  12.457   3.574  10.712  0.1234 -0.0818 -0.2327
  234loPI    C2 3730  12.546   3.598  11.101 -0.0873 -0.1815 -0.1772
  234loPI    C3 3731  12.422   3.923  10.904  0.2287 -0.0804 -0.2153
  234loPI   PO4 3732  12.701   3.446  10.495  0.0573  0.2333  0.1339
  234loPI   GL1 3733  12.828   3.264  10.091 -0.0174 -0.1993  0.1778
  234loPI   GL2 3734  12.706   3.528   9.899  0.2895 -0.0238 -0.0705
  234loPI   C1A 3735  12.883   3.138   9.703 -0.0736 -0.1901  0.0739
  234loPI   C2A 3736  12.856   3.176   9.259 -0.0478 -0.0864 -0.2104
  234loPI   C3A 3737  12.786   3.069   8.820 -0.0166 -0.0027  0.4384
  234loPI   C4A 3738  12.959   3.050   8.376  0.2010 -0.1425 -0.0732
  234loPI   C5A 3739  13.052   2.840   8.084  0.2824 -0.0358  0.2134
  234loPI   C6A 3740  13.190   2.555   7.842  0.0537  0.0588  0.1061
  234loPI   C1B 3741  12.784   3.724   9.405  0.0636  0.0323  0.0085
  234loPI   C2B 3742  12.812   3.668   8.995  0.2897  0.0632  0.2068
  234loPI   C3B 3743  12.881   3.563   8.508  0.0539  0.1550 -0.1612
  234loPI   C4B 3744  13.059   3.413   8.048 -0.0919 -0.0813 -0.3196
  235loPI    C1 3745  13.616  10.152  10.036  0.0422  0.0094  0.0332
  235loPI    C2 3746  13.579  10.018  10.411 -0.0014  0.0997  0.0613
  235loPI    C3 3747  13.533  10.408  10.333  0.2669  0.1212  0.0021
  235loPI   PO4 3748  13.716   9.918   9.895 -0.1179  0.0715  0.1022
  235loPI   GL1 3749  13.861   9.780   9.514  0.2885 -0.0153  0.0669
  235loPI   GL2 3750  13.655   9.647   9.269 -0.1216  0.1479  0.0528
  235loPI   C1A 3751  13.866  10.020   9.089 -0.2444  0.1364  0.2994
  235loPI   C2A 3752  13.782   9.967   8.646 -0.2907 -0.0775  0.1711
  235loPI   C3A 3753  13.769  10.101   8.322  0.3022  0.0124 -0.2568
  235loPI   C4A 3754  13.782  10.209   7.950  0.1928 -0.1932 -0.1599
  235loPI   C5A 3755  13.885  10.291   7.514 -0.2067 -0.1883 -0.2486
  235loPI   C6A 3756  13.817  10.275   7.114 -0.0568  0.0673 -0.2299
  235loPI   C1B 3757  13.644   9.519   8.831  0.1089  0.2841  0.0416
  235loPI   C2B 3758  13.537   9.572   8.385  0.0254  0.2640  0.0370
  235loPI   C3B 3759  13.412   9.812   7.966  0.0257  0.0639  0.0041
  235loPI   C4B 3760  13.172   9.700   7.584  0.1834  0.3261 -0.3961
  236loPI    C1 3761  11.118   1.960  10.125 -0.0542 -0.0232  0.1077
  236loPI    C2 3762  11.366   1.720  10.328 -0.2361 -0.1857  0.1418
  236loPI    C3 3763  11.090   1.934  10.523 -0.0824  0.0456  0.1103
  236loPI   PO4 3764  11.214   1.732   9.833  0.0635 -0.0337 -0.3063
  236loPI   GL1 3765  11.191   1.650   9.337 -0.0977  0.4423  0.1075
  236loPI   GL2 3766  10.831   1.544   9.316 -0.0374  0.1219  0.0378
  236loPI   C1A 3767  11.370   1.692   8.914 -0.0131  0.0106 -0.1620
  236loPI   C2A 3768  11.373   1.663   8.483  0.2479 -0.0802  0.2601
  236loPI   C3A 3769  11.367   1.755   8.069  0.0217  0.2708 -0.4255
  236loPI   C4A 3770  11.533   1.935   7.862  0.0465 -0.2110  0.0615
  236loPI   C5A 3771  11.804   2.278   7.714 -0.0331  0.0749 -0.1163
  236loPI   C6A 3772  11.713   2.549   7.425  0.1972 -0.0267 -0.0893
  236loPI   C1B 3773  10.877   1.887   8.973 -0.0635 -0.1672 -0.0082
  236loPI   C2B 3774  11.037   2.082   8.680  0.0510 -0.0149 -0.2408
  236loPI   C3B 3775  11.093   2.120   8.350  0.1930  0.0402 -0.0352
  236loPI   C4B 3776  11.295   2.323   7.986  0.2118  0.0971 -0.0170
  237loPI    C1 3777  17.747   2.777   9.585  0.0268  0.1835  0.0685
  237loPI    C2 3778  17.811   2.729   9.977 -0.1837 -0.2853  0.0515
  237loPI    C3 3779  17.497   2.942   9.850  0.0538  0.1226  0.1319
  237loPI   PO4 3780  17.995   2.758   9.511  0.3016 -0.1747 -0.0807
  237loPI   GL1 3781  18.163   2.896   9.203 -0.2584 -0.1223  0.1055
  237loPI   GL2 3782  18.478   3.066   9.241 -0.2745  0.1466  0.2516
  237loPI   C1A 3783  18.132   3.312   8.979  0.1331 -0.1422  0.3587
  237loPI   C2A 3784  18.141   3.237   8.492 -0.2955  0.1144  0.2657
  237loPI   C3A 3785  18.230   3.360   8.023  0.0495 -0.3076 -0.1720
  237loPI   C4A 3786  18.281   3.498   7.612 -0.0160  0.0011  0.1517
  237loPI   C5A 3787  18.587   3.612   7.425  0.2836  0.0373 -0.0377
  237loPI   C6A 3788  18.821   3.663   7.091 -0.1023  0.0962 -0.2735
  237loPI   C1B 3789  18.423   2.991   8.788 -0.0139 -0.1975  0.0189
  237loPI   C2B 3790  18.555   2.914   8.313 -0.3299  0.1423 -0.1088
  237loPI   C3B 3791  18.493   2.648   7.900 -0.0127  0.0890  0.0591
  237loPI   C4B 3792  18.394   2.583   7.469 -0.0476 -0.0960  0.0861
  238loPI    C1 3793   7.786  18.999   9.905  0.0721 -0.0761  0.0129
  238loPI    C2 3794   7.409  19.062  10.022  0.1787  0.1428  0.2473
  238loPI    C3 3795   7.645  18.816  10.231  0.2192  0.1442  0.2035
  238loPI   PO4 3796   7.726  18.926   9.686  0.1347 -0.1231  0.1669
  238loPI   GL1 3797   7.741  19.074   9.267 -0.0435 -0.1581 -0.0976
  238loPI   GL2 3798   7.500  18.681   9.291 -0.2695 -0.0473 -0.3740
  238loPI   C1A 3799   7.517  19.160   8.896 -0.0841  0.2095  0.0215
  238loPI   C2A 3800   7.568  19.000   8.455  0.2318  0.0234 -0.3866
  238loPI   C3A 3801   7.767  18.870   8.088  0.3074  0.1716  0.1022
  238loPI   C4A 3802   7.938  18.780   7.669  0.0799 -0.3503 -0.1168
  238loPI   C5A 3803   8.061  18.854   7.204  0.2972  0.0547  0.1581
  238loPI   C6A 3804   7.817  18.971   6.900  0.1600  0.0009 -0.2754
  238loPI   C1B 3805   7.625  18.530   8.979 -0.1819 -0.1346 -0.3663
  238loPI   C2B 3806   7.552  18.531   8.600  0.0202  0.2497  0.2103
  238loPI   C3B 3807   7.546  18.414   8.153  0.1276  0.0083  0.0620
  238loPI   C4B 3808   7.466  18.526   7.726 -0.0487  0.0878  0.0614
  239loPI    C1 3809   5.019   2.833   9.759  0.0513 -0.2560  0.0292
  239loPI    C2 3810   5.175   3.157   9.934 -0.1330 -0.0043 -0.2601
  239loPI    C3 3811   5.024   2.861  10.158 -0.2712  0.2619  0.0063
  239loPI   PO4 3812   5.138   2.813   9.535 -0.0542  0.0782  0.1703
  239loPI   GL1 3813   5.210   2.982   9.072 -0.0346 -0.2497 -0.2031
  239loPI   GL2 3814   5.498   2.932   9.196 -0.0865  0.0082  0.2835
  239loPI   C1A 3815   5.437   2.937   8.635  0.1853  0.2526  0.0479
  239loPI   C2A 3816   5.528   2.950   8.278 -0.1470 -0.0374 -0.4601
  239loPI   C3A 3817   5.612   2.929   7.934  0.1577 -0.2634  0.0855
  239loPI   C4A 3818   5.832   2.890   7.539 -0.0366 -0.6545  0.0830
  239loPI   C5A 3819   6.175   2.731   7.317  0.3325 -0.0379  0.0092
  239loPI   C6A 3820   6.479   2.324   7.389 -0.4433  0.3307  0.0327
  239loPI   C1B 3821   5.766   2.736   8.934  0.1830 -0.0876 -0.0204
  239loPI   C2B 3822   5.889   2.633   8.581 -0.2688 -0.0024  0.1350
  239loPI   C3B 3823   6.037   2.550   8.244  0.0651  0.3456 -0.3543
  239loPI   C4B 3824   5.998   2.573   7.890  0.0870 -0.1008  0.0202
  240loPI    C1 3825  16.663   2.570  10.011  0.0957  0.1506 -0.2883
  240loPI    C2 3826  17.059   2.615   9.981  0.0771  0.4262 -0.1539
  240loPI    C3 3827  16.858   2.807  10.267 -0.1363  0.1743 -0.1309
  240loPI   PO4 3828  16.590   2.619   9.672 -0.0582  0.1854 -0.3738
  240loPI   GL1 3829  16.630   2.833   9.340 -0.1852  0.0744  0.0938
  240loPI   GL2 3830  16.865   3.021   9.197  0.2954 -0.0278 -0.0354
  240loPI   C1A 3831  16.607   2.670   8.807  0.1561 -0.1211 -0.0209
  240loPI   C2A 3832  16.561   2.779   8.435  0.1578  0.4546  0.0409
  240loPI   C3A 3833  16.693   2.842   7.931 -0.1104 -0.2468 -0.3141
  240loPI   C4A 3834  16.642   3.145   7.664 -0.1298 -0.1538  0.0829
  240loPI   C5A 3835  16.530   3.548   7.504 -0.0475 -0.4650 -0.0809
  240loPI   C6A 3836  16.435   3.797   7.195 -0.2998 -0.4064 -0.0703
  240loPI   C1B 3837  16.827   3.128   8.773  0.2402 -0.1543  0.0401
  240loPI   C2B 3838  16.865   3.145   8.339  0.1246 -0.0866 -0.0338
  240loPI   C3B 3839  17.073   3.114   7.915 -0.0586  0.0376  0.0543
  240loPI   C4B 3840  17.134   3.273   7.511 -0.1019 -0.1676 -0.0497
  241loPI    C1 3841  14.858  16.764   9.645 -0.2384  0.2106  0.0360
  241loPI    C2 3842  15.053  16.572   9.937 -0.1251  0.3205  0.0335
  241loPI    C3 3843  15.124  16.960   9.871 -0.0549  0.2656 -0.2236
  241loPI   PO4 3844  14.927  16.712   9.378 -0.3005 -0.3073  0.0189
  241loPI   GL1 3845  14.816  16.841   8.947  0.0749 -0.0410  0.2877
  241loPI   GL2 3846  15.108  16.872   8.906 -0.1455  0.0049 -0.0746
  241loPI   C1A 3847  14.721  16.566   8.694  0.2317 -0.0785 -0.2839
  241loPI   C2A 3848  14.578  16.441   8.334 -0.0750 -0.0738  0.0216
  241loPI   C3A 3849  14.386  16.533   8.005  0.3603 -0.1113 -0.2431
  241loPI   C4A 3850  14.184  16.596   7.630 -0.1132 -0.2483 -0.0758
  241loPI   C5A 3851  13.997  16.642   7.195 -0.2222 -0.0638 -0.0090
  241loPI   C6A 3852  13.797  16.537   6.830 -0.1961 -0.1080  0.1809
  241loPI   C1B 3853  15.291  16.910   8.520 -0.1303 -0.0443  0.3000
  241loPI   C2B 3854  15.272  16.838   8.054  0.0279 -0.1877  0.3012
  241loPI   C3B 3855  15.191  17.114   7.624 -0.0872 -0.0063 -0.1282
  241loPI   C4B 3856  14.833  17.256   7.485  0.0128  0.1398  0.1546
  242loPI    C1 3857  10.724   2.966   9.788  0.0902  0.0173  0.1490
  242loPI    C2 3858  10.677   2.748  10.120 -0.0962 -0.0179  0.1006
  242loPI    C3 3859  10.863   2.591   9.802  0.1121  0.0273  0.1985
  242loPI   PO4 3860  10.483   3.060   9.695 -0.0202  0.2225 -0.0299
  242loPI   GL1 3861  10.333   2.889   9.288 -0.0215  0.1281 -0.2006
  242loPI   GL2 3862  10.129   3.216   9.407  0.0767  0.0367  0.2397
  242loPI   C1A 3863  10.569   3.075   8.919 -0.0966  0.0515 -0.2296
  242loPI   C2A 3864  10.709   3.236   8.522 -0.0636  0.2055 -0.1347
  242loPI   C3A 3865  10.821   3.316   8.154  0.1134 -0.2181  0.0639
  242loPI   C4A 3866  10.978   3.559   7.842  0.1530 -0.3758  0.1743
  242loPI   C5A 3867  10.802   3.876   7.556  0.2310 -0.2058  0.0152
  242loPI   C6A 3868  10.696   4.210   7.292  0.3638  0.0529  0.0905
  242loPI   C1B 3869  10.113   3.333   9.105  0.3667  0.1606  0.0569
  242loPI   C2B 3870  10.199   3.284   8.634 -0.0042 -0.1018 -0.1634
  242loPI   C3B 3871  10.231   3.346   8.287 -0.0483 -0.1289  0.1791
  242loPI   C4B 3872  10.238   3.404   7.792 -0.6765  0.2976 -0.1725
  243loPI    C1 3873  12.575   2.955  10.499 -0.1629 -0.0296 -0.1153
  243loPI    C2 3874  12.952   2.847  10.424 -0.1994 -0.0792 -0.2307
  243loPI    C3 3875  12.776   2.735  10.765 -0.0369  0.1342 -0.0729
  243loPI   PO4 3876  12.449   2.908  10.242  0.0772  0.1503 -0.0999
  243loPI   GL1 3877  12.304   3.194   9.978 -0.1462 -0.0395  0.3056
  243loPI   GL2 3878  12.155   3.544   9.770 -0.2184  0.0727  0.1650
  243loPI   C1A 3879  12.387   3.294   9.468 -0.1136  0.4293 -0.1465
  243loPI   C2A 3880  12.328   3.486   9.034  0.2080 -0.0773  0.1699
  243loPI   C3A 3881  12.448   3.420   8.697 -0.0927 -0.0877  0.2644
  243loPI   C4A 3882  12.410   3.483   8.214 -0.1207  0.0794 -0.0530
  243loPI   C5A 3883  12.628   3.507   7.799 -0.2070  0.4089  0.1654
  243loPI   C6A 3884  13.083   3.643   7.564  0.1791 -0.0913 -0.2399
  243loPI   C1B 3885  11.939   3.766   9.403  0.0252  0.2485 -0.0421
  243loPI   C2B 3886  11.950   3.779   8.914  0.1462 -0.0999 -0.1719
  243loPI   C3B 3887  11.806   4.090   8.594 -0.2345 -0.1140 -0.1834
  243loPI   C4B 3888  11.639   4.503   8.725 -0.1436 -0.2000  0.2428
  244loPI    C1 3889   5.159  15.651  10.286  0.2111  0.2044  0.0169
  244loPI    C2 3890   5.017  16.015  10.371  0.2884  0.2150  0.1021
  244loPI    C3 3891   5.207  15.803  10.653  0.0219  0.0040  0.1274
  244loPI   PO4 3892   5.116  15.585   9.978 -0.1026  0.0221  0.1651
  244loPI   GL1 3893   4.904  15.645   9.623  0.2359  0.0770 -0.0264
  244loPI   GL2 3894   4.909  15.430   9.401 -0.2124  0.0587 -0.0848
  244loPI   C1A 3895   4.708  15.869   9.194 -0.2348  0.0146 -0.0170
  244loPI   C2A 3896   4.922  15.774   8.879 -0.1271 -0.2248  0.4686
  244loPI   C3A 3897   4.923  15.808   8.381  0.0251 -0.1098 -0.0525
  244loPI   C4A 3898   5.058  15.725   8.052  0.2633  0.0498 -0.1523
  244loPI   C5A 3899   5.376  15.840   7.830  0.1140 -0.3935 -0.0709
  244loPI   C6A 3900   5.786  16.185   7.684  0.0080  0.0022 -0.1810
  244loPI   C1B 3901   4.792  15.344   9.012 -0.3537  0.0580 -0.0651
  244loPI   C2B 3902   4.695  15.274   8.641  0.0552 -0.2232  0.5156
  244loPI   C3B 3903   4.651  14.990   8.341  0.0717 -0.1349 -0.0524
  244loPI   C4B 3904   4.503  15.018   7.990  0.4344  0.2249  0.1055
  245loPI    C1 3905   9.381   8.562  10.419 -0.0559  0.0234 -0.0882
  245loPI    C2 3906   9.532   8.875  10.618 -0.2479  0.2030 -0.2206
  245loPI    C3 3907   9.501   8.519  10.798 -0.1568  0.2935 -0.0233
  245loPI   PO4 3908   9.470   8.644  10.106 -0.2869 -0.0018  0.1982
  245loPI   GL1 3909   9.547   8.489   9.686 -0.0037 -0.2546 -0.0925
  245loPI   GL2 3910   9.540   8.917   9.664 -0.0676 -0.1027 -0.0353
  245loPI   C1A 3911   9.663   8.052   9.578 -0.0413  0.0113 -0.1272
  245loPI   C2A 3912   9.645   7.961   9.250  0.1088 -0.0242 -0.4496
  245loPI   C3A 3913   9.672   7.635   9.038 -0.0843  0.1196 -0.2179
  245loPI   C4A 3914   9.708   7.565   8.609 -0.0052  0.2396 -0.1387
  245loPI   C5A 3915   9.782   7.691   8.140  0.1926  0.2041  0.1574
  245loPI   C6A 3916   9.474   7.889   7.900  0.2863  0.3479 -0.1223
  245loPI   C1B 3917   9.605   9.046   9.335  0.0585  0.1331 -0.3708
  245loPI   C2B 3918   9.616   8.812   8.898  0.0108  0.0348  0.4505
  245loPI   C3B 3919   9.558   8.684   8.538 -0.0598 -0.2499  0.0370
  245loPI   C4B 3920   9.522   8.343   8.321 -0.0203  0.0464  0.2043
  246loPI    C1 3921  13.641  13.385   9.787 -0.2316  0.0998  0.1508
  246loPI    C2 3922  13.702  13.013   9.922 -0.1423  0.0840  0.0683
  246loPI    C3 3923  13.874  13.324  10.106 -0.2970  0.0943  0.1977
  246loPI   PO4 3924  13.520  13.382   9.529  0.0341  0.4878  0.1677
  246loPI   GL1 3925  13.653  13.499   9.075 -0.0030 -0.1095 -0.0191
  246loPI   GL2 3926  13.456  13.191   8.926  0.2318  0.0284  0.3180
  246loPI   C1A 3927  13.584  13.641   8.672 -0.3288 -0.0538  0.0475
  246loPI   C2A 3928  13.654  13.792   8.247 -0.1424 -0.2084 -0.1859
  246loPI   C3A 3929  13.709  13.770   7.833 -0.3365  0.2858  0.0908
  246loPI   C4A 3930  13.565  13.767   7.461 -0.2096 -0.0991  0.0680
  246loPI   C5A 3931  13.387  14.077   7.138 -0.0611  0.2337 -0.1767
  246loPI   C6A 3932  13.058  14.004   6.769 -0.0794 -0.0620 -0.0684
  246loPI   C1B 3933  13.459  13.095   8.539 -0.0949  0.3347  0.0674
  246loPI   C2B 3934  13.495  12.776   8.226 -0.0074  0.0562  0.1484
  246loPI   C3B 3935  13.756  12.813   7.886 -0.3373 -0.1122 -0.2196
  246loPI   C4B 3936  13.859  12.789   7.412  0.2441  0.2800  0.3083
  247loPI    C1 3937   7.872  15.661  10.085 -0.0349 -0.0511  0.1385
  247loPI    C2 3938   8.147  15.534  10.345  0.3186  0.1405 -0.1331
  247loPI    C3 3939   8.213  15.865  10.131 -0.2895  0.4047  0.0679
  247loPI   PO4 3940   7.849  15.436   9.946  0.1120 -0.2815 -0.0853
  247loPI   GL1 3941   7.919  15.355   9.551 -0.0243 -0.1521 -0.2334
  247loPI   GL2 3942   7.970  15.728   9.484  0.1656 -0.1212  0.0554
  247loPI   C1A 3943   7.623  15.271   9.175  0.0471 -0.1030  0.0408
  247loPI   C2A 3944   7.446  14.973   8.810 -0.3301  0.0763 -0.1647
  247loPI   C3A 3945   7.416  14.753   8.419 -0.2097 -0.1178  0.3048
  247loPI   C4A 3946   7.439  14.790   8.006 -0.0927 -0.0179  0.1331
  247loPI   C5A 3947   7.265  14.554   7.650 -0.1585 -0.1520  0.2724
  247loPI   C6A 3948   7.293  14.240   7.447  0.0108 -0.3709  0.0525
  247loPI   C1B 3949   7.873  15.688   9.014 -0.1042 -0.2032 -0.1720
  247loPI   C2B 3950   7.626  15.620   8.667 -0.2831  0.0537  0.0351
  247loPI   C3B 3951   7.513  15.878   8.241 -0.0112  0.4104 -0.0601
  247loPI   C4B 3952   7.461  16.339   8.237  0.0383  0.1121 -0.1007
  248loPI    C1 3953  17.691  17.901  10.023 -0.1320 -0.2960 -0.0345
  248loPI    C2 3954  17.414  18.138  10.188 -0.0115 -0.0891 -0.1260
  248loPI    C3 3955  17.611  17.874  10.414  0.0330  0.0751  0.0291
  248loPI   PO4 3956  17.593  17.829   9.777 -0.1780 -0.0384  0.1901
  248loPI   GL1 3957  17.346  17.801   9.379  0.0026  0.0994  0.1767
  248loPI   GL2 3958  17.239  18.074   9.142 -0.1564  0.1647 -0.1895
  248loPI   C1A 3959  17.644  17.851   8.933 -0.1145 -0.0953  0.0224
  248loPI   C2A 3960  17.562  17.637   8.504 -0.1868  0.0356  0.1704
  248loPI   C3A 3961  17.416  17.374   8.070 -0.1635  0.0401  0.0960
  248loPI   C4A 3962  17.494  17.334   7.620  0.0560 -0.1577 -0.0574
  248loPI   C5A 3963  17.888  17.359   7.339 -0.2368  0.2010 -0.0049
  248loPI   C6A 3964  18.221  17.514   6.899  0.0234 -0.1521 -0.4261
  248loPI   C1B 3965  17.323  18.138   8.615  0.1461  0.1533  0.0821
  248loPI   C2B 3966  17.492  18.314   8.180  0.1701 -0.1612 -0.0285
  248loPI   C3B 3967  17.905  18.329   7.967  0.0726  0.2063 -0.1110
  248loPI   C4B 3968  18.125  17.939   7.793  0.1484  0.1336 -0.1005
  249loPI    C1 3969  16.743   7.684  10.031  0.0174 -0.1878 -0.0968
  249loPI    C2 3970  16.405   7.715  10.242  0.1192  0.2035  0.0175
  249loPI    C3 3971  16.758   7.712  10.430  0.1901  0.0058 -0.1153
  249loPI   PO4 3972  16.668   7.821   9.820  0.0224  0.1465 -0.0325
  249loPI   GL1 3973  16.405   7.915   9.445 -0.2146  0.3140  0.1935
  249loPI   GL2 3974  16.157   7.729   9.288  0.0707  0.0075 -0.2865
  249loPI   C1A 3975  16.400   8.058   8.976  0.0642  0.2663  0.2333
  249loPI   C2A 3976  16.366   8.086   8.538  0.0230 -0.1539 -0.4048
  249loPI   C3A 3977  16.419   8.190   8.000 -0.1790 -0.0491  0.3151
  249loPI   C4A 3978  16.411   8.048   7.592 -0.1382  0.0414  0.0132
  249loPI   C5A 3979  16.619   8.124   7.187  0.5132 -0.1528 -0.3053
  249loPI   C6A 3980  16.827   7.996   6.843 -0.3023  0.2413  0.3459
  249loPI   C1B 3981  16.139   7.646   8.818  0.1444  0.0948 -0.1515
  249loPI   C2B 3982  16.112   7.661   8.524  0.1451  0.0368  0.2062
  249loPI   C3B 3983  16.170   7.749   8.169 -0.4847  0.4103 -0.3730
  249loPI   C4B 3984  15.946   7.594   7.786 -0.1076 -0.0267  0.1917
  250loPI    C1 3985   4.865  11.813  10.400 -0.1204 -0.2533 -0.0257
  250loPI    C2 3986   4.508  11.633  10.384 -0.0851 -0.3233 -0.0309
  250loPI    C3 3987   4.738  11.591  10.708 -0.1350 -0.1760  0.0243
  250loPI   PO4 3988   4.945  11.935  10.285 -0.2527 -0.2439 -0.4022
  250loPI   GL1 3989   4.896  11.977   9.812  0.1855  0.1325 -0.1411
  250loPI   GL2 3990   5.015  12.277   9.769  0.0497 -0.0571  0.1969
  250loPI   C1A 3991   4.908  11.649   9.529  0.0928 -0.1440 -0.2578
  250loPI   C2A 3992   5.069  11.681   9.103  0.1271 -0.0028  0.2070
  250loPI   C3A 3993   5.168  11.634   8.699 -0.0931 -0.1944 -0.0866
  250loPI   C4A 3994   5.021  11.731   8.320  0.1527 -0.2315  0.3544
  250loPI   C5A 3995   5.091  11.687   7.892  0.1922 -0.1222 -0.0813
  250loPI   C6A 3996   5.161  11.478   7.579  0.1899 -0.0694 -0.1145
  250loPI   C1B 3997   4.830  12.114   9.391  0.1401  0.2562 -0.3017
  250loPI   C2B 3998   4.781  12.175   8.987  0.3589  0.3057  0.4503
  250loPI   C3B 3999   4.852  12.201   8.480  0.1411  0.1665 -0.0034
  250loPI   C4B 4000   4.841  12.142   8.022 -0.1953 -0.1340  0.0988
  251loPI    C1 4001   6.217   1.563   9.830 -0.1457  0.1434 -0.3639
  251loPI    C2 4002   6.017   1.873   9.984  0.0363  0.1681 -0.1722
  251loPI    C3 4003   6.415   1.888   9.951  0.0593 -0.0961 -0.0400
  251loPI   PO4 4004   6.137   1.481   9.616 -0.0144 -0.0792  0.2171
  251loPI   GL1 4005   6.181   1.667   9.200  0.2570 -0.1500 -0.2793
  251loPI   GL2 4006   6.324   1.349   9.138  0.1697  0.0398  0.1002
  251loPI   C1A 4007   6.064   1.734   8.735 -0.0509  0.0361 -0.1254
  251loPI   C2A 4008   6.019   1.539   8.469  0.2161 -0.2845  0.2675
  251loPI   C3A 4009   5.983   1.571   8.061  0.0878  0.0542 -0.0558
  251loPI   C4A 4010   5.983   1.771   7.617  0.0153  0.1652 -0.1701
  251loPI   C5A 4011   6.234   1.779   7.333  0.1762 -0.1995  0.0254
  251loPI   C6A 4012   6.560   1.636   7.047  0.2016  0.4466 -0.1787
  251loPI   C1B 4013   6.367   1.275   8.672 -0.1361  0.2432  0.2371
  251loPI   C2B 4014   6.469   1.420   8.273 -0.2326  0.0585  0.0009
  251loPI   C3B 4015   6.358   1.484   7.785  0.0943  0.0674 -0.0714
  251loPI   C4B 4016   6.329   1.330   7.370 -0.0072  0.0990 -0.2038
  252loPI    C1 4017  16.469   4.020   9.996  0.1602 -0.1077 -0.0451
  252loPI    C2 4018  16.366   4.196  10.340 -0.1045 -0.2876 -0.0294
  252loPI    C3 4019  16.526   3.829  10.343 -0.0240 -0.2534 -0.0937
  252loPI   PO4 4020  16.251   4.128   9.863  0.0484 -0.3184  0.0277
  252loPI   GL1 4021  16.211   3.893   9.522  0.0310  0.3391 -0.0612
  252loPI   GL2 4022  16.502   3.913   9.421  0.1417  0.5188 -0.1091
  252loPI   C1A 4023  15.991   4.009   9.194  0.0351  0.0509  0.3024
  252loPI   C2A 4024  15.826   4.072   8.786 -0.0151 -0.2647 -0.2688
  252loPI   C3A 4025  15.704   4.111   8.388  0.0266 -0.1438 -0.2297
  252loPI   C4A 4026  15.710   4.235   7.994  0.1364  0.5981 -0.0188
  252loPI   C5A 4027  15.883   4.396   7.664 -0.1386 -0.1979 -0.2368
  252loPI   C6A 4028  15.890   4.469   7.231 -0.1734 -0.2104 -0.0096
  252loPI   C1B 4029  16.834   4.052   9.209 -0.1496  0.1001 -0.1889
  252loPI   C2B 4030  16.797   4.121   8.768  0.0298 -0.1738  0.2293
  252loPI   C3B 4031  16.655   4.355   8.391 -0.0936  0.5966 -0.0377
  252loPI   C4B 4032  16.973   4.596   8.104 -0.0351 -0.0448  0.0652
  253loPI    C1 4033   5.427  18.976   9.915 -0.1003 -0.0674  0.2712
  253loPI    C2 4034   5.542  19.267  10.165  0.0256  0.1095  0.0112
  253loPI    C3 4035   5.199  19.301   9.962 -0.0726 -0.0305  0.1513
  253loPI   PO4 4036   5.730  18.914   9.732 -0.4094  0.1379 -0.1731
  253loPI   GL1 4037   5.779  18.916   9.224  0.0732  0.2232 -0.3358
  253loPI   GL2 4038   5.402  18.832   9.078  0.3528 -0.0814  0.0280
  253loPI   C1A 4039   5.698  19.058   8.775 -0.1998  0.3531 -0.0635
  253loPI   C2A 4040   5.643  19.040   8.276  0.0312  0.1328 -0.2157
  253loPI   C3A 4041   5.787  19.021   7.889 -0.0528  0.0641  0.2028
  253loPI   C4A 4042   5.810  19.309   7.555  0.0284 -0.0074 -0.0852
  253loPI   C5A 4043   5.579  19.702   7.357 -0.0812 -0.2011 -0.1175
  253loPI   C6A 4044   5.137  19.805   7.292  0.1521 -0.2068 -0.2620
  253loPI   C1B 4045   5.501  18.567   8.718 -0.2709 -0.4445 -0.1426
  253loPI   C2B 4046   5.525  18.523   8.283  0.3162 -0.0758  0.2712
  253loPI   C3B 4047   5.727  18.497   7.906 -0.1728 -0.4064  0.2489
  253loPI   C4B 4048   5.897  18.730   7.455  0.0672 -0.2991 -0.0531
  254loPI    C1 4049   8.002   3.990  10.043 -0.2627  0.0797 -0.3135
  254loPI    C2 4050   7.904   4.001  10.430 -0.4334  0.1346 -0.3572
  254loPI    C3 4051   7.930   3.650  10.241 -0.0120  0.0828 -0.2140
  254loPI   PO4 4052   7.915   4.156   9.948 -0.2597  0.0182 -0.0183
  254loPI   GL1 4053   8.021   4.383   9.654 -0.2739  0.1608  0.0186
  254loPI   GL2 4054   7.924   4.698   9.806 -0.0102 -0.0477  0.0353
  254loPI   C1A 4055   7.941   4.428   9.158  0.1800 -0.1389  0.0251
  254loPI   C2A 4056   7.695   4.430   8.747 -0.0643 -0.0755 -0.0304
  254loPI   C3A 4057   7.708   4.522   8.371  0.3472  0.0014  0.0304
  254loPI   C4A 4058   7.521   4.463   7.964  0.1176 -0.0498  0.2221
  254loPI   C5A 4059   7.448   4.360   7.546 -0.0051 -0.1655  0.1757
  254loPI   C6A 4060   7.789   4.471   7.301 -0.0380  0.3330  0.3203
  254loPI   C1B 4061   8.110   4.872   9.335 -0.1020  0.0961 -0.1937
  254loPI   C2B 4062   8.392   4.968   8.953  0.1940 -0.5021 -0.2534
  254loPI   C3B 4063   8.643   4.888   8.518 -0.1510  0.0658  0.1770
  254loPI   C4B 4064   8.552   4.923   8.162 -0.1742  0.0434  0.1993
  255loPI    C1 4065   8.028   7.636  10.626  0.0821  0.0359  0.1532
  255loPI    C2 4066   8.079   7.363  10.913  0.1912 -0.1134 -0.0062
  255loPI    C3 4067   8.070   7.752  11.007 -0.2035 -0.1791  0.2531
  255loPI   PO4 4068   7.869   7.566  10.404 -0.2088 -0.2236  0.0021
  255loPI   GL1 4069   8.015   7.816   9.962 -0.1574 -0.2241  0.3995
  255loPI   GL2 4070   7.931   8.106   9.823  0.1508 -0.1421  0.0436
  255loPI   C1A 4071   8.177   7.599   9.716 -0.0570 -0.0612 -0.1750
  255loPI   C2A 4072   8.129   7.390   9.348  0.2453  0.3237  0.0367
  255loPI   C3A 4073   8.460   7.178   8.956 -0.1410 -0.0706  0.1623
  255loPI   C4A 4074   8.518   7.113   8.556 -0.0258  0.0513 -0.0634
  255loPI   C5A 4075   8.536   7.255   8.125 -0.1592 -0.1703 -0.1898
  255loPI   C6A 4076   8.942   7.446   7.949 -0.2983 -0.1834 -0.1204
  255loPI   C1B 4077   8.189   8.086   9.489  0.0298  0.1117 -0.0085
  255loPI   C2B 4078   8.435   8.177   9.044 -0.1737  0.1164  0.0675
  255loPI   C3B 4079   8.562   8.360   8.651 -0.1651  0.0902  0.2153
  255loPI   C4B 4080   8.361   8.232   8.228  0.2204  0.1177 -0.0622
  256loPI    C1 4081  12.761  14.932   9.880  0.3007 -0.1921 -0.1126
  256loPI    C2 4082  12.419  14.894  10.083  0.2347 -0.0008 -0.1860
  256loPI    C3 4083  12.617  14.568   9.962  0.0774 -0.1123 -0.1456
  256loPI   PO4 4084  12.702  15.137   9.733 -0.2120  0.1986 -0.0621
  256loPI   GL1 4085  12.484  15.136   9.353 -0.3453 -0.0333  0.0427
  256loPI   GL2 4086  12.275  15.354   9.373 -0.3397 -0.2917  0.1196
  256loPI   C1A 4087  12.264  14.970   9.039 -0.0791 -0.0273 -0.1580
  256loPI   C2A 4088  12.027  14.955   8.619 -0.1242 -0.2124 -0.2043
  256loPI   C3A 4089  11.808  14.885   8.217 -0.0958 -0.1293 -0.0872
  256loPI   C4A 4090  11.858  15.119   7.833 -0.0963  0.1799 -0.0594
  256loPI   C5A 4091  11.917  15.335   7.493 -0.2064 -0.1465  0.3098
  256loPI   C6A 4092  12.276  15.676   7.513  0.1357  0.2412  0.0512
  256loPI   C1B 4093  12.063  15.428   9.073  0.0441 -0.3078  0.0158
  256loPI   C2B 4094  11.979  15.444   8.692  0.2299 -0.0557  0.0148
  256loPI   C3B 4095  11.915  15.461   8.330 -0.4886 -0.1412  0.0197
  256loPI   C4B 4096  12.122  15.542   7.953  0.0801  0.1159 -0.0149
  257loPI    C1 4097  13.279  14.149   9.757  0.0331  0.1739 -0.0862
  257loPI    C2 4098  13.177  13.769   9.683  0.1492  0.1655 -0.2075
  257loPI    C3 4099  13.474  13.851   9.939  0.0127  0.1809 -0.0526
  257loPI   PO4 4100  13.013  14.251   9.541 -0.1462  0.2136  0.0721
  257loPI   GL1 4101  12.818  14.642   9.394  0.1325 -0.0503  0.0781
  257loPI   GL2 4102  13.042  14.778   9.227  0.0630  0.5004  0.0525
  257loPI   C1A 4103  12.479  14.518   9.098 -0.1510  0.3262 -0.0500
  257loPI   C2A 4104  12.365  14.464   8.632 -0.0961  0.1190  0.1795
  257loPI   C3A 4105  12.201  14.704   8.202 -0.3386  0.4403 -0.0402
  257loPI   C4A 4106  11.964  14.568   7.748  0.3453 -0.1405 -0.0594
  257loPI   C5A 4107  11.621  14.828   7.496 -0.0288  0.0115  0.1093
  257loPI   C6A 4108  11.339  15.030   7.204 -0.0578 -0.0436 -0.0931
  257loPI   C1B 4109  12.744  14.984   8.957 -0.4065 -0.1961  0.2255
  257loPI   C2B 4110  12.506  14.984   8.575 -0.0451  0.0332  0.0672
  257loPI   C3B 4111  12.307  15.161   8.259 -0.1327 -0.1781 -0.0274
  257loPI   C4B 4112  12.373  15.130   7.715  0.0004 -0.0268 -0.2991
  258loPI    C1 4113   5.486   5.225  10.142  0.0110  0.2354 -0.1831
  258loPI    C2 4114   5.665   5.085  10.471 -0.0641 -0.0965 -0.2786
  258loPI    C3 4115   5.377   5.361  10.502 -0.0061 -0.0570 -0.0746
  258loPI   PO4 4116   5.544   5.038   9.968  0.0963  0.0104  0.0530
  258loPI   GL1 4117   5.394   4.991   9.493 -0.1188  0.3169 -0.1231
  258loPI   GL2 4118   5.686   5.191   9.539  0.1671 -0.0984  0.1840
  258loPI   C1A 4119   5.353   5.050   9.031  0.3803 -0.2373  0.0357
  258loPI   C2A 4120   5.571   4.960   8.676 -0.0965  0.1515  0.0074
  258loPI   C3A 4121   5.626   5.102   8.269  0.1263 -0.2531 -0.0672
  258loPI   C4A 4122   5.716   5.415   7.975 -0.0006  0.1565 -0.1058
  258loPI   C5A 4123   5.940   5.325   7.599 -0.4332 -0.0233 -0.1736
  258loPI   C6A 4124   6.156   5.638   7.384  0.0928 -0.4947  0.0687
  258loPI   C1B 4125   5.823   5.070   9.150 -0.0388  0.1375 -0.1005
  258loPI   C2B 4126   5.933   5.293   8.848 -0.3897  0.1344  0.0267
  258loPI   C3B 4127   6.152   5.376   8.515 -0.1529  0.2881 -0.1651
  258loPI   C4B 4128   6.272   5.542   8.009  0.1376  0.0763  0.1202
  259loPI    C1 4129  18.921   5.576   9.565 -0.1317  0.1124  0.2867
  259loPI    C2 4130  18.635   5.301   9.621 -0.0197 -0.0691 -0.0137
  259loPI    C3 4131  18.926   5.346   9.892 -0.0833 -0.1920  0.0755
  259loPI   PO4 4132  18.804   5.717   9.328  0.1552 -0.1271  0.0493
  259loPI   GL1 4133  18.640   5.748   8.936  0.0919 -0.0213 -0.1129
  259loPI   GL2 4134  18.952   5.831   8.859 -0.0364 -0.2866 -0.2532
  259loPI   C1A 4135  18.452   5.809   8.549 -0.1192 -0.0700 -0.1679
  259loPI   C2A 4136  18.310   5.908   8.113 -0.0368 -0.4542  0.3419
  259loPI   C3A 4137  18.129   6.067   7.685 -0.1519  0.2521  0.2835
  259loPI   C4A 4138  18.140   6.211   7.382 -0.0796 -0.1668  0.2581
  259loPI   C5A 4139  18.074   6.594   7.229 -0.0183 -0.0292 -0.1849
  259loPI   C6A 4140  18.285   6.885   6.977  0.0315  0.0645  0.0286
  259loPI   C1B 4141  18.955   5.763   8.435  0.3117 -0.1052 -0.1243
  259loPI   C2B 4142  18.701   5.606   8.209  0.0254 -0.0740 -0.0402
  259loPI   C3B 4143  18.384   5.444   7.914 -0.0562 -0.0025  0.2814
  259loPI   C4B 4144  18.072   5.218   7.713 -0.0102  0.0358 -0.0698
  260loPI    C1 4145  10.663   5.452  10.318  0.0930  0.0479 -0.0888
  260loPI    C2 4146  10.450   5.223  10.567  0.0371  0.3850  0.1818
  260loPI    C3 4147  10.807   5.363  10.681  0.0206  0.5249  0.0641
  260loPI   PO4 4148  10.490   5.589  10.076 -0.4490 -0.1641  0.1120
  260loPI   GL1 4149  10.572   5.526   9.755 -0.1290  0.1614 -0.0543
  260loPI   GL2 4150  10.662   5.141   9.633 -0.1967  0.3066 -0.1213
  260loPI   C1A 4151  10.910   5.518   9.415  0.0137  0.1365 -0.2590
  260loPI   C2A 4152  10.993   5.546   8.907  0.1546 -0.1626 -0.1180
  260loPI   C3A 4153  10.815   5.576   8.525  0.1719  0.4527  0.3652
  260loPI   C4A 4154  10.721   5.652   8.142 -0.3551 -0.0127  0.1107
  260loPI   C5A 4155  10.383   5.572   7.993 -0.3345  0.0586 -0.2733
  260loPI   C6A 4156  10.301   5.474   7.503 -0.3945 -0.3803  0.0559
  260loPI   C1B 4157  10.535   5.166   9.206 -0.0522 -0.1606  0.2886
  260loPI   C2B 4158  10.534   5.182   8.799  0.2726  0.0683  0.0869
  260loPI   C3B 4159  10.534   5.084   8.315  0.1848  0.0122  0.0045
  260loPI   C4B 4160  10.771   5.003   7.865 -0.2928  0.0942  0.2194
  261loPI    C1 4161  12.876  18.011   9.963  0.0217  0.2952 -0.4480
  261loPI    C2 4162  12.784  18.330  10.187 -0.0678  0.0990 -0.2006
  261loPI    C3 4163  13.126  18.132  10.250 -0.1516 -0.0316 -0.1508
  261loPI   PO4 4164  12.904  18.097   9.710 -0.1535 -0.1677  0.2416
  261loPI   GL1 4165  12.555  17.912   9.434  0.2055 -0.0336  0.1950
  261loPI   GL2 4166  12.310  17.750   9.566 -0.0157 -0.3251  0.2410
  261loPI   C1A 4167  12.710  18.159   9.110  0.2494  0.4427  0.0201
  261loPI   C2A 4168  12.733  18.158   8.574  0.0610  0.0217  0.1794
  261loPI   C3A 4169  12.888  18.333   8.225  0.0739  0.0668  0.0140
  261loPI   C4A 4170  12.878  18.218   7.770  0.0183  0.3322 -0.2174
  261loPI   C5A 4171  13.008  17.855   7.604 -0.1599  0.0994 -0.2374
  261loPI   C6A 4172  13.182  17.771   7.189 -0.1364 -0.3847 -0.0237
  261loPI   C1B 4173  12.349  17.800   9.004 -0.0060  0.3139  0.0343
  261loPI   C2B 4174  12.253  17.852   8.556 -0.2466 -0.0372  0.0286
  261loPI   C3B 4175  12.300  17.831   8.089  0.4696  0.0348 -0.1742
  261loPI   C4B 4176  12.521  17.892   7.634  0.0243 -0.0359  0.0737
  262loPI    C1 4177  13.488  10.727   9.961  0.2096  0.1396 -0.0263
  262loPI    C2 4178  13.768  10.596   9.707  0.1649  0.2304 -0.1239
  262loPI    C3 4179  13.860  10.871   9.982  0.1192  0.4263 -0.3024
  262loPI   PO4 4180  13.182  10.758   9.710  0.0802 -0.2193  0.0411
  262loPI   GL1 4181  12.928  10.815   9.343 -0.0888  0.0005 -0.1756
  262loPI   GL2 4182  12.949  10.580   9.188  0.4808  0.4128 -0.0044
  262loPI   C1A 4183  13.086  11.065   9.008 -0.1879  0.1049 -0.1954
  262loPI   C2A 4184  13.312  11.162   8.693 -0.1693  0.1583  0.1870
  262loPI   C3A 4185  13.604  11.080   8.342 -0.1693  0.1979 -0.0211
  262loPI   C4A 4186  13.614  11.176   7.976  0.3096 -0.2447  0.0842
  262loPI   C5A 4187  13.679  11.197   7.499  0.2614  0.0103  0.1762
  262loPI   C6A 4188  13.412  11.382   7.225 -0.0982 -0.0865 -0.2056
  262loPI   C1B 4189  13.106  10.590   8.786 -0.1542 -0.1001  0.1398
  262loPI   C2B 4190  13.155  10.693   8.341  0.0557 -0.4657  0.3594
  262loPI   C3B 4191  13.139  10.799   7.912  0.1481 -0.0137 -0.1685
  262loPI   C4B 4192  13.174  11.072   7.549  0.2483  0.0226 -0.0107
  263loPI    C1 4193  12.602   8.011  10.410  0.0206 -0.1406 -0.0273
  263loPI    C2 4194  12.285   7.852  10.596  0.0595 -0.0255  0.1395
  263loPI    C3 4195  12.506   8.131  10.779  0.0119  0.1978 -0.1356
  263loPI   PO4 4196  12.495   7.844  10.138  0.1506 -0.0377 -0.2582
  263loPI   GL1 4197  12.422   7.812   9.676 -0.0186 -0.0339  0.1623
  263loPI   GL2 4198  12.851   7.801   9.716 -0.1372  0.0637 -0.1071
  263loPI   C1A 4199  12.338   7.854   9.241  0.1033 -0.2757 -0.1164
  263loPI   C2A 4200  12.279   7.830   8.740 -0.0460 -0.3593  0.0542
  263loPI   C3A 4201  12.269   7.874   8.349 -0.2814  0.0292 -0.4448
  263loPI   C4A 4202  12.325   7.937   7.909  0.1852  0.1557  0.1442
  263loPI   C5A 4203  12.249   8.173   7.532  0.1958 -0.1991 -0.2890
  263loPI   C6A 4204  12.295   8.577   7.307 -0.1825  0.0650 -0.0369
  263loPI   C1B 4205  12.955   7.704   9.263 -0.4016  0.1463  0.1310
  263loPI   C2B 4206  12.821   7.770   8.799  0.3632  0.1283  0.1506
  263loPI   C3B 4207  12.809   7.865   8.378 -0.0213  0.1777  0.0739
  263loPI   C4B 4208  12.780   7.858   7.933  0.6662 -0.1700  0.0741
  264loPI    C1 4209  12.047  18.242   9.650 -0.0188  0.1505 -0.1630
  264loPI    C2 4210  12.375  18.141   9.855  0.0230  0.0973 -0.2550
  264loPI    C3 4211  12.014  18.101  10.023  0.0695  0.2667 -0.1104
  264loPI   PO4 4212  12.056  18.491   9.650  0.0348  0.1003  0.0562
  264loPI   GL1 4213  12.074  18.628   9.246 -0.6263  0.3528 -0.1627
  264loPI   GL2 4214  12.305  18.366   9.275 -0.4516 -0.1819  0.0227
  264loPI   C1A 4215  11.937  18.644   8.731 -0.3926  0.0779 -0.1114
  264loPI   C2A 4216  11.911  18.693   8.212 -0.0981  0.0450 -0.0699
  264loPI   C3A 4217  11.914  18.625   7.783  0.2287 -0.0902  0.0922
  264loPI   C4A 4218  11.752  18.553   7.418 -0.2680 -0.0289  0.1361
  264loPI   C5A 4219  11.724  18.292   6.950 -0.3078 -0.3727  0.2909
  264loPI   C6A 4220  12.000  18.022   6.707 -0.2652 -0.0462  0.2491
  264loPI   C1B 4221  12.249  18.325   8.901 -0.1151 -0.1750 -0.0477
  264loPI   C2B 4222  12.278  18.348   8.432 -0.1983 -0.1676 -0.2057
  264loPI   C3B 4223  12.424  18.307   8.020 -0.1238 -0.0848  0.0257
  264loPI   C4B 4224  12.459  18.346   7.497 -0.2179 -0.1473  0.0364
  265loPI    C1 4225   5.151   0.540   9.734  0.2320 -0.0075 -0.0826
  265loPI    C2 4226   5.274   0.903   9.621 -0.0612  0.1232  0.0069
  265loPI    C3 4227   5.341   0.777   9.994  0.0791  0.0660 -0.0368
  265loPI   PO4 4228   5.090   0.431   9.527  0.4587 -0.3134  0.0053
  265loPI   GL1 4229   5.157   0.760   9.177  0.2407  0.0169  0.2455
  265loPI   GL2 4230   5.492   0.787   8.879 -0.4037 -0.1123  0.0025
  265loPI   C1A 4231   5.095   0.549   8.681 -0.2182  0.3533 -0.1921
  265loPI   C2A 4232   4.964   0.478   8.217 -0.3964  0.1456  0.2675
  265loPI   C3A 4233   4.670   0.706   7.925  0.2698  0.2096 -0.0276
  265loPI   C4A 4234   4.796   0.949   7.514 -0.1390  0.0443 -0.0629
  265loPI   C5A 4235   4.965   1.210   7.314  0.0255  0.0713  0.1101
  265loPI   C6A 4236   5.017   1.625   7.079 -0.1576  0.1523  0.2862
  265loPI   C1B 4237   5.296   0.987   8.518  0.0125 -0.2418 -0.0094
  265loPI   C2B 4238   5.184   0.928   8.116 -0.1115  0.1619  0.0523
  265loPI   C3B 4239   5.182   0.617   7.795  0.1595 -0.1098  0.1703
  265loPI   C4B 4240   4.792   0.438   7.547  0.1036 -0.1382  0.4415
  266loPI    C1 4241  16.705   7.067  10.246  0.0151 -0.1624  0.0317
  266loPI    C2 4242  17.035   7.280  10.321 -0.0112 -0.1944  0.2477
  266loPI    C3 4243  16.840   7.101  10.621 -0.2372 -0.1592  0.1248
  266loPI   PO4 4244  16.552   7.246  10.016  0.1044  0.1250  0.0987
  266loPI   GL1 4245  16.651   7.418   9.529 -0.2336 -0.0851  0.2802
  266loPI   GL2 4246  16.810   7.111   9.432  0.2485 -0.1016  0.2376
  266loPI   C1A 4247  16.640   7.611   9.131  0.1032 -0.0253  0.1281
  266loPI   C2A 4248  16.604   7.604   8.636 -0.0975  0.0847  0.3435
  266loPI   C3A 4249  16.550   7.425   8.286  0.0073  0.1362 -0.0934
  266loPI   C4A 4250  16.443   7.549   7.802  0.0398 -0.3084  0.0319
  266loPI   C5A 4251  16.209   7.571   7.357 -0.1273  0.1338 -0.2894
  266loPI   C6A 4252  16.370   7.636   6.876 -0.3415  0.2520  0.3795
  266loPI   C1B 4253  16.715   7.075   9.014 -0.0598 -0.0123  0.0953
  266loPI   C2B 4254  16.563   7.070   8.647 -0.1163  0.0334 -0.0649
  266loPI   C3B 4255  16.309   6.950   8.291  0.0430 -0.3334 -0.2403
  266loPI   C4B 4256  16.277   7.031   7.848 -0.1108  0.1898 -0.2788
  267loPI    C1 4257  14.902  13.863   9.747 -0.0373  0.1862 -0.0711
  267loPI    C2 4258  15.066  13.615  10.013 -0.0945  0.0395 -0.1712
  267loPI    C3 4259  15.023  14.003  10.101 -0.1550 -0.0160  0.0507
  267loPI   PO4 4260  14.972  13.794   9.525  0.0848  0.3427 -0.0619
  267loPI   GL1 4261  14.850  13.628   9.069  0.1002  0.2626 -0.1114
  267loPI   GL2 4262  14.663  13.421   8.958  0.2575  0.0245 -0.0715
  267loPI   C1A 4263  15.061  13.729   8.653  0.0817 -0.3349  0.1215
  267loPI   C2A 4264  15.009  13.466   8.238 -0.0891  0.3700  0.1447
  267loPI   C3A 4265  14.791  13.347   7.890 -0.5229 -0.0096 -0.3281
  267loPI   C4A 4266  14.570  13.456   7.528  0.0226 -0.0317 -0.1546
  267loPI   C5A 4267  14.263  13.073   7.392  0.1260 -0.2051 -0.0641
  267loPI   C6A 4268  14.200  12.738   7.044 -0.0855  0.0059  0.0217
  267loPI   C1B 4269  14.555  13.495   8.478 -0.3005 -0.1970  0.2418
  267loPI   C2B 4270  14.379  13.410   8.071 -0.2483  0.0910  0.0088
  267loPI   C3B 4271  13.979  13.339   7.797  0.0758  0.1773 -0.1115
  267loPI   C4B 4272  14.034  13.551   7.439  0.0384 -0.0445  0.2338
  268loPI    C1 4273  14.752   5.865   9.858  0.0134  0.3029 -0.0905
  268loPI    C2 4274  14.749   5.984  10.240  0.0961  0.2153 -0.0621
  268loPI    C3 4275  15.095   5.894  10.061  0.0372  0.0414 -0.0907
  268loPI   PO4 4276  14.594   5.962   9.728  0.1258 -0.1016  0.4212
  268loPI   GL1 4277  14.451   6.151   9.348 -0.2762 -0.0089 -0.0155
  268loPI   GL2 4278  14.730   6.386   9.434  0.0376  0.0616  0.0685
  268loPI   C1A 4279  14.280   6.182   8.889  0.2351 -0.1221  0.0007
  268loPI   C2A 4280  14.116   6.198   8.433 -0.2274 -0.1097 -0.0469
  268loPI   C3A 4281  13.786   6.193   8.132 -0.0304  0.3329  0.2163
  268loPI   C4A 4282  13.687   6.230   7.747 -0.0071 -0.3124  0.1134
  268loPI   C5A 4283  13.787   6.244   7.316 -0.1314  0.0253 -0.0243
  268loPI   C6A 4284  13.819   5.935   7.055 -0.0918 -0.2818  0.0966
  268loPI   C1B 4285  14.917   6.420   8.911  0.3729 -0.3335 -0.1618
  268loPI   C2B 4286  14.732   6.398   8.553  0.1266 -0.1064 -0.2359
  268loPI   C3B 4287  14.506   6.400   8.208  0.1009  0.1905  0.0331
  268loPI   C4B 4288  14.164   6.394   7.893  0.1067  0.2529  0.1881
  269loPI    C1 4289   4.506   3.382   9.690  0.0598 -0.1386 -0.1170
  269loPI    C2 4290   4.284   3.184   9.958  0.0561  0.1841  0.1240
  269loPI    C3 4291   4.683   3.185   9.991  0.0586  0.1757  0.0948
  269loPI   PO4 4292   4.456   3.335   9.404 -0.1369 -0.1776  0.1353
  269loPI   GL1 4293   4.316   3.508   9.017 -0.1352  0.0305 -0.0562
  269loPI   GL2 4294   4.087   3.416   8.789  0.3404  0.1077 -0.0756
  269loPI   C1A 4295   4.594   3.493   8.723 -0.0838  0.2817  0.0018
  269loPI   C2A 4296   4.647   3.470   8.313 -0.0208 -0.0369  0.2231
  269loPI   C3A 4297   4.829   3.471   7.801 -0.0184 -0.3371  0.0251
  269loPI   C4A 4298   5.000   3.661   7.422  0.3049 -0.1122 -0.0817
  269loPI   C5A 4299   5.135   4.031   7.167  0.2984  0.4016  0.0426
  269loPI   C6A 4300   5.354   4.371   7.138 -0.1719  0.4545  0.0216
  269loPI   C1B 4301   4.163   3.370   8.371 -0.1369 -0.2426  0.3273
  269loPI   C2B 4302   4.274   3.287   7.931 -0.0758  0.1064  0.1842
  269loPI   C3B 4303   4.174   3.039   7.713 -0.3580 -0.0789  0.0873
  269loPI   C4B 4304   3.987   2.953   7.347 -0.0858 -0.0219 -0.2339
  270loPI    C1 4305   1.337   6.647   9.449 -0.0687 -0.1760  0.2094
  270loPI    C2 4306   1.567   6.826   9.722 -0.0209 -0.1195  0.1323
  270loPI    C3 4307   1.170   6.872   9.735  0.0068  0.1992 -0.0348
  270loPI   PO4 4308   1.416   6.364   9.481 -0.1318 -0.0293  0.3344
  270loPI   GL1 4309   1.426   6.065   9.215  0.1885 -0.2317 -0.1348
  270loPI   GL2 4310   1.538   6.367   9.008  0.1754  0.1210 -0.2005
  270loPI   C1A 4311   1.445   5.880   8.832 -0.3327  0.0862  0.3646
  270loPI   C2A 4312   1.200   5.918   8.466 -0.1411  0.1448  0.1788
  270loPI   C3A 4313   1.348   6.135   8.113 -0.0929 -0.2139  0.2310
  270loPI   C4A 4314   1.574   6.363   7.908  0.0608 -0.0673  0.3746
  270loPI   C5A 4315   1.766   6.568   7.473 -0.0151 -0.0217  0.2864
  270loPI   C6A 4316   1.665   6.732   7.124  0.0601  0.0107  0.2401
  270loPI   C1B 4317   1.581   6.323   8.529 -0.3047 -0.1243  0.0304
  270loPI   C2B 4318   1.951   6.264   8.300  0.1191 -0.1984 -0.3502
  270loPI   C3B 4319   2.386   6.094   8.210  0.1405  0.0002  0.1701
  270loPI   C4B 4320   2.688   5.937   8.475 -0.2486 -0.0836 -0.0773
  271loPI    C1 4321   5.543  10.046  10.282 -0.0932 -0.3157 -0.0539
  271loPI    C2 4322   5.239  10.123  10.531  0.0065 -0.1348  0.0146
  271loPI    C3 4323   5.610  10.233  10.630  0.0877 -0.3080 -0.0922
  271loPI   PO4 4324   5.355  10.063  10.051 -0.0123 -0.0003  0.0352
  271loPI   GL1 4325   5.345  10.295   9.670  0.0734  0.2121 -0.3363
  271loPI   GL2 4326   5.359  10.641   9.612  0.0371  0.1087 -0.5189
  271loPI   C1A 4327   5.251   9.991   9.377 -0.2281  0.3985 -0.1438
  271loPI   C2A 4328   5.227   9.855   8.995 -0.2394 -0.1011 -0.0690
  271loPI   C3A 4329   5.205   9.718   8.593  0.0808 -0.0854  0.0413
  271loPI   C4A 4330   5.159   9.729   8.152  0.0748  0.3517  0.1256
  271loPI   C5A 4331   4.987   9.560   7.825 -0.0762 -0.0273  0.0534
  271loPI   C6A 4332   4.660   9.476   7.554 -0.0465 -0.3346 -0.2394
  271loPI   C1B 4333   5.241  10.490   9.162  0.2646  0.0366  0.0583
  271loPI   C2B 4334   5.378  10.506   8.746  0.2393  0.2136 -0.2463
  271loPI   C3B 4335   5.450  10.497   8.326 -0.1378  0.0337  0.2155
  271loPI   C4B 4336   5.554  10.559   7.963  0.1864 -0.2142  0.2376
  272loPI    C1 4337   1.096   2.679   9.914  0.0608 -0.0615 -0.2568
  272loPI    C2 4338   0.939   2.765  10.272  0.1183  0.0311 -0.2533
  272loPI    C3 4339   1.317   2.634  10.245  0.0697 -0.1082 -0.2689
  272loPI   PO4 4340   0.892   2.879   9.785 -0.2164 -0.1729  0.2042
  272loPI   GL1 4341   1.144   3.049   9.442  0.0448 -0.1893 -0.2328
  272loPI   GL2 4342   1.147   2.770   9.362  0.0835  0.1056  0.1000
  272loPI   C1A 4343   0.850   3.379   9.207  0.1698  0.4022 -0.1728
  272loPI   C2A 4344   0.737   3.373   8.804  0.2551 -0.1468 -0.5351
  272loPI   C3A 4345   0.653   3.332   8.395  0.1413  0.1038  0.0264
  272loPI   C4A 4346   0.389   3.481   8.063 -0.1766 -0.0626  0.2454
  272loPI   C5A 4347   0.314   3.470   7.637 -0.0512  0.1968  0.0913
  272loPI   C6A 4348   0.203   3.323   7.182  0.0708  0.0596  0.3647
  272loPI   C1B 4349   1.026   2.910   8.907  0.0501 -0.2786  0.2241
  272loPI   C2B 4350   1.063   2.824   8.515 -0.2294  0.3186 -0.4529
  272loPI   C3B 4351   0.912   2.936   8.215  0.2490 -0.2663 -0.0570
  272loPI   C4B 4352   1.011   2.929   7.797  0.0042 -0.3909  0.0730
  273loPI    C1 4353   7.381   8.031  10.385 -0.2116  0.0310 -0.0737
  273loPI    C2 4354   7.641   7.957  10.679  0.0766  0.0985 -0.3069
  273loPI    C3 4355   7.415   7.661  10.533 -0.0166  0.0497 -0.0697
  273loPI   PO4 4356   7.559   8.161  10.187  0.0310  0.1793 -0.0552
  273loPI   GL1 4357   7.432   8.182   9.828 -0.1988 -0.1607 -0.5672
  273loPI   GL2 4358   7.127   7.926   9.734 -0.0165  0.0659 -0.2976
  273loPI   C1A 4359   7.577   8.285   9.476  0.1337 -0.0487 -0.1737
  273loPI   C2A 4360   7.430   8.324   9.110  0.2147  0.0394  0.1442
  273loPI   C3A 4361   7.326   8.372   8.677 -0.0528 -0.0651 -0.1317
  273loPI   C4A 4362   7.371   8.118   8.253 -0.2284  0.1834  0.1703
  273loPI   C5A 4363   7.109   8.172   7.980 -0.1386 -0.0156 -0.0057
  273loPI   C6A 4364   7.216   8.197   7.500 -0.0273  0.1244  0.1939
  273loPI   C1B 4365   7.135   7.949   9.261  0.1560  0.0638  0.2166
  273loPI   C2B 4366   7.100   7.966   8.873 -0.0560  0.0202 -0.0849
  273loPI   C3B 4367   6.906   8.080   8.471 -0.0629 -0.0773 -0.2453
  273loPI   C4B 4368   6.579   8.209   8.125 -0.0856 -0.2332 -0.0841
  274loPI    C1 4369  18.824   3.842   9.972  0.0103 -0.2355 -0.1186
  274loPI    C2 4370  18.445   3.873  10.094  0.0759 -0.1965  0.0806
  274loPI    C3 4371  18.732   4.079  10.281  0.1541  0.0234 -0.2709
  274loPI   PO4 4372  18.812   3.817   9.714 -0.0610  0.2360  0.1163
  274loPI   GL1 4373  18.735   3.809   9.330 -0.0171  0.3632 -0.4023
  274loPI   GL2 4374  18.474   3.613   9.192 -0.3779 -0.0045  0.4197
  274loPI   C1A 4375  18.880   3.792   8.984 -0.1587 -0.1511 -0.3531
  274loPI   C2A 4376  18.909   3.770   8.649  0.0009 -0.0970 -0.0280
  274loPI   C3A 4377  18.729   3.852   8.313  0.3061  0.0418 -0.2222
  274loPI   C4A 4378  18.491   3.902   7.985  0.2441 -0.0175 -0.0641
  274loPI   C5A 4379  18.270   4.021   7.602 -0.2242  0.0143  0.1042
  274loPI   C6A 4380  17.884   4.033   7.301 -0.1022 -0.1174  0.0579
  274loPI   C1B 4381  18.425   3.807   8.918  0.1990  0.1143  0.1055
  274loPI   C2B 4382  18.173   3.741   8.551  0.1907 -0.0907 -0.0491
  274loPI   C3B 4383  17.844   3.638   8.308 -0.2191 -0.0807 -0.3359
  274loPI   C4B 4384  17.954   3.783   7.885 -0.2181 -0.0513 -0.0443
  275loPI    C1 4385   8.900   1.877   9.822 -0.3090  0.0113  0.1002
  275loPI    C2 4386   9.119   1.593  10.000  0.0513 -0.0633 -0.4412
  275loPI    C3 4387   9.121   1.966  10.143  0.1314 -0.1755 -0.1430
  275loPI   PO4 4388   8.940   1.771   9.546 -0.1284 -0.1716  0.3072
  275loPI   GL1 4389   9.218   1.450   9.227  0.4523  0.0795 -0.1475
  275loPI   GL2 4390   8.959   1.564   9.036  0.2499 -0.1841 -0.2339
  275loPI   C1A 4391   9.422   1.423   8.934  0.1552 -0.1101 -0.1712
  275loPI   C2A 4392   9.387   1.526   8.543  0.4182  0.1577 -0.0649
  275loPI   C3A 4393   9.562   1.536   8.091  0.3014  0.1925 -0.1495
  275loPI   C4A 4394   9.790   1.614   7.769  0.3194 -0.3354  0.0472
  275loPI   C5A 4395  10.253   1.564   7.651 -0.0760 -0.2412  0.0818
  275loPI   C6A 4396  10.548   1.582   7.431  0.1859 -0.0080  0.1830
  275loPI   C1B 4397   8.508   1.524   8.862 -0.5461 -0.2832 -0.2459
  275loPI   C2B 4398   8.318   1.445   8.468  0.0174  0.0428  0.0266
  275loPI   C3B 4399   8.288   1.541   8.058 -0.1453  0.0965 -0.0051
  275loPI   C4B 4400   8.125   1.886   7.715 -0.2069  0.3175  0.1919
  276loPI    C1 4401   6.388   5.399  10.182 -0.0690 -0.0504  0.0084
  276loPI    C2 4402   6.229   5.377  10.549  0.1809  0.0126  0.1225
  276loPI    C3 4403   6.371   5.047  10.372  0.0879 -0.0126  0.0944
  276loPI   PO4 4404   6.272   5.552  10.024  0.1434  0.1480  0.0151
  276loPI   GL1 4405   6.347   5.719   9.694  0.0872  0.0381 -0.0694
  276loPI   GL2 4406   6.173   5.319   9.542  0.4878  0.0143 -0.4572
  276loPI   C1A 4407   6.369   5.694   9.242  0.2412  0.1168 -0.3534
  276loPI   C2A 4408   6.421   5.580   8.847  0.0888 -0.0538 -0.1164
  276loPI   C3A 4409   6.598   5.663   8.437  0.0588  0.2535  0.0424
  276loPI   C4A 4410   6.617   5.831   8.054 -0.1819  0.1296  0.1080
  276loPI   C5A 4411   6.565   5.801   7.658 -0.0714  0.1631  0.3999
  276loPI   C6A 4412   6.629   6.048   7.295 -0.0385 -0.0508 -0.0511
  276loPI   C1B 4413   6.375   5.194   9.237 -0.0315  0.1211  0.0558
  276loPI   C2B 4414   6.632   5.156   8.885 -0.0240 -0.0131 -0.0361
  276loPI   C3B 4415   6.904   5.215   8.555  0.0728 -0.4049  0.0500
  276loPI   C4B 4416   6.759   5.340   8.099 -0.1192 -0.0976  0.0469
  277loPI    C1 4417  11.948   9.894  10.208 -0.0534  0.3076 -0.0111
  277loPI    C2 4418  11.588  10.056  10.274 -0.1067  0.2136 -0.0674
  277loPI    C3 4419  11.805   9.917  10.581 -0.2604 -0.0269 -0.0652
  277loPI   PO4 4420  11.974   9.920   9.934  0.2703  0.0651  0.2051
  277loPI   GL1 4421  11.715   9.908   9.558  0.1027  0.0122 -0.3768
  277loPI   GL2 4422  11.943   9.769   9.236 -0.0240 -0.0745 -0.2778
  277loPI   C1A 4423  11.400   9.881   9.203  0.1058  0.0017 -0.1528
  277loPI   C2A 4424  11.232   9.834   8.752 -0.0854  0.1142 -0.6205
  277loPI   C3A 4425  10.987   9.728   8.422  0.1239  0.1804  0.2246
  277loPI   C4A 4426  10.639   9.681   8.110  0.1122  0.0461 -0.1672
  277loPI   C5A 4427  10.249   9.765   7.909 -0.0334  0.2960 -0.0023
  277loPI   C6A 4428  10.142  10.122   7.914  0.0041 -0.6946  0.3020
  277loPI   C1B 4429  12.055   9.695   8.769 -0.0483 -0.0397 -0.3596
  277loPI   C2B 4430  11.874   9.463   8.487 -0.1087 -0.1339 -0.1310
  277loPI   C3B 4431  11.732   9.660   8.118  0.0850  0.0193 -0.0722
  277loPI   C4B 4432  11.396   9.671   7.757  0.0992  0.0250  0.1123
  278loPI    C1 4433   8.510   2.212   9.554 -0.0190  0.2733  0.0720
  278loPI    C2 4434   8.406   1.827   9.582  0.2901  0.1791 -0.0320
  278loPI    C3 4435   8.322   2.079   9.881  0.0584  0.0390  0.0236
  278loPI   PO4 4436   8.473   2.360   9.378 -0.1330  0.0598 -0.2114
  278loPI   GL1 4437   8.653   2.289   9.023 -0.3049  0.0210  0.2346
  278loPI   GL2 4438   8.662   1.932   9.166  0.0739  0.0985  0.1727
  278loPI   C1A 4439   8.545   2.357   8.573 -0.2956 -0.3071 -0.1162
  278loPI   C2A 4440   8.639   2.423   8.133 -0.4178 -0.1395 -0.3122
  278loPI   C3A 4441   8.661   2.452   7.639  0.4108  0.2052  0.2142
  278loPI   C4A 4442   8.420   2.201   7.383 -0.1170  0.0034  0.1045
  278loPI   C5A 4443   7.995   2.047   7.238  0.0517 -0.2084  0.1229
  278loPI   C6A 4444   7.536   2.114   7.359 -0.0307  0.1013 -0.3405
  278loPI   C1B 4445   8.741   1.936   8.699 -0.0194 -0.0487 -0.0485
  278loPI   C2B 4446   8.622   1.952   8.317 -0.1154  0.0924  0.1660
  278loPI   C3B 4447   8.602   1.940   7.911 -0.1638 -0.0273  0.3148
  278loPI   C4B 4448   8.828   2.027   7.526 -0.5426 -0.0424 -0.0829
  279loPI    C1 4449   9.343  16.413   9.644 -0.2571  0.0373 -0.0377
  279loPI    C2 4450   9.588  16.452   9.958 -0.0447  0.0225 -0.1998
  279loPI    C3 4451   9.214  16.322  10.012 -0.0967  0.2774  0.0808
  279loPI   PO4 4452   9.446  16.596   9.461 -0.0460  0.0420  0.0522
  279loPI   GL1 4453   9.469  16.702   9.175  0.3318  0.0686  0.0587
  279loPI   GL2 4454   9.226  16.412   9.040  0.1537  0.0734 -0.1502
  279loPI   C1A 4455   9.546  16.820   8.812  0.1589  0.0196 -0.0837
  279loPI   C2A 4456   9.534  17.094   8.423 -0.2642 -0.2559 -0.0172
  279loPI   C3A 4457   9.509  17.130   8.049  0.0301 -0.0145  0.1247
  279loPI   C4A 4458   9.422  17.029   7.563  0.1971  0.1237  0.3176
  279loPI   C5A 4459   9.549  16.931   7.175  0.0448 -0.1316  0.0480
  279loPI   C6A 4460   9.849  17.165   6.963  0.2663 -0.1604 -0.0907
  279loPI   C1B 4461   8.926  16.442   8.727 -0.0064 -0.1822 -0.0270
  279loPI   C2B 4462   8.778  16.546   8.360  0.0441 -0.0811 -0.1771
  279loPI   C3B 4463   8.383  16.382   7.980  0.1120  0.3221 -0.0879
  279loPI   C4B 4464   8.135  16.655   7.707  0.4585 -0.1172 -0.0335
  280loPI    C1 4465   2.701  16.012   9.863 -0.0259  0.1698 -0.1165
  280loPI    C2 4466   2.530  15.962  10.221  0.1078 -0.0740 -0.0849
  280loPI    C3 4467   2.889  16.137  10.194  0.0408  0.0600 -0.1123
  280loPI   PO4 4468   2.605  16.073   9.710 -0.0850 -0.0608  0.1093
  280loPI   GL1 4469   2.334  16.096   9.283 -0.2353 -0.0897  0.0329
  280loPI   GL2 4470   2.318  15.874   9.328 -0.2255  0.1626  0.1924
  280loPI   C1A 4471   2.451  15.934   8.872 -0.0193 -0.3870  0.0356
  280loPI   C2A 4472   2.214  15.977   8.505 -0.0065  0.0994  0.2837
  280loPI   C3A 4473   1.828  16.177   8.167 -0.0209  0.1434  0.1754
  280loPI   C4A 4474   1.753  16.063   7.738  0.0402  0.0390 -0.0329
  280loPI   C5A 4475   1.600  16.388   7.452  0.0533 -0.1316 -0.2914
  280loPI   C6A 4476   1.261  16.713   7.695 -0.0531 -0.3540 -0.3190
  280loPI   C1B 4477   1.948  15.921   8.979  0.0702  0.0405 -0.0318
  280loPI   C2B 4478   1.713  15.872   8.666 -0.1321  0.2663 -0.1395
  280loPI   C3B 4479   1.293  15.801   8.559 -0.0883  0.4411  0.1022
  280loPI   C4B 4480   1.005  15.563   8.196  0.1763 -0.2940 -0.1485
  281loPI    C1 4481  18.362   0.059   9.854  0.1580  0.2008 -0.1168
  281loPI    C2 4482  18.662   0.028   9.591  0.1351 -0.1262 -0.1085
  281loPI    C3 4483  18.737   0.139   9.968  0.1819  0.2386 -0.2205
  281loPI   PO4 4484  18.138   0.031   9.625 -0.0288  0.0259  0.2891
  281loPI   GL1 4485  18.012   0.079   9.155  0.2810  0.0780 -0.1618
  281loPI   GL2 4486  17.797   0.230   9.094  0.3316 -0.3918  0.1079
  281loPI   C1A 4487  18.283   0.262   8.873  0.0545 -0.1935 -0.2670
  281loPI   C2A 4488  18.452   0.325   8.520  0.2527  0.2751 -0.5148
  281loPI   C3A 4489  18.500   0.396   8.034  0.0629  0.1465  0.1934
  281loPI   C4A 4490  18.468   0.526   7.561 -0.0361  0.1246  0.0096
  281loPI   C5A 4491  18.708   0.639   7.177 -0.1247 -0.0402 -0.2215
  281loPI   C6A 4492  19.015   0.835   6.871 -0.1334 -0.0732 -0.0646
  281loPI   C1B 4493  17.692   0.214   8.660  0.0672  0.1932  0.5275
  281loPI   C2B 4494  17.712   0.163   8.186 -0.2041 -0.2522  0.1512
  281loPI   C3B 4495  17.598   0.179   7.739 -0.0346  0.1650 -0.0156
  281loPI   C4B 4496  17.572  -0.224   7.467  0.0386  0.0812 -0.1764
  282loPI    C1 4497  10.778  11.686  10.173 -0.1838  0.0480 -0.0951
  282loPI    C2 4498  10.947  12.036  10.077  0.1756 -0.0273  0.2332
  282loPI    C3 4499  10.864  11.953  10.459 -0.1874 -0.1831  0.1252
  282loPI   PO4 4500  10.957  11.484  10.037  0.3001 -0.0629 -0.2041
  282loPI   GL1 4501  11.184  11.166   9.570  0.1829 -0.1627  0.2083
  282loPI   GL2 4502  10.912  11.216   9.495 -0.3577  0.0645 -0.1513
  282loPI   C1A 4503  11.275  11.223   9.143  0.1018  0.3739 -0.0327
  282loPI   C2A 4504  11.518  11.581   8.797  0.1099  0.2291 -0.1085
  282loPI   C3A 4505  11.557  11.549   8.366  0.5380 -0.4957  0.1918
  282loPI   C4A 4506  11.658  11.430   8.035 -0.1317  0.0088 -0.2855
  282loPI   C5A 4507  11.698  10.962   7.918  0.2965  0.0812  0.0715
  282loPI   C6A 4508  11.779  10.462   8.143  0.0210  0.1088  0.0146
  282loPI   C1B 4509  10.790  11.266   9.138  0.2680 -0.1761 -0.0355
  282loPI   C2B 4510  10.893  11.304   8.710  0.2708  0.1276 -0.0008
  282loPI   C3B 4511  10.768  11.093   8.419  0.1407  0.1527 -0.0448
  282loPI   C4B 4512  10.889  10.659   8.140 -0.2354  0.3797  0.1966
  283loPI    C1 4513   2.615   7.694   9.641 -0.1540 -0.0534 -0.0520
  283loPI    C2 4514   2.768   7.397   9.861 -0.2613 -0.1430 -0.0974
  283loPI    C3 4515   2.840   7.777   9.962  0.0548 -0.1826 -0.1619
  283loPI   PO4 4516   2.577   7.657   9.398 -0.3077  0.5868 -0.1080
  283loPI   GL1 4517   2.886   7.864   9.076  0.0325  0.2535  0.0806
  283loPI   GL2 4518   2.697   8.101   8.916 -0.0392  0.2077 -0.0284
  283loPI   C1A 4519   3.280   8.037   8.852  0.0505 -0.1477 -0.1836
  283loPI   C2A 4520   3.546   8.029   8.539 -0.1805 -0.0171 -0.1170
  283loPI   C3A 4521   3.589   8.153   8.092 -0.1876  0.0628  0.1207
  283loPI   C4A 4522   3.829   8.371   7.709  0.2104  0.1605  0.4985
  283loPI   C5A 4523   3.878   8.405   7.252  0.0246  0.0722 -0.1405
  283loPI   C6A 4524   4.183   8.812   7.164  0.0400  0.1147  0.1976
  283loPI   C1B 4525   2.927   7.903   8.524  0.1174 -0.4784 -0.1759
  283loPI   C2B 4526   2.886   7.816   8.087  0.0072  0.0409 -0.1771
  283loPI   C3B 4527   2.694   7.538   7.842 -0.1611 -0.3985 -0.2065
  283loPI   C4B 4528   2.430   7.393   7.441 -0.2690  0.1703  0.1273
  284loPI    C1 4529  18.468  12.370   9.984 -0.0848 -0.0412  0.0108
  284loPI    C2 4530  18.666  12.127  10.232 -0.1641 -0.0602  0.0558
  284loPI    C3 4531  18.491  12.458  10.373 -0.0808  0.0081 -0.0006
  284loPI   PO4 4532  18.585  12.346   9.713  0.1154  0.0435  0.2216
  284loPI   GL1 4533  18.386  12.191   9.327  0.1498  0.2426 -0.0471
  284loPI   GL2 4534  18.065  12.299   9.168  0.0300  0.1666  0.0612
  284loPI   C1A 4535  18.583  12.451   8.988  0.0050  0.0951 -0.2051
  284loPI   C2A 4536  18.524  12.799   8.697  0.2142 -0.1658 -0.2107
  284loPI   C3A 4537  18.478  12.633   8.375  0.1622 -0.2405  0.3546
  284loPI   C4A 4538  18.454  12.574   7.954 -0.2098 -0.2763 -0.0648
  284loPI   C5A 4539  18.321  12.594   7.494 -0.2409  0.0648  0.1267
  284loPI   C6A 4540  18.396  12.321   7.038 -0.1244 -0.0450 -0.3100
  284loPI   C1B 4541  18.151  12.491   8.758 -0.1936 -0.0797 -0.1289
  284loPI   C2B 4542  18.007  12.398   8.356 -0.1021 -0.0841 -0.0968
  284loPI   C3B 4543  17.905  12.277   7.969 -0.0270  0.1471 -0.4267
  284loPI   C4B 4544  17.811  12.330   7.504 -0.3749 -0.3295 -0.4395
  285loPI    C1 4545  14.201   2.912  10.184 -0.0354 -0.0280  0.1072
  285loPI    C2 4546  14.215   3.283  10.331 -0.1571 -0.1058  0.3204
  285loPI    C3 4547  13.865   3.125  10.222 -0.0638 -0.0321 -0.1064
  285loPI   PO4 4548  14.300   2.917   9.904 -0.0172  0.0728 -0.1506
  285loPI   GL1 4549  14.159   2.810   9.470 -0.0761  0.3792  0.2053
  285loPI   GL2 4550  14.078   2.493   9.384 -0.1429 -0.2732  0.1112
  285loPI   C1A 4551  13.904   3.046   9.320  0.0513  0.0394  0.1391
  285loPI   C2A 4552  13.757   3.331   8.959 -0.0602 -0.0273  0.0460
  285loPI   C3A 4553  13.897   3.279   8.513  0.0954  0.0129 -0.0355
  285loPI   C4A 4554  14.150   3.300   8.139  0.0898 -0.1747 -0.0165
  285loPI   C5A 4555  14.144   3.386   7.744  0.1800  0.1941 -0.0610
  285loPI   C6A 4556  14.202   3.555   7.298 -0.1305 -0.0251 -0.1280
  285loPI   C1B 4557  14.289   2.666   9.027  0.2322  0.1289 -0.2823
  285loPI   C2B 4558  14.516   2.739   8.576  0.1780  0.1233 -0.1598
  285loPI   C3B 4559  14.317   2.827   8.217  0.1331 -0.1157 -0.0533
  285loPI   C4B 4560  13.966   2.873   7.876  0.0358 -0.1923  0.0613
  286loPI    C1 4561  17.426   2.290  10.071  0.2437 -0.0599  0.0751
  286loPI    C2 4562  17.187   1.974  10.015 -0.0633  0.2057 -0.1543
  286loPI    C3 4563  17.459   1.970  10.308  0.1065 -0.3654 -0.3070
  286loPI   PO4 4564  17.454   2.367   9.812  0.0442 -0.0296 -0.1721
  286loPI   GL1 4565  17.507   2.339   9.404  0.1884  0.1906 -0.1670
  286loPI   GL2 4566  17.778   2.447   9.189  0.1050  0.1130 -0.0285
  286loPI   C1A 4567  17.367   2.114   9.012 -0.0417 -0.0280  0.0894
  286loPI   C2A 4568  17.247   2.080   8.496 -0.2575  0.3553  0.4013
  286loPI   C3A 4569  17.269   2.118   8.116 -0.1410 -0.2961  0.1984
  286loPI   C4A 4570  17.206   2.230   7.789  0.0087 -0.0900  0.3350
  286loPI   C5A 4571  17.244   1.998   7.347  0.0991  0.0777 -0.1293
  286loPI   C6A 4572  17.685   1.937   7.233  0.2620  0.1592 -0.0317
  286loPI   C1B 4573  17.738   2.781   8.831 -0.1348 -0.2502  0.1135
  286loPI   C2B 4574  17.727   2.930   8.392 -0.7267  0.2099 -0.2124
  286loPI   C3B 4575  17.516   2.905   8.044 -0.0412  0.0319 -0.3999
  286loPI   C4B 4576  17.402   2.856   7.582 -0.0582  0.2312 -0.0579
  287loPI    C1 4577  11.830   1.483  10.157 -0.4018  0.3621  0.0418
  287loPI    C2 4578  12.063   1.675   9.895 -0.1344 -0.0408 -0.0257
  287loPI    C3 4579  11.698   1.815   9.978 -0.0687  0.3138 -0.3078
  287loPI   PO4 4580  11.774   1.237   9.971  0.3458 -0.1808  0.0111
  287loPI   GL1 4581  11.637   1.097   9.526 -0.2729 -0.1674 -0.2072
  287loPI   GL2 4582  11.615   1.510   9.592 -0.1972  0.1808 -0.0918
  287loPI   C1A 4583  11.652   0.976   9.081 -0.1957  0.1993 -0.4549
  287loPI   C2A 4584  11.875   0.894   8.628  0.2759 -0.0790  0.2181
  287loPI   C3A 4585  11.975   0.922   8.268 -0.1729  0.1850 -0.2843
  287loPI   C4A 4586  12.160   0.898   7.959  0.0110 -0.1505  0.0958
  287loPI   C5A 4587  12.336   0.910   7.578 -0.0882 -0.0871  0.2893
  287loPI   C6A 4588  12.520   0.855   7.237  0.0079 -0.3567  0.0542
  287loPI   C1B 4589  11.747   1.460   9.181  0.1639  0.0692 -0.1685
  287loPI   C2B 4590  11.614   1.303   8.724  0.1388 -0.1452  0.2733
  287loPI   C3B 4591  11.624   1.295   8.276 -0.1891  0.2495 -0.1003
  287loPI   C4B 4592  11.682   1.470   7.821 -0.3106  0.1737 -0.1754
  288loPI    C1 4593   0.747   4.036  10.043  0.0741 -0.1042 -0.0805
  288loPI    C2 4594   0.694   3.886  10.410 -0.1988 -0.0941 -0.1138
  288loPI    C3 4595   0.938   4.198  10.355 -0.0870 -0.1522  0.0445
  288loPI   PO4 4596   0.879   3.884   9.911 -0.0263 -0.0353  0.0360
  288loPI   GL1 4597   1.142   4.055   9.589  0.0085  0.4275  0.0703
  288loPI   GL2 4598   1.404   4.269   9.371 -0.0154 -0.1836 -0.2529
  288loPI   C1A 4599   1.112   3.811   9.246  0.3557  0.0290 -0.2182
  288loPI   C2A 4600   0.937   3.912   8.696 -0.0056 -0.1071  0.2174
  288loPI   C3A 4601   0.853   3.860   8.362  0.0732  0.2200 -0.1584
  288loPI   C4A 4602   0.925   3.585   8.090  0.0744  0.0793 -0.0566
  288loPI   C5A 4603   0.839   3.426   7.704  0.0368 -0.0441  0.1419
  288loPI   C6A 4604   0.908   3.640   7.356  0.2016  0.0304 -0.0799
  288loPI   C1B 4605   1.312   4.179   8.944 -0.2271 -0.1869 -0.0033
  288loPI   C2B 4606   1.278   4.156   8.498 -0.0758  0.4555  0.1158
  288loPI   C3B 4607   1.194   4.106   8.036  0.2931 -0.0418 -0.0092
  288loPI   C4B 4608   1.233   3.830   7.799 -0.1836 -0.1822  0.2765
  289loPI    C1 4609  17.613   1.399   9.684 -0.2691 -0.0235  0.0523
  289loPI    C2 4610  17.697   1.484  10.066 -0.1705 -0.2388  0.0802
  289loPI    C3 4611  17.316   1.463   9.944 -0.2042 -0.2578  0.1877
  289loPI   PO4 4612  17.770   1.346   9.583  0.0025 -0.0167  0.0928
  289loPI   GL1 4613  17.733   1.130   9.226  0.2681 -0.1517  0.1367
  289loPI   GL2 4614  17.598   0.812   9.182 -0.3120  0.2630  0.4850
  289loPI   C1A 4615  17.774   1.143   8.832 -0.1126  0.5204  0.2559
  289loPI   C2A 4616  18.133   1.183   8.561  0.0718 -0.1203  0.3556
  289loPI   C3A 4617  18.311   1.306   8.073  0.1259  0.0984 -0.0941
  289loPI   C4A 4618  18.596   1.465   7.772 -0.0163 -0.0842  0.5643
  289loPI   C5A 4619  18.751   1.779   7.624 -0.0258  0.2295 -0.0259
  289loPI   C6A 4620  18.915   1.948   7.284  0.1980  0.1853  0.0240
  289loPI   C1B 4621  17.476   0.707   8.767  0.0697 -0.0753 -0.2255
  289loPI   C2B 4622  17.547   0.643   8.382 -0.1655  0.0683 -0.1052
  289loPI   C3B 4623  17.408   0.670   8.054 -0.1588 -0.2042  0.1487
  289loPI   C4B 4624  17.469   0.895   7.614 -0.0014  0.3015 -0.0165
  290loPI    C1 4625  10.803   8.839  10.210 -0.0436 -0.2699 -0.0491
  290loPI    C2 4626  10.989   8.767  10.557 -0.0130  0.1954  0.0373
  290loPI    C3 4627  11.032   9.122  10.376 -0.3544  0.1019 -0.2381
  290loPI   PO4 4628  10.871   8.630  10.055 -0.1223 -0.2873 -0.0248
  290loPI   GL1 4629  11.089   8.250   9.811 -0.3059  0.0795  0.0583
  290loPI   GL2 4630  11.157   7.996   9.596 -0.0085 -0.0312 -0.3274
  290loPI   C1A 4631  10.857   8.165   9.290 -0.2020 -0.0264 -0.0930
  290loPI   C2A 4632  10.465   8.293   9.071 -0.1663 -0.4030 -0.1113
  290loPI   C3A 4633  10.316   8.198   8.721 -0.0604  0.0553  0.2517
  290loPI   C4A 4634  10.407   8.075   8.236 -0.0683 -0.0549  0.0157
  290loPI   C5A 4635  10.088   8.117   7.883  0.0133 -0.2192  0.2689
  290loPI   C6A 4636   9.851   7.967   7.597 -0.0400  0.1475  0.2243
  290loPI   C1B 4637  11.172   7.862   9.110 -0.5644 -0.1234 -0.0542
  290loPI   C2B 4638  11.162   7.790   8.603  0.1062 -0.0341 -0.2820
  290loPI   C3B 4639  11.211   7.807   8.159  0.0081  0.0086  0.1551
  290loPI   C4B 4640  11.203   7.585   7.763 -0.0144  0.2734 -0.1106
  291loPI    C1 4641   0.243  15.301   9.804 -0.1581 -0.3254 -0.0282
  291loPI    C2 4642   0.584  15.091   9.805  0.1765  0.1992 -0.0808
  291loPI    C3 4643   0.480  15.305  10.126 -0.1588 -0.0319 -0.0291
  291loPI   PO4 4644   0.250  15.278   9.514 -0.0090  0.0912 -0.0229
  291loPI   GL1 4645   0.016  15.156   9.193 -0.1130 -0.1423 -0.2804
  291loPI   GL2 4646   0.157  14.939   9.191  0.0064 -0.0276 -0.0453
  291loPI   C1A 4647   0.082  15.421   8.841  0.0613 -0.1327  0.0612
  291loPI   C2A 4648   0.092  15.389   8.330  0.1309 -0.1563 -0.1067
  291loPI   C3A 4649  -0.028  15.457   7.869  0.4226  0.1382  0.1209
  291loPI   C4A 4650  -0.226  15.588   7.694 -0.0455 -0.2961  0.0314
  291loPI   C5A 4651  -0.077  15.849   7.466  0.0940 -0.0499 -0.1952
  291loPI   C6A 4652  -0.419  16.137   7.383 -0.0703  0.0078  0.1048
  291loPI   C1B 4653   0.130  14.935   8.772 -0.1221  0.0948  0.2693
  291loPI   C2B 4654  -0.043  14.900   8.460  0.0321  0.1014 -0.1455
  291loPI   C3B 4655   0.212  14.914   7.946 -0.2185 -0.1505 -0.1648
  291loPI   C4B 4656   0.234  15.218   7.443 -0.3265 -0.0109 -0.0141
  292loPI    C1 4657  10.015   3.111   9.904  0.1032 -0.2056  0.0436
  292loPI    C2 4658  10.341   3.180  10.124  0.1457  0.0385 -0.0924
  292loPI    C3 4659  10.210   2.805  10.072  0.2644 -0.0402  0.1599
  292loPI   PO4 4660   9.895   3.330   9.888  0.1360 -0.1929  0.0932
  292loPI   GL1 4661   9.850   3.633   9.671 -0.1571 -0.2367  0.2630
  292loPI   GL2 4662   9.944   3.907   9.770 -0.3287  0.0551 -0.3897
  292loPI   C1A 4663   9.854   3.772   9.171 -0.0662  0.2110 -0.1728
  292loPI   C2A 4664  10.008   3.814   8.862  0.0368  0.1196  0.1633
  292loPI   C3A 4665  10.016   3.783   8.448 -0.0072 -0.0949  0.0648
  292loPI   C4A 4666  10.034   3.821   8.020 -0.0749 -0.1089  0.2276
  292loPI   C5A 4667   9.892   4.106   7.727 -0.4544 -0.1019 -0.0340
  292loPI   C6A 4668   9.915   4.486   7.398 -0.0401  0.0753  0.1667
  292loPI   C1B 4669  10.175   4.047   9.399 -0.2203 -0.1739  0.3382
  292loPI   C2B 4670  10.230   4.323   9.122  0.1856  0.0095 -0.0660
  292loPI   C3B 4671  10.365   4.181   8.698  0.0600  0.0358 -0.1823
  292loPI   C4B 4672  10.344   4.227   8.332  0.2919 -0.0938 -0.0091
  293loPI    C1 4673   8.663   0.885   9.548  0.2538 -0.2537  0.2326
  293loPI    C2 4674   8.397   0.587   9.530  0.0397 -0.0474 -0.1229
  293loPI    C3 4675   8.444   0.792   9.870  0.0259 -0.3355  0.0566
  293loPI   PO4 4676   8.637   0.947   9.264  0.0725 -0.3263  0.0200
  293loPI   GL1 4677   8.666   1.097   8.878 -0.1408 -0.1712 -0.0898
  293loPI   GL2 4678   8.643   0.993   8.564 -0.0988 -0.1367  0.2443
  293loPI   C1A 4679   8.828   1.469   8.532 -0.1605  0.0424 -0.0321
  293loPI   C2A 4680   8.932   1.634   8.143 -0.1427  0.0333 -0.1405
  293loPI   C3A 4681   8.866   1.518   7.797 -0.0900  0.5059 -0.0905
  293loPI   C4A 4682   8.456   1.574   7.479 -0.3190  0.0565  0.3388
  293loPI   C5A 4683   8.351   1.573   7.140 -0.2663 -0.1487  0.1640
  293loPI   C6A 4684   8.423   1.638   6.732 -0.2530 -0.0509  0.0430
  293loPI   C1B 4685   8.653   1.204   8.157 -0.0904 -0.1817  0.0893
  293loPI   C2B 4686   8.506   1.109   7.772 -0.4028 -0.0444 -0.3745
  293loPI   C3B 4687   8.541   1.063   7.293  0.2060 -0.1334 -0.0168
  293loPI   C4B 4688   8.728   1.164   6.970  0.0977  0.1727  0.0458
  294loPI    C1 4689   8.334  10.453  10.068 -0.3353 -0.1329 -0.2582
  294loPI    C2 4690   7.999  10.476  10.285 -0.1420  0.0663  0.0263
  294loPI    C3 4691   8.342  10.623  10.430  0.1054 -0.2781 -0.1933
  294loPI   PO4 4692   8.295  10.152   9.974 -0.2940 -0.3601 -0.1808
  294loPI   GL1 4693   8.291  10.238   9.511 -0.0038 -0.1130 -0.0957
  294loPI   GL2 4694   8.028  10.440   9.313 -0.1911 -0.1553 -0.0860
  294loPI   C1A 4695   8.494  10.279   9.074  0.1820 -0.1711 -0.3151
  294loPI   C2A 4696   8.527  10.457   8.784 -0.1795 -0.0753 -0.1216
  294loPI   C3A 4697   8.495  10.355   8.413  0.0693  0.0126  0.0003
  294loPI   C4A 4698   8.563  10.269   8.039 -0.1690 -0.1638 -0.0548
  294loPI   C5A 4699   8.724  10.120   7.627 -0.0874 -0.3306 -0.0028
  294loPI   C6A 4700   8.873   9.925   7.340  0.1220  0.0540  0.2871
  294loPI   C1B 4701   8.092  10.628   8.916  0.2058 -0.3012 -0.3915
  294loPI   C2B 4702   8.017  10.702   8.455 -0.0305 -0.1443  0.4329
  294loPI   C3B 4703   8.235  10.800   8.143 -0.1183  0.0220  0.0181
  294loPI   C4B 4704   8.140  10.944   7.768 -0.1230 -0.3495  0.1322
  295loPI    C1 4705  16.964  11.927   9.721 -0.0064  0.2067 -0.0291
  295loPI    C2 4706  16.944  12.187  10.024  0.1204  0.0459  0.1191
  295loPI    C3 4707  17.245  11.924  10.006  0.0095 -0.0712 -0.0455
  295loPI   PO4 4708  16.869  12.086   9.434 -0.1890  0.0388  0.0654
  295loPI   GL1 4709  16.690  12.158   9.000  0.1142 -0.0896 -0.0883
  295loPI   GL2 4710  16.494  12.410   9.151  0.1970  0.0279  0.2901
  295loPI   C1A 4711  16.674  12.220   8.566 -0.1791 -0.0036  0.1970
  295loPI   C2A 4712  16.526  12.276   8.117 -0.1197 -0.2666 -0.4159
  295loPI   C3A 4713  16.553  12.352   7.641  0.1338 -0.1055  0.3421
  295loPI   C4A 4714  16.607  12.083   7.214  0.0397  0.0093 -0.2936
  295loPI   C5A 4715  16.828  11.913   6.807  0.3064  0.0836 -0.0504
  295loPI   C6A 4716  16.691  11.820   6.389 -0.5080 -0.0869 -0.5385
  295loPI   C1B 4717  16.292  12.474   8.823 -0.1759 -0.1665  0.2582
  295loPI   C2B 4718  16.144  12.472   8.378 -0.1960  0.0465 -0.0935
  295loPI   C3B 4719  16.099  12.532   7.905  0.3231 -0.3275  0.2098
  295loPI   C4B 4720  16.214  12.687   7.468  0.1411 -0.3306  0.1694
  296loPI    C1 4721  11.230   5.408  10.350 -0.0447  0.0592 -0.0202
  296loPI    C2 4722  11.507   5.404  10.639 -0.0044  0.0580 -0.0589
  296loPI    C3 4723  11.252   5.711  10.610  0.0577  0.1074 -0.0845
  296loPI   PO4 4724  11.119   5.148  10.283  0.0686  0.0102  0.0961
  296loPI   GL1 4725  11.238   4.738  10.001 -0.0009  0.1527 -0.1245
  296loPI   GL2 4726  10.970   4.854   9.877 -0.1637 -0.0304 -0.1883
  296loPI   C1A 4727  11.416   4.546   9.637  0.0153  0.1413  0.2377
  296loPI   C2A 4728  11.457   4.786   9.228 -0.1296  0.2866  0.1009
  296loPI   C3A 4729  11.612   4.943   8.838 -0.0093  0.0595 -0.0506
  296loPI   C4A 4730  11.616   5.082   8.533 -0.0780  0.0727  0.2418
  296loPI   C5A 4731  11.504   5.041   8.115 -0.0443  0.0364 -0.0123
  296loPI   C6A 4732  11.546   4.649   7.927  0.3264  0.3060 -0.0861
  296loPI   C1B 4733  11.088   4.924   9.495 -0.2013 -0.0396 -0.1519
  296loPI   C2B 4734  11.022   5.055   9.061  0.2177 -0.1854 -0.1898
  296loPI   C3B 4735  11.067   5.048   8.620  0.1319 -0.1012 -0.3432
  296loPI   C4B 4736  11.048   5.251   8.243  0.2186  0.1228 -0.1365
  297loPI    C1 4737   9.525  15.808   9.751  0.0970 -0.0935  0.0373
  297loPI    C2 4738   9.400  15.454   9.614  0.0376 -0.0168 -0.1085
  297loPI    C3 4739   9.546  15.484   9.985  0.0612 -0.1974 -0.1022
  297loPI   PO4 4740   9.630  15.980   9.655  0.1378 -0.0732 -0.4215
  297loPI   GL1 4741   9.661  16.248   9.202 -0.1444  0.1808 -0.0615
  297loPI   GL2 4742   9.907  16.090   9.259  0.0095 -0.0693 -0.3373
  297loPI   C1A 4743   9.623  16.280   8.806  0.1106  0.1879  0.0258
  297loPI   C2A 4744   9.364  16.434   8.545 -0.0031 -0.0295 -0.0036
  297loPI   C3A 4745   9.181  16.565   8.123  0.0572 -0.3454  0.2464
  297loPI   C4A 4746   9.085  16.586   7.707 -0.2921  0.0175  0.2468
  297loPI   C5A 4747   9.063  16.789   7.316 -0.1870 -0.2049  0.0760
  297loPI   C6A 4748   8.961  16.520   6.844  0.1029 -0.1148  0.0948
  297loPI   C1B 4749  10.128  16.131   8.852  0.1642  0.0154  0.1933
  297loPI   C2B 4750  10.232  16.389   8.546 -0.0301  0.3457 -0.0627
  297loPI   C3B 4751  10.302  16.339   8.189  0.1088  0.0397  0.1266
  297loPI   C4B 4752  10.307  15.993   7.904 -0.0147 -0.1695  0.0130
  298loPI    C1 4753   3.331   2.912   9.836 -0.3882 -0.0785 -0.0530
  298loPI    C2 4754   3.495   2.914  10.201 -0.0539  0.0786 -0.2009
  298loPI    C3 4755   3.129   2.764  10.148 -0.0415 -0.0925  0.1704
  298loPI   PO4 4756   3.581   2.825   9.677  0.1094 -0.1827 -0.1131
  298loPI   GL1 4757   3.819   2.719   9.260 -0.0426  0.1710  0.1078
  298loPI   GL2 4758   3.767   2.403   9.244 -0.1154 -0.3230  0.2525
  298loPI   C1A 4759   4.062   2.480   8.836  0.3239 -0.2064 -0.0263
  298loPI   C2A 4760   4.110   2.454   8.385 -0.1145 -0.2178 -0.3488
  298loPI   C3A 4761   4.072   2.629   7.942 -0.3084  0.4033 -0.1006
  298loPI   C4A 4762   4.181   2.479   7.503  0.1075  0.3377 -0.2524
  298loPI   C5A 4763   4.144   2.041   7.105 -0.3159 -0.0998  0.1127
  298loPI   C6A 4764   4.498   1.921   6.987 -0.0142 -0.1696 -0.0156
  298loPI   C1B 4765   3.575   2.506   8.825  0.2186  0.2724  0.0407
  298loPI   C2B 4766   3.611   2.557   8.417  0.3587  0.4780  0.0412
  298loPI   C3B 4767   3.518   2.703   7.942 -0.0231 -0.1290  0.0131
  298loPI   C4B 4768   3.708   2.713   7.624  0.0174 -0.0790 -0.0046
  299loPI    C1 4769   6.531   1.148   9.777 -0.0476 -0.1542 -0.1162
  299loPI    C2 4770   6.163   1.078   9.917 -0.1548  0.3846 -0.1097
  299loPI    C3 4771   6.448   1.214  10.162  0.1046 -0.1896 -0.0766
  299loPI   PO4 4772   6.616   0.939   9.594  0.0070  0.1514 -0.0991
  299loPI   GL1 4773   6.499   0.857   9.181  0.4253 -0.0099 -0.1238
  299loPI   GL2 4774   6.319   0.587   9.206  0.0323 -0.0825 -0.1220
  299loPI   C1A 4775   6.522   0.812   8.781  0.0707  0.1744 -0.2176
  299loPI   C2A 4776   6.530   0.879   8.323  0.0290 -0.3430  0.1539
  299loPI   C3A 4777   6.502   0.996   7.971 -0.1616 -0.2529 -0.1832
  299loPI   C4A 4778   6.525   0.872   7.528 -0.1082  0.1734 -0.1160
  299loPI   C5A 4779   6.706   0.669   7.167 -0.0304 -0.0640 -0.0186
  299loPI   C6A 4780   7.119   0.775   7.037 -0.2117  0.0115 -0.0645
  299loPI   C1B 4781   6.246   0.453   8.792  0.0219 -0.0857  0.1103
  299loPI   C2B 4782   6.233   0.520   8.346  0.0452 -0.1700 -0.0854
  299loPI   C3B 4783   5.934   0.438   8.118  0.0348  0.0656  0.1422
  299loPI   C4B 4784   5.675   0.489   7.865 -0.1654  0.0326  0.1062
  300loPI    C1 4785  11.782  11.037  10.080  0.0046  0.0486  0.0062
  300loPI    C2 4786  11.999  10.786  10.303 -0.0096  0.1138  0.0942
  300loPI    C3 4787  11.944  11.163  10.423 -0.1935  0.0908  0.0857
  300loPI   PO4 4788  11.732  10.969   9.890 -0.0665 -0.1295  0.0120
  300loPI   GL1 4789  11.652  10.984   9.561  0.1468 -0.3398 -0.1586
  300loPI   GL2 4790  11.644  10.688   9.315 -0.1024  0.1416 -0.0042
  300loPI   C1A 4791  11.795  11.237   9.221  0.1329 -0.1935  0.3804
  300loPI   C2A 4792  11.892  11.216   8.754 -0.1181 -0.2119 -0.0506
  300loPI   C3A 4793  11.991  11.136   8.319 -0.2942 -0.0578  0.1663
  300loPI   C4A 4794  12.099  11.267   7.846  0.2782  0.0774  0.4899
  300loPI   C5A 4795  11.749  11.520   7.566  0.0373  0.1354 -0.0585
  300loPI   C6A 4796  11.377  11.835   7.638 -0.0903 -0.2222  0.1298
  300loPI   C1B 4797  11.457  10.869   8.934 -0.3378 -0.1013 -0.0443
  300loPI   C2B 4798  11.354  11.168   8.614  0.1302  0.2683 -0.0570
  300loPI   C3B 4799  11.181  11.153   8.139 -0.1578  0.0205 -0.1302
  300loPI   C4B 4800  11.295  11.353   7.704  0.1337 -0.0603 -0.1233
  301loPI    C1 4801  19.050  12.402   9.779 -0.1778 -0.0008 -0.0013
  301loPI    C2 4802  19.184  12.779   9.788  0.0483 -0.0814  0.0800
  301loPI    C3 4803  18.926  12.652  10.066 -0.0187  0.0095  0.0597
  301loPI   PO4 4804  19.267  12.305   9.705 -0.2622  0.1038 -0.0169
  301loPI   GL1 4805  19.288  12.098   9.315  0.1738 -0.1524  0.1516
  301loPI   GL2 4806  19.187  11.751   9.226  0.3019 -0.2106  0.0627
  301loPI   C1A 4807  19.281  12.403   8.892  0.1077 -0.3285  0.2832
  301loPI   C2A 4808  18.923  12.375   8.625 -0.0429  0.2462  0.1222
  301loPI   C3A 4809  18.788  12.248   8.217 -0.3484 -0.0094 -0.1361
  301loPI   C4A 4810  18.869  12.345   7.863 -0.0875 -0.1634 -0.2131
  301loPI   C5A 4811  18.788  12.468   7.485 -0.1324  0.1950 -0.0475
  301loPI   C6A 4812  18.764  12.744   7.126  0.0359  0.2866  0.1515
  301loPI   C1B 4813  19.235  11.849   8.862  0.3004  0.1414  0.1622
  301loPI   C2B 4814  19.453  11.835   8.415  0.0137 -0.3267  0.1118
  301loPI   C3B 4815  19.676  11.770   8.013  0.1106  0.3853 -0.1541
  301loPI   C4B 4816  19.786  12.104   7.751 -0.0823  0.1151  0.2289
  302loPI    C1 4817   7.018   6.925  10.235  0.0854 -0.0869  0.1217
  302loPI    C2 4818   7.344   6.746  10.383  0.1579  0.0962  0.1868
  302loPI    C3 4819   6.995   6.717  10.577  0.1306 -0.1119  0.1098
  302loPI   PO4 4820   7.083   7.077  10.101  0.0475  0.0012  0.0478
  302loPI   GL1 4821   7.397   7.022   9.727 -0.0513 -0.2548 -0.3693
  302loPI   GL2 4822   7.182   6.936   9.535 -0.0953  0.0380 -0.2300
  302loPI   C1A 4823   7.659   7.235   9.378  0.1223 -0.1874  0.1525
  302loPI   C2A 4824   7.765   7.307   8.955  0.2299 -0.0920 -0.0329
  302loPI   C3A 4825   7.827   7.200   8.529 -0.1795  0.1330 -0.4318
  302loPI   C4A 4826   7.998   7.237   8.155 -0.2808 -0.0704  0.1948
  302loPI   C5A 4827   7.899   7.148   7.654 -0.3505  0.1343 -0.1620
  302loPI   C6A 4828   8.005   7.406   7.300  0.1745  0.1956 -0.1605
  302loPI   C1B 4829   7.025   7.004   9.134 -0.3093 -0.2475 -0.2908
  302loPI   C2B 4830   7.136   7.118   8.652 -0.0265 -0.0112 -0.1413
  302loPI   C3B 4831   7.429   7.260   8.323  0.1749  0.3517 -0.0552
  302loPI   C4B 4832   7.613   7.497   8.008  0.4779 -0.1043  0.0130
  303loPI    C1 4833   3.210   0.731  10.226  0.3578  0.2940 -0.0515
  303loPI    C2 4834   3.388   0.374  10.258 -0.1366  0.0568  0.1609
  303loPI    C3 4835   3.108   0.483  10.523 -0.1600  0.5074 -0.0392
  303loPI   PO4 4836   3.143   0.748   9.983  0.2127 -0.2148  0.2496
  303loPI   GL1 4837   3.107   0.803   9.520 -0.0082 -0.1499 -0.1825
  303loPI   GL2 4838   2.898   1.070   9.426  0.2037 -0.1611 -0.1772
  303loPI   C1A 4839   3.101   0.698   9.149  0.0332  0.1395 -0.2985
  303loPI   C2A 4840   3.190   0.658   8.621 -0.1373 -0.2512 -0.1458
  303loPI   C3A 4841   3.494   0.580   8.359 -0.0617 -0.1484 -0.3473
  303loPI   C4A 4842   3.818   0.450   7.956 -0.2013  0.0441 -0.2442
  303loPI   C5A 4843   3.814   0.596   7.615 -0.2148  0.2171 -0.1299
  303loPI   C6A 4844   3.827   0.368   7.258  0.2198 -0.2396  0.1104
  303loPI   C1B 4845   2.749   1.038   9.014 -0.1768  0.1295 -0.0169
  303loPI   C2B 4846   2.839   1.030   8.571 -0.1051  0.1808 -0.0656
  303loPI   C3B 4847   3.072   0.930   8.204  0.0798  0.0544  0.0406
  303loPI   C4B 4848   3.415   0.767   7.922  0.0480 -0.0255  0.2880
  304loPI    C1 4849   7.045   0.488  10.032 -0.0528  0.1032  0.1469
  304loPI    C2 4850   7.052   0.866   9.900 -0.1512  0.0424 -0.0360
  304loPI    C3 4851   6.736   0.731  10.105  0.0994  0.2037  0.4716
  304loPI   PO4 4852   7.120   0.368   9.846 -0.2779  0.0496  0.0497
  304loPI   GL1 4853   7.019   0.538   9.447  0.0092 -0.0068 -0.0172
  304loPI   GL2 4854   7.233   0.417   9.164  0.0191  0.2712 -0.0341
  304loPI   C1A 4855   6.800   0.456   8.985 -0.0521 -0.2599  0.0234
  304loPI   C2A 4856   6.636   0.273   8.511  0.0354 -0.0831  0.1570
  304loPI   C3A 4857   6.658   0.352   8.081  0.1574 -0.0198 -0.4845
  304loPI   C4A 4858   6.402   0.553   7.878  0.2882  0.2276 -0.1311
  304loPI   C5A 4859   5.990   0.704   7.636 -0.2325 -0.0093  0.1717
  304loPI   C6A 4860   6.085   0.835   7.263 -0.2039 -0.1464 -0.1762
  304loPI   C1B 4861   7.154   0.233   8.774 -0.0113 -0.2227  0.3207
  304loPI   C2B 4862   7.096   0.033   8.345  0.2105  0.3435  0.1013
  304loPI   C3B 4863   7.104   0.215   7.885  0.0696  0.0307 -0.1317
  304loPI   C4B 4864   6.771   0.363   7.622  0.1937  0.0913  0.1447
  305loPI    C1 4865  13.822  18.639   9.464 -0.1777  0.0447  0.1711
  305loPI    C2 4866  13.590  18.947   9.571  0.1063  0.1707  0.4394
  305loPI    C3 4867  13.783  18.954   9.221 -0.1960  0.1179  0.2682
  305loPI   PO4 4868  13.740  18.393   9.481 -0.1132 -0.1382  0.0244
  305loPI   GL1 4869  13.502  18.147   9.222  0.1116 -0.0626  0.0521
  305loPI   GL2 4870  13.289  18.037   9.338  0.5561 -0.0458  0.1874
  305loPI   C1A 4871  13.699  17.983   8.849  0.0291 -0.0943 -0.1404
  305loPI   C2A 4872  13.712  17.714   8.496 -0.1225 -0.1897 -0.1673
  305loPI   C3A 4873  13.798  17.761   8.010  0.0378  0.1644 -0.0546
  305loPI   C4A 4874  13.950  18.120   7.677 -0.0825  0.0851  0.4560
  305loPI   C5A 4875  14.173  18.047   7.296  0.0604  0.1093 -0.0448
  305loPI   C6A 4876  14.052  17.954   6.887  0.1125 -0.1283 -0.2270
  305loPI   C1B 4877  13.135  17.929   9.019 -0.2588  0.0187 -0.0130
  305loPI   C2B 4878  13.186  17.893   8.549 -0.2007  0.0213  0.2069
  305loPI   C3B 4879  12.894  17.828   8.227 -0.0674  0.1585 -0.1132
  305loPI   C4B 4880  12.770  17.484   7.841 -0.3778 -0.0333 -0.1159
  306loPI    C1 4881  12.303  10.669   9.901 -0.0050 -0.1700  0.0435
  306loPI    C2 4882  12.298  10.270   9.926 -0.0463 -0.1615  0.1759
  306loPI    C3 4883  12.556  10.481  10.147 -0.0301 -0.1141  0.1123
  306loPI   PO4 4884  12.182  10.761   9.850  0.0764  0.1118 -0.1560
  306loPI   GL1 4885  12.232  10.882   9.383 -0.2952  0.1774  0.0327
  306loPI   GL2 4886  12.395  10.663   9.314 -0.1272 -0.3397  0.1873
  306loPI   C1A 4887  12.013  10.872   9.026 -0.1075  0.1352 -0.0414
  306loPI   C2A 4888  12.012  10.752   8.677  0.1220  0.0573  0.4679
  306loPI   C3A 4889  12.198  10.726   8.309 -0.2297  0.1567  0.1608
  306loPI   C4A 4890  12.222  10.796   7.954  0.1781 -0.0411  0.2299
  306loPI   C5A 4891  12.236  10.691   7.445 -0.0203  0.3042 -0.0259
  306loPI   C6A 4892  12.371  10.792   7.024 -0.0721  0.0171 -0.1332
  306loPI   C1B 4893  12.413  10.443   8.871 -0.1216  0.1739  0.0747
  306loPI   C2B 4894  12.222  10.257   8.544 -0.0122  0.1236 -0.0460
  306loPI   C3B 4895  12.045   9.989   8.225 -0.1690 -0.1330  0.3881
  306loPI   C4B 4896  11.922   9.887   7.735  0.4460  0.3367  0.0039
  307loPI    C1 4897  17.192  17.332   9.878 -0.0104 -0.0581  0.0106
  307loPI    C2 4898  16.932  17.031   9.917  0.1820 -0.2390 -0.0886
  307loPI    C3 4899  17.177  17.124  10.219  0.1659 -0.2228 -0.0804
  307loPI   PO4 4900  17.136  17.424   9.688  0.4604  0.0488 -0.1142
  307loPI   GL1 4901  17.156  17.226   9.337  0.1820  0.1936  0.3374
  307loPI   GL2 4902  17.255  16.973   9.509 -0.1143  0.1960  0.3199
  307loPI   C1A 4903  17.102  17.603   9.001 -0.0777 -0.1007 -0.3066
  307loPI   C2A 4904  17.057  17.593   8.572  0.0148  0.1994 -0.2493
  307loPI   C3A 4905  16.891  17.404   8.153  0.2167 -0.0489 -0.1205
  307loPI   C4A 4906  16.653  17.468   7.802  0.1055 -0.2360 -0.0722
  307loPI   C5A 4907  16.791  17.693   7.457  0.0137 -0.0144  0.1960
  307loPI   C6A 4908  16.652  18.001   7.407 -0.1900  0.2042  0.1717
  307loPI   C1B 4909  17.274  16.752   9.155  0.1235  0.2691  0.1274
  307loPI   C2B 4910  17.138  16.633   8.752  0.0180  0.0304 -0.0077
  307loPI   C3B 4911  17.002  16.576   8.329 -0.1936  0.0043  0.0310
  307loPI   C4B 4912  16.904  16.576   7.874 -0.4285  0.3391  0.3874
  308loPI    C1 4913  16.702   1.801   9.825  0.2095 -0.4542 -0.1580
  308loPI    C2 4914  16.744   2.041  10.142  0.0517 -0.1150 -0.3880
  308loPI    C3 4915  16.485   1.736  10.155 -0.0970  0.0149 -0.2580
  308loPI   PO4 4916  16.931   1.693   9.623  0.0541  0.0260 -0.0190
  308loPI   GL1 4917  16.992   1.951   9.235  0.1964  0.0371  0.0044
  308loPI   GL2 4918  16.945   2.332   9.178 -0.0277  0.1843 -0.0495
  308loPI   C1A 4919  17.052   1.624   8.935 -0.0174  0.0947  0.1040
  308loPI   C2A 4920  17.273   1.569   8.523  0.0787 -0.2394  0.2017
  308loPI   C3A 4921  17.473   1.693   8.190  0.1585 -0.1306 -0.2074
  308loPI   C4A 4922  17.677   1.918   7.857 -0.0074  0.2866 -0.1356
  308loPI   C5A 4923  17.999   2.092   7.549  0.1430  0.1888 -0.1518
  308loPI   C6A 4924  18.376   2.129   7.547 -0.1222 -0.0929  0.1527
  308loPI   C1B 4925  16.926   2.224   8.832  0.0321 -0.2546 -0.2492
  308loPI   C2B 4926  16.809   2.318   8.403 -0.0021  0.1357  0.1214
  308loPI   C3B 4927  16.763   2.238   8.074  0.0984  0.2800 -0.1766
  308loPI   C4B 4928  16.739   2.330   7.638  0.1013  0.0071  0.0680
  309loPI    C1 4929   3.009   5.139   9.697  0.0661 -0.0012  0.1314
  309loPI    C2 4930   2.900   5.344  10.023  0.0975  0.1536  0.0450
  309loPI    C3 4931   3.287   5.315   9.924  0.1000 -0.0158  0.1013
  309loPI   PO4 4932   2.859   5.214   9.440  0.1603  0.0279 -0.1555
  309loPI   GL1 4933   3.112   5.519   9.146 -0.1002 -0.1457 -0.0513
  309loPI   GL2 4934   3.222   5.740   9.176  0.2645 -0.3360 -0.1359
  309loPI   C1A 4935   2.768   5.464   8.786 -0.3261 -0.2207  0.1631
  309loPI   C2A 4936   2.554   5.283   8.382 -0.0322  0.1205 -0.4064
  309loPI   C3A 4937   2.452   5.315   7.960 -0.0473 -0.0019 -0.0395
  309loPI   C4A 4938   2.032   5.370   7.767  0.0859 -0.1098 -0.0682
  309loPI   C5A 4939   1.649   5.464   7.832 -0.2770 -0.0954 -0.0022
  309loPI   C6A 4940   1.288   5.650   7.726  0.0742 -0.0673  0.3291
  309loPI   C1B 4941   3.238   5.626   8.654 -0.0940  0.2509  0.0862
  309loPI   C2B 4942   3.007   5.558   8.279 -0.1494 -0.0226 -0.2407
  309loPI   C3B 4943   2.813   5.577   7.767 -0.0333  0.0371  0.2856
  309loPI   C4B 4944   2.464   5.444   7.473 -0.0754  0.1254  0.2879
  310loPI    C1 4945   4.949   1.255   9.618 -0.1585 -0.0797 -0.0032
  310loPI    C2 4946   4.885   1.015   9.931  0.1356 -0.1930 -0.0267
  310loPI    C3 4947   5.183   1.282   9.942  0.1542 -0.2052 -0.2140
  310loPI   PO4 4948   4.740   1.321   9.546 -0.2539  0.1522  0.1940
  310loPI   GL1 4949   4.617   1.418   9.229  0.2878  0.2283  0.3948
  310loPI   GL2 4950   4.569   1.082   9.153  0.0377 -0.1993  0.1470
  310loPI   C1A 4951   4.582   1.556   8.830 -0.2913 -0.0646 -0.0569
  310loPI   C2A 4952   4.605   1.511   8.390 -0.0637 -0.0278  0.0576
  310loPI   C3A 4953   4.639   1.695   7.923  0.1149  0.0230 -0.0548
  310loPI   C4A 4954   4.614   1.517   7.406 -0.0438 -0.1209  0.0429
  310loPI   C5A 4955   4.194   1.491   7.188 -0.1142 -0.4057  0.2683
  310loPI   C6A 4956   3.932   1.206   6.818  0.2718 -0.1686  0.3370
  310loPI   C1B 4957   4.856   0.975   8.834 -0.0968 -0.4071  0.1257
  310loPI   C2B 4958   4.754   1.041   8.434  0.0841  0.2299  0.1478
  310loPI   C3B 4959   4.578   1.188   8.032  0.0007 -0.0582  0.2303
  310loPI   C4B 4960   4.209   1.311   7.664  0.0157 -0.2043 -0.2125
  311loPI    C1 4961   1.569  12.864   9.943  0.0836 -0.0820 -0.0600
  311loPI    C2 4962   1.418  12.495   9.911  0.3528 -0.1886 -0.1273
  311loPI    C3 4963   1.692  12.575  10.191  0.0056  0.0622  0.1499
  311loPI   PO4 4964   1.647  12.917   9.746 -0.2296  0.0645 -0.1346
  311loPI   GL1 4965   1.801  12.854   9.303 -0.1570  0.0471  0.0765
  311loPI   GL2 4966   1.702  13.026   9.046 -0.2138 -0.2737  0.1415
  311loPI   C1A 4967   2.030  12.676   8.899  0.4388 -0.0931 -0.3451
  311loPI   C2A 4968   1.963  12.541   8.412  0.0732  0.0063 -0.0193
  311loPI   C3A 4969   1.938  12.514   7.975 -0.3163 -0.0376  0.1847
  311loPI   C4A 4970   2.126  12.476   7.447 -0.2274 -0.1179  0.0918
  311loPI   C5A 4971   2.514  12.591   7.385  0.0407  0.2496 -0.1523
  311loPI   C6A 4972   2.936  12.581   7.491 -0.0010 -0.2309  0.0882
  311loPI   C1B 4973   1.759  12.976   8.567 -0.1293 -0.0990 -0.2839
  311loPI   C2B 4974   1.934  13.106   8.131  0.1194  0.0306 -0.3879
  311loPI   C3B 4975   2.042  12.911   7.718  0.2631  0.3168 -0.4216
  311loPI   C4B 4976   2.204  13.024   7.336 -0.0817 -0.0689 -0.2044
  312loPI    C1 4977  15.009   5.420   9.988  0.1219  0.2272  0.0278
  312loPI    C2 4978  14.663   5.466  10.184  0.1607 -0.2772  0.2298
  312loPI    C3 4979  15.011   5.510  10.378  0.2164  0.1875  0.0369
  312loPI   PO4 4980  14.871   5.284   9.769 -0.2088  0.2667 -0.3575
  312loPI   GL1 4981  14.645   5.430   9.363  0.0310  0.1336 -0.1705
  312loPI   GL2 4982  14.739   5.733   9.315 -0.0419  0.3858 -0.0850
  312loPI   C1A 4983  14.997   5.463   8.956 -0.1376 -0.2764 -0.2448
  312loPI   C2A 4984  14.918   5.508   8.498  0.1894  0.2747 -0.0359
  312loPI   C3A 4985  14.973   5.491   8.092 -0.2392 -0.0907  0.0708
  312loPI   C4A 4986  15.063   5.634   7.625 -0.0130  0.3401 -0.3064
  312loPI   C5A 4987  15.248   5.471   7.272  0.0999 -0.1647  0.0512
  312loPI   C6A 4988  15.479   5.184   6.959 -0.1649 -0.0582  0.0540
  312loPI   C1B 4989  14.728   5.971   8.935  0.4685 -0.0347  0.0971
  312loPI   C2B 4990  14.599   5.906   8.547 -0.1354  0.0471  0.0786
  312loPI   C3B 4991  14.530   5.699   8.172  0.1820  0.2321  0.4018
  312loPI   C4B 4992  14.488   5.613   7.743 -0.1671  0.0289 -0.1407
  313loPI    C1 4993   4.920   9.685  10.442  0.1230  0.0182 -0.1140
  313loPI    C2 4994   4.822   9.495  10.780 -0.0002 -0.2268 -0.2853
  313loPI    C3 4995   4.823   9.895  10.769  0.1120 -0.2155  0.0348
  313loPI   PO4 4996   5.196   9.599  10.263  0.1176 -0.0264  0.0632
  313loPI   GL1 4997   5.272   9.637   9.825 -0.1144  0.1235  0.3752
  313loPI   GL2 4998   5.573   9.383   9.706  0.0319 -0.2670 -0.0203
  313loPI   C1A 4999   5.094   9.451   9.369  0.1027  0.1405  0.1391
  313loPI   C2A 5000   5.221   9.356   8.956 -0.1660  0.2777 -0.4531
  313loPI   C3A 5001   5.272   9.158   8.485 -0.0528  0.0151 -0.0127
  313loPI   C4A 5002   5.284   9.221   7.994 -0.0129  0.1238  0.1608
  313loPI   C5A 5003   5.274   9.219   7.608 -0.1291  0.4605  0.0927
  313loPI   C6A 5004   5.043   9.156   7.225 -0.0275 -0.1661  0.0236
  313loPI   C1B 5005   5.657   9.610   9.392 -0.0129  0.4230 -0.1327
  313loPI   C2B 5006   5.672   9.589   9.025  0.1613  0.2827  0.1545
  313loPI   C3B 5007   5.628   9.559   8.702  0.0005 -0.1475 -0.1720
  313loPI   C4B 5008   5.720   9.734   8.287  0.4235 -0.0848 -0.2087
  314loPI    C1 5009   3.940  19.051   9.765  0.0795  0.0553 -0.2241
  314loPI    C2 5010   4.283  19.219   9.645 -0.0514  0.2466 -0.3351
  314loPI    C3 5011   4.179  19.229  10.031  0.1090  0.1108 -0.2876
  314loPI   PO4 5012   3.985  18.817   9.614 -0.0218  0.0462 -0.1123
  314loPI   GL1 5013   4.136  18.630   9.185 -0.2292  0.0655 -0.3123
  314loPI   GL2 5014   4.349  18.406   9.175  0.0636  0.0859  0.1550
  314loPI   C1A 5015   3.925  18.574   8.737 -0.2687  0.1043 -0.0250
  314loPI   C2A 5016   3.916  18.658   8.310  0.2140 -0.0715 -0.2132
  314loPI   C3A 5017   3.838  18.758   7.813 -0.0520  0.0068 -0.1922
  314loPI   C4A 5018   3.912  19.063   7.505 -0.2256 -0.0245 -0.3126
  314loPI   C5A 5019   4.250  19.135   7.207  0.0155  0.1061  0.1585
  314loPI   C6A 5020   4.591  18.877   7.096  0.0394  0.3159  0.0849
  314loPI   C1B 5021   4.295  18.203   8.781  0.1020  0.0156  0.0150
  314loPI   C2B 5022   4.085  18.229   8.404 -0.0699 -0.0849  0.2715
  314loPI   C3B 5023   4.146  18.014   8.255  0.1563  0.4269  0.1164
  314loPI   C4B 5024   4.347  17.862   7.866 -0.0750  0.0958  0.2604
  315loPI    C1 5025  14.636  18.548   9.916 -0.0083 -0.2200  0.1645
  315loPI    C2 5026  14.446  18.799  10.163 -0.0708 -0.0319 -0.0704
  315loPI    C3 5027  14.723  18.548  10.306 -0.0903  0.0892  0.1851
  315loPI   PO4 5028  14.511  18.627   9.708  0.1196 -0.3059  0.0310
  315loPI   GL1 5029  14.271  18.424   9.374  0.1203  0.0013 -0.0379
  315loPI   GL2 5030  14.324  18.784   9.309  0.2840  0.3241  0.1809
  315loPI   C1A 5031  14.085  18.460   8.947  0.1213 -0.1371  0.3346
  315loPI   C2A 5032  13.982  18.268   8.563 -0.5386 -0.1253  0.2912
  315loPI   C3A 5033  13.970  18.179   8.171  0.0826  0.2243 -0.1427
  315loPI   C4A 5034  14.299  17.881   7.989 -0.0511 -0.2078 -0.4995
  315loPI   C5A 5035  14.738  17.781   7.950  0.0239  0.2100  0.1529
  315loPI   C6A 5036  15.103  17.729   7.607 -0.0811  0.0263 -0.1372
  315loPI   C1B 5037  14.335  18.957   8.941 -0.0920  0.1957  0.1725
  315loPI   C2B 5038  14.306  19.086   8.488 -0.0519 -0.0623 -0.2727
  315loPI   C3B 5039  14.414  19.174   8.056  0.9117  0.0658 -0.0151
  315loPI   C4B 5040  14.117  19.029   7.743 -0.1112  0.2200  0.1535
  316loPI    C1 5041   8.276  16.433   9.828 -0.0786 -0.1454  0.0169
  316loPI    C2 5042   8.403  16.310  10.187  0.1730  0.1618  0.0376
  316loPI    C3 5043   8.040  16.474  10.148  0.0660 -0.0529  0.1129
  316loPI   PO4 5044   8.438  16.564   9.638  0.1326 -0.1134 -0.0458
  316loPI   GL1 5045   8.427  16.855   9.307  0.0242  0.1706 -0.3885
  316loPI   GL2 5046   8.476  16.508   9.046 -0.1798  0.0526 -0.1045
  316loPI   C1A 5047   8.290  17.252   9.098  0.0612  0.2108  0.0980
  316loPI   C2A 5048   8.205  17.375   8.631  0.1926  0.1356  0.0331
  316loPI   C3A 5049   8.056  17.404   8.214 -0.3330  0.2688  0.0830
  316loPI   C4A 5050   8.263  17.422   7.764 -0.2960 -0.0803  0.3546
  316loPI   C5A 5051   8.305  17.090   7.500  0.0069  0.0226  0.1213
  316loPI   C6A 5052   8.269  17.138   7.097  0.0582  0.0665 -0.4653
  316loPI   C1B 5053   8.549  16.818   8.773 -0.0420  0.0817  0.3016
  316loPI   C2B 5054   8.518  17.012   8.405  0.1558 -0.0470  0.0802
  316loPI   C3B 5055   8.319  16.975   8.075  0.0671  0.1799 -0.2104
  316loPI   C4B 5056   7.784  17.023   7.978 -0.0730  0.0462 -0.0995
  317loPI    C1 5057  19.110   1.466  10.121 -0.4122 -0.0854 -0.2030
  317loPI    C2 5058  18.788   1.534  10.348 -0.1736 -0.0260  0.1255
  317loPI    C3 5059  19.077   1.292  10.479 -0.0134  0.0388 -0.1014
  317loPI   PO4 5060  19.002   1.396   9.881  0.0432 -0.1595 -0.3200
  317loPI   GL1 5061  19.095   1.294   9.427 -0.1644 -0.1191 -0.0243
  317loPI   GL2 5062  19.397   1.202   9.232 -0.1131  0.1027  0.1017
  317loPI   C1A 5063  18.993   1.489   9.090 -0.2027  0.0627 -0.0041
  317loPI   C2A 5064  19.149   1.543   8.639 -0.2438 -0.0851  0.4345
  317loPI   C3A 5065  19.410   1.510   8.294  0.0758 -0.1818 -0.0762
  317loPI   C4A 5066  19.413   1.483   7.860  0.1699  0.0576  0.1469
  317loPI   C5A 5067  19.050   1.386   7.537 -0.1532  0.1542  0.2062
  317loPI   C6A 5068  18.769   1.119   7.287  0.2706 -0.1310  0.2057
  317loPI   C1B 5069  19.331   1.067   8.850  0.1530 -0.0891  0.2523
  317loPI   C2B 5070  19.195   1.100   8.416 -0.0834 -0.3959 -0.0190
  317loPI   C3B 5071  18.886   1.177   8.131  0.4130 -0.0795 -0.0104
  317loPI   C4B 5072  18.783   0.859   7.763  0.1256  0.1593 -0.0658
  318loPI    C1 5073   9.685  12.212  10.331 -0.1049  0.0938 -0.0642
  318loPI    C2 5074   9.484  12.214  10.677  0.2000  0.0952  0.1167
  318loPI    C3 5075   9.742  12.508  10.594  0.1609  0.0715 -0.0940
  318loPI   PO4 5076   9.556  12.228  10.134 -0.0866 -0.3206 -0.1947
  318loPI   GL1 5077   9.462  11.941   9.803 -0.2025 -0.3232 -0.3176
  318loPI   GL2 5078   9.406  12.159   9.591 -0.0614 -0.2225 -0.1913
  318loPI   C1A 5079   9.511  11.705   9.485 -0.0559 -0.1741  0.1912
  318loPI   C2A 5080   9.840  11.539   9.168  0.3455 -0.0979  0.0159
  318loPI   C3A 5081   9.844  11.521   8.762 -0.0790  0.0682 -0.0200
  318loPI   C4A 5082   9.561  11.459   8.402  0.1646 -0.0502 -0.0951
  318loPI   C5A 5083   9.451  11.288   7.990  0.0762 -0.0010 -0.1263
  318loPI   C6A 5084   9.656  11.272   7.599 -0.2899  0.1152 -0.1144
  318loPI   C1B 5085   9.434  12.093   9.218 -0.0073 -0.2117  0.2728
  318loPI   C2B 5086   9.761  11.995   8.971  0.4651 -0.2897 -0.1963
  318loPI   C3B 5087   9.976  11.964   8.492 -0.0253  0.0886 -0.1213
  318loPI   C4B 5088   9.798  11.827   8.101  0.2151 -0.6453  0.0161
  319loPI    C1 5089  10.909   7.829  10.559  0.0554  0.2222 -0.0653
  319loPI    C2 5090  10.698   7.489  10.586  0.4269  0.0093  0.2479
  319loPI    C3 5091  10.571   7.820  10.773 -0.0259  0.0986 -0.1969
  319loPI   PO4 5092  10.966   7.866  10.201 -0.0309  0.2128  0.1267
  319loPI   GL1 5093  10.643   8.174  10.027 -0.1681 -0.2071 -0.1208
  319loPI   GL2 5094  10.378   8.437  10.049 -0.3211 -0.0793  0.3536
  319loPI   C1A 5095  10.637   7.866   9.649 -0.2352 -0.0920  0.0800
  319loPI   C2A 5096  10.583   7.684   9.146  0.3558  0.3375  0.3009
  319loPI   C3A 5097  10.672   7.825   8.732 -0.2610 -0.0335 -0.0660
  319loPI   C4A 5098  10.743   7.723   8.212 -0.0261 -0.2506 -0.1272
  319loPI   C5A 5099  10.575   7.759   7.840  0.0275  0.0558  0.3584
  319loPI   C6A 5100  10.469   7.990   7.531 -0.2191  0.0781 -0.2221
  319loPI   C1B 5101  10.371   8.291   9.616 -0.3088  0.1518 -0.0393
  319loPI   C2B 5102  10.214   8.018   9.368  0.2047  0.2718  0.3354
  319loPI   C3B 5103  10.096   7.805   8.889  0.1105  0.0433 -0.1131
  319loPI   C4B 5104  10.273   7.561   8.460 -0.0894 -0.1626 -0.3587
  320loPI    C1 5105  12.236  17.117  10.082 -0.0375  0.1505  0.0057
  320loPI    C2 5106  12.423  16.786  10.207 -0.2896 -0.0561 -0.1550
  320loPI    C3 5107  12.277  17.045  10.474 -0.1727 -0.1207 -0.0270
  320loPI   PO4 5108  12.432  17.265   9.861  0.0593 -0.0709  0.1371
  320loPI   GL1 5109  12.061  17.275   9.576  0.0894 -0.0418  0.0667
  320loPI   GL2 5110  11.851  17.024   9.427 -0.2561 -0.2293  0.2891
  320loPI   C1A 5111  12.268  17.351   9.178  0.0397 -0.1718  0.1264
  320loPI   C2A 5112  12.317  17.303   8.705  0.1650  0.0126 -0.0393
  320loPI   C3A 5113  12.105  17.433   8.325 -0.1805 -0.1096  0.3518
  320loPI   C4A 5114  12.293  17.347   7.938 -0.0752  0.0803 -0.3276
  320loPI   C5A 5115  12.151  17.526   7.609  0.2536  0.0935 -0.2211
  320loPI   C6A 5116  11.813  17.640   7.527  0.1273  0.0577  0.2207
  320loPI   C1B 5117  11.933  17.094   8.996 -0.0450 -0.3942  0.1427
  320loPI   C2B 5118  11.948  16.957   8.614 -0.0067 -0.0289  0.2526
  320loPI   C3B 5119  11.843  16.975   8.182  0.0726  0.0712  0.4199
  320loPI   C4B 5120  11.808  17.247   7.833  0.0049  0.0446  0.1208
  321loPI    C1 5121   2.246   3.964  10.221  0.0582 -0.0059 -0.2066
  321loPI    C2 5122   2.645   3.982  10.219  0.0591 -0.0277 -0.2380
  321loPI    C3 5123   2.456   3.783  10.509  0.0624  0.1746 -0.0949
  321loPI   PO4 5124   2.134   3.790   9.916  0.0309  0.1319  0.2171
  321loPI   GL1 5125   2.184   3.787   9.505  0.0006  0.2105  0.1098
  321loPI   GL2 5126   2.478   4.025   9.280  0.2277  0.3309 -0.1169
  321loPI   C1A 5127   2.153   3.778   9.020  0.2133  0.0933 -0.1358
  321loPI   C2A 5128   1.998   3.910   8.492  0.0185  0.2008  0.1426
  321loPI   C3A 5129   2.130   3.898   8.081  0.2252  0.2058  0.1011
  321loPI   C4A 5130   2.290   3.910   7.628  0.0787  0.0229 -0.1903
  321loPI   C5A 5131   2.469   3.919   7.177  0.3064 -0.2223 -0.1447
  321loPI   C6A 5132   2.556   3.967   6.728  0.0099 -0.1901  0.0131
  321loPI   C1B 5133   2.629   3.832   8.794 -0.1576  0.4385 -0.0291
  321loPI   C2B 5134   2.608   3.835   8.309 -0.1237 -0.0055 -0.1075
  321loPI   C3B 5135   2.704   3.711   7.920  0.1651  0.0673  0.0713
  321loPI   C4B 5136   2.712   3.458   7.498 -0.0838  0.1567  0.0270
  322loPI    C1 5137   8.551   9.251  10.101 -0.0944 -0.0512  0.1367
  322loPI    C2 5138   8.657   8.865  10.108  0.0286 -0.0263 -0.1762
  322loPI    C3 5139   8.302   8.977  10.253 -0.0053 -0.2550 -0.0770
  322loPI   PO4 5140   8.770   9.342   9.943  0.0904 -0.1316 -0.0158
  322loPI   GL1 5141   8.933   9.583   9.626 -0.1166 -0.0290  0.0398
  322loPI   GL2 5142   9.272   9.693   9.636  0.0262 -0.5145  0.2419
  322loPI   C1A 5143   8.630   9.392   9.252 -0.2529  0.0215 -0.1282
  322loPI   C2A 5144   8.444   9.331   8.875  0.1597  0.0400  0.2141
  322loPI   C3A 5145   8.427   9.155   8.381  0.1902 -0.3262 -0.2058
  322loPI   C4A 5146   8.421   9.266   8.034 -0.0327 -0.1507  0.2282
  322loPI   C5A 5147   8.417   9.634   7.612 -0.2596 -0.0481  0.0295
  322loPI   C6A 5148   8.424   9.929   7.250  0.0281 -0.2846 -0.1287
  322loPI   C1B 5149   9.273   9.431   9.290  0.0054 -0.1294  0.2804
  322loPI   C2B 5150   9.543   9.382   8.934  0.2499 -0.0259  0.0716
  322loPI   C3B 5151   9.480   9.311   8.435  0.0151  0.0330  0.1145
  322loPI   C4B 5152   9.402   9.458   7.931  0.1260 -0.0314  0.1138
  323loPI    C1 5153   4.193   8.504  10.007  0.1812  0.1023  0.0475
  323loPI    C2 5154   3.978   8.660  10.306  0.1401  0.2839 -0.0753
  323loPI    C3 5155   4.044   8.266  10.292 -0.0177  0.2511  0.0699
  323loPI   PO4 5156   4.100   8.568   9.832 -0.1517 -0.0276  0.3282
  323loPI   GL1 5157   4.388   8.666   9.468  0.1110 -0.0350  0.0529
  323loPI   GL2 5158   4.153   8.611   9.281  0.0580  0.2188 -0.0748
  323loPI   C1A 5159   4.613   8.562   9.081  0.1733 -0.1546  0.1916
  323loPI   C2A 5160   4.541   8.455   8.616  0.2930 -0.1331  0.2948
  323loPI   C3A 5161   4.512   8.469   8.191 -0.0877 -0.1280  0.4309
  323loPI   C4A 5162   4.595   8.546   7.872  0.0225 -0.1580  0.1375
  323loPI   C5A 5163   4.286   8.425   7.570  0.0957  0.0692 -0.1456
  323loPI   C6A 5164   4.152   8.027   7.370 -0.2684 -0.3727  0.3640
  323loPI   C1B 5165   4.134   8.702   8.809 -0.2921  0.0479  0.0054
  323loPI   C2B 5166   4.298   8.863   8.528 -0.0360 -0.1489  0.1355
  323loPI   C3B 5167   4.360   9.066   8.167  0.0237  0.0841  0.1197
  323loPI   C4B 5168   4.253   9.002   7.683  0.1046 -0.1010 -0.0040
  324loPI    C1 5169   2.178  14.296   9.947  0.0486 -0.0667 -0.0245
  324loPI    C2 5170   2.043  14.383  10.313 -0.1048 -0.0872 -0.0755
  324loPI    C3 5171   2.015  14.009  10.174  0.1247 -0.1199 -0.0369
  324loPI   PO4 5172   2.221  14.533   9.786  0.0883 -0.3119 -0.0226
  324loPI   GL1 5173   1.972  14.688   9.391 -0.0565  0.0812  0.0583
  324loPI   GL2 5174   2.170  14.976   9.413  0.0253 -0.2957 -0.1534
  324loPI   C1A 5175   1.959  14.470   8.974  0.4032 -0.1504  0.3491
  324loPI   C2A 5176   1.819  14.338   8.569  0.2368  0.0917  0.0666
  324loPI   C3A 5177   1.893  14.140   8.130  0.4697 -0.4693 -0.0131
  324loPI   C4A 5178   1.794  13.879   7.755  0.1122  0.2296  0.0841
  324loPI   C5A 5179   1.586  13.800   7.353  0.2325 -0.0893  0.1007
  324loPI   C6A 5180   1.417  13.617   6.938  0.1063  0.1085 -0.0898
  324loPI   C1B 5181   2.093  14.942   8.984  0.3493 -0.0917 -0.0370
  324loPI   C2B 5182   2.016  14.802   8.633  0.0931  0.1574 -0.1080
  324loPI   C3B 5183   1.844  15.090   8.264  0.0693 -0.0319  0.2232
  324loPI   C4B 5184   1.590  15.054   7.867 -0.1788 -0.0204  0.2249
  325loPI    C1 5185   0.317   2.283   9.951  0.0300 -0.0749 -0.0754
  325loPI    C2 5186   0.707   2.314  10.035  0.0347 -0.2471 -0.0305
  325loPI    C3 5187   0.476   2.640  10.033  0.1830 -0.1416 -0.0783
  325loPI   PO4 5188   0.242   2.250   9.737 -0.1236  0.3361 -0.2336
  325loPI   GL1 5189   0.425   2.194   9.270  0.1361  0.0023  0.1037
  325loPI   GL2 5190   0.128   2.373   9.200  0.0801 -0.1115 -0.2627
  325loPI   C1A 5191   0.413   2.088   8.906 -0.0980  0.1458 -0.0889
  325loPI   C2A 5192   0.447   1.941   8.535 -0.1025  0.0583  0.0924
  325loPI   C3A 5193   0.472   1.915   8.120 -0.1240 -0.1644  0.1679
  325loPI   C4A 5194   0.615   1.998   7.764  0.1201  0.2100 -0.0696
  325loPI   C5A 5195   0.588   2.063   7.355 -0.0750 -0.2556  0.3599
  325loPI   C6A 5196   0.688   1.768   7.071  0.1113  0.1332  0.3114
  325loPI   C1B 5197   0.132   2.468   8.802  0.0021 -0.1126  0.2265
  325loPI   C2B 5198   0.277   2.360   8.446 -0.0356 -0.0224  0.0522
  325loPI   C3B 5199   0.207   2.394   8.061 -0.3020 -0.1219  0.0930
  325loPI   C4B 5200   0.213   2.297   7.623 -0.1128  0.1232  0.0826
  326loPI    C1 5201   2.603  10.924   9.874 -0.0661 -0.0110  0.0211
  326loPI    C2 5202   2.858  10.668  10.047  0.1003  0.0782 -0.0891
  326loPI    C3 5203   2.635  10.912  10.273  0.0189 -0.0883  0.0123
  326loPI   PO4 5204   2.795  11.070   9.727 -0.0731 -0.3158  0.5179
  326loPI   GL1 5205   2.973  11.144   9.334 -0.2515 -0.1500 -0.0993
  326loPI   GL2 5206   3.186  11.124   9.095  0.3995  0.0472  0.0273
  326loPI   C1A 5207   2.763  11.332   8.998  0.1027  0.1519  0.3907
  326loPI   C2A 5208   2.763  11.430   8.556 -0.3185  0.1742 -0.0741
  326loPI   C3A 5209   2.769  11.361   8.114  0.0236 -0.1447  0.0543
  326loPI   C4A 5210   2.782  11.305   7.651  0.1394  0.2229 -0.1659
  326loPI   C5A 5211   2.745  11.444   7.279 -0.2285  0.1386  0.0342
  326loPI   C6A 5212   2.831  11.137   6.996  0.0150 -0.0647  0.1697
  326loPI   C1B 5213   3.197  11.108   8.692 -0.1901  0.1665  0.1253
  326loPI   C2B 5214   3.206  11.033   8.267  0.3015  0.1345  0.0372
  326loPI   C3B 5215   3.219  11.140   7.864 -0.1030  0.0873  0.2033
  326loPI   C4B 5216   3.605  11.179   7.525 -0.0510  0.0299  0.1042
  327loPI    C1 5217  12.088   8.205  10.050  0.2928  0.1106  0.0953
  327loPI    C2 5218  11.804   8.476  10.124  0.0186 -0.1659  0.0777
  327loPI    C3 5219  11.832   8.148  10.351  0.2414 -0.2055 -0.0042
  327loPI   PO4 5220  12.228   8.275   9.876  0.1682 -0.0313  0.1251
  327loPI   GL1 5221  12.254   8.372   9.368  0.2055  0.3508  0.1240
  327loPI   GL2 5222  12.680   8.210   9.446 -0.0634  0.0274 -0.1422
  327loPI   C1A 5223  11.905   8.545   9.193 -0.1957  0.1280 -0.0426
  327loPI   C2A 5224  11.901   8.484   8.796 -0.1028 -0.1335 -0.0169
  327loPI   C3A 5225  11.953   8.281   8.435 -0.1565 -0.1799 -0.4526
  327loPI   C4A 5226  11.910   8.350   8.009  0.0504  0.0234  0.5806
  327loPI   C5A 5227  11.836   7.912   7.722 -0.0179 -0.1748  0.1258
  327loPI   C6A 5228  11.663   7.500   7.507 -0.0546 -0.3634  0.1812
  327loPI   C1B 5229  12.594   8.234   9.016  0.1246  0.1695 -0.0874
  327loPI   C2B 5230  12.587   8.289   8.566  0.1745  0.1036  0.1728
  327loPI   C3B 5231  12.399   8.384   8.218  0.2109  0.0539  0.0853
  327loPI   C4B 5232  12.465   8.547   7.834 -0.2028  0.0877 -0.2579
  328loPI    C1 5233   0.438  10.651   9.605 -0.0845  0.1510  0.0965
  328loPI    C2 5234   0.621  10.912   9.846  0.0650  0.1139  0.0246
  328loPI    C3 5235   0.776  10.547   9.792  0.0206  0.1145 -0.1103
  328loPI   PO4 5236   0.404  10.668   9.387  0.1671  0.0956 -0.0190
  328loPI   GL1 5237   0.377  10.461   9.076 -0.0999 -0.2557  0.1921
  328loPI   GL2 5238   0.153  10.216   9.086 -0.0052  0.1908 -0.0753
  328loPI   C1A 5239   0.442  10.519   8.579 -0.0724 -0.0668  0.0842
  328loPI   C2A 5240   0.539  10.690   8.226  0.1907 -0.0422 -0.0444
  328loPI   C3A 5241   0.432  10.680   7.846  0.3634  0.2208 -0.0685
  328loPI   C4A 5242   0.494  10.657   7.462 -0.5453  0.0694 -0.0173
  328loPI   C5A 5243   0.354  10.798   7.036 -0.2360  0.0048 -0.0071
  328loPI   C6A 5244   0.069  11.146   7.154 -0.0050 -0.1569 -0.2021
  328loPI   C1B 5245   0.041  10.305   8.674  0.1505  0.2156  0.0713
  328loPI   C2B 5246   0.010  10.388   8.199 -0.0835  0.0816 -0.2101
  328loPI   C3B 5247  -0.121  10.332   7.699  0.3906  0.0759  0.0872
  328loPI   C4B 5248  -0.092  10.159   7.314  0.3907 -0.2686 -0.0990
  329loPI    C1 5249  14.194   6.950   9.897 -0.2015  0.0114  0.0524
  329loPI    C2 5250  14.069   7.029  10.269  0.0486  0.1472  0.1106
  329loPI    C3 5251  14.283   6.699  10.196 -0.3209 -0.0774  0.0138
  329loPI   PO4 5252  14.070   7.224   9.825  0.1682  0.5534  0.0709
  329loPI   GL1 5253  13.806   7.284   9.469  0.1440 -0.2970 -0.1393
  329loPI   GL2 5254  13.440   7.301   9.461 -0.4343  0.1507 -0.0771
  329loPI   C1A 5255  13.705   7.272   9.057 -0.0018 -0.1586  0.1799
  329loPI   C2A 5256  13.599   7.273   8.643  0.0079 -0.0316  0.2414
  329loPI   C3A 5257  13.471   7.371   8.157  0.3719  0.1564  0.1964
  329loPI   C4A 5258  13.518   7.485   7.739 -0.1848  0.1606 -0.0507
  329loPI   C5A 5259  13.827   7.541   7.437  0.1304  0.3124 -0.3667
  329loPI   C6A 5260  14.143   7.778   7.181 -0.0549 -0.1197  0.1549
  329loPI   C1B 5261  13.201   7.216   9.238  0.3666  0.1566  0.0139
  329loPI   C2B 5262  13.059   7.262   8.929  0.0054 -0.1178 -0.2391
  329loPI   C3B 5263  13.050   7.304   8.488  0.1256 -0.1857 -0.0696
  329loPI   C4B 5264  13.028   7.438   7.981 -0.0721 -0.0677  0.0197
  330loPI    C1 5265  13.917   3.963  10.196  0.0084  0.5835  0.0293
  330loPI    C2 5266  14.234   3.766  10.342 -0.3046  0.0415  0.0046
  330loPI    C3 5267  14.025   4.012  10.579 -0.2285 -0.0732  0.1930
  330loPI   PO4 5268  13.929   4.170   9.994  0.3183 -0.2289 -0.2268
  330loPI   GL1 5269  13.920   4.182   9.556  0.0872 -0.1911 -0.1177
  330loPI   GL2 5270  13.914   3.812   9.660 -0.6167  0.0222 -0.2560
  330loPI   C1A 5271  14.003   4.270   9.063  0.0030  0.3457  0.0057
  330loPI   C2A 5272  14.178   4.364   8.580  0.0846  0.0426  0.1384
  330loPI   C3A 5273  14.422   4.672   8.251  0.3264  0.2794 -0.0413
  330loPI   C4A 5274  14.353   4.832   7.850 -0.1478  0.0406 -0.3442
  330loPI   C5A 5275  14.332   4.920   7.379 -0.2040  0.1945 -0.0092
  330loPI   C6A 5276  13.992   5.167   7.272 -0.1090  0.1520 -0.0762
  330loPI   C1B 5277  13.822   3.795   9.232  0.0546 -0.1700 -0.0413
  330loPI   C2B 5278  13.709   3.826   8.888 -0.0974 -0.1529  0.1853
  330loPI   C3B 5279  13.472   3.876   8.526  0.0845 -0.0797 -0.0592
  330loPI   C4B 5280  13.241   3.906   8.136 -0.0493 -0.0598  0.1058
  331loPI    C1 5281  14.946   3.380   9.840 -0.0331  0.1744 -0.1432
  331loPI    C2 5282  14.741   3.574  10.124  0.2359  0.1122  0.0987
  331loPI    C3 5283  14.684   3.182  10.069  0.1865  0.1235  0.0677
  331loPI   PO4 5284  14.917   3.523   9.634  0.1718  0.0617  0.0277
  331loPI   GL1 5285  14.618   3.537   9.459 -0.2710 -0.0008 -0.2099
  331loPI   GL2 5286  14.307   3.310   9.302 -0.1759  0.1287  0.2471
  331loPI   C1A 5287  14.653   3.503   9.013 -0.0209  0.3054 -0.0798
  331loPI   C2A 5288  14.506   3.526   8.535  0.1771 -0.2267 -0.1034
  331loPI   C3A 5289  14.513   3.692   8.152 -0.5017 -0.4673  0.3204
  331loPI   C4A 5290  14.442   3.877   7.736 -0.1900  0.2884  0.1511
  331loPI   C5A 5291  14.547   4.148   7.398 -0.0695 -0.0134  0.2643
  331loPI   C6A 5292  14.691   4.604   7.247 -0.1860  0.2000  0.1643
  331loPI   C1B 5293  14.236   3.144   8.834 -0.3749 -0.0265 -0.1383
  331loPI   C2B 5294  13.952   2.848   8.760  0.0653  0.1593  0.2425
  331loPI   C3B 5295  13.630   2.631   9.044  0.0488 -0.0941  0.0078
  331loPI   C4B 5296  13.589   2.635   9.446 -0.1883  0.1785 -0.0382
  332loPI    C1 5297  17.887  15.444  10.414 -0.2829  0.1026  0.0721
  332loPI    C2 5298  17.850  15.056  10.320 -0.0582  0.1085 -0.0488
  332loPI    C3 5299  18.032  15.164  10.660  0.0729  0.1118 -0.1191
  332loPI   PO4 5300  17.670  15.490  10.167 -0.2876 -0.2076 -0.2619
  332loPI   GL1 5301  17.722  15.434   9.799 -0.1086  0.0425  0.0588
  332loPI   GL2 5302  17.990  15.278   9.849  0.1138  0.1506  0.0310
  332loPI   C1A 5303  17.774  15.526   9.302  0.2571 -0.2431 -0.1437
  332loPI   C2A 5304  17.737  15.475   8.834  0.2127  0.0544  0.1229
  332loPI   C3A 5305  17.890  15.526   8.374  0.0440 -0.3554 -0.2441
  332loPI   C4A 5306  18.133  15.667   8.069 -0.1333  0.1058  0.0052
  332loPI   C5A 5307  18.463  15.638   7.769  0.4529 -0.0007 -0.3710
  332loPI   C6A 5308  18.545  15.585   7.228  0.2596  0.1218  0.1085
  332loPI   C1B 5309  18.047  15.143   9.425 -0.0671 -0.0462  0.0776
  332loPI   C2B 5310  17.868  15.010   9.101  0.2631  0.0185 -0.0475
  332loPI   C3B 5311  17.884  15.025   8.667 -0.0847 -0.2010 -0.2017
  332loPI   C4B 5312  17.820  14.932   8.272 -0.0409 -0.2693 -0.1618
  333loPI    C1 5313   7.581  16.261  10.108 -0.0583 -0.3055  0.1973
  333loPI    C2 5314   7.494  16.017   9.803 -0.3683  0.0022  0.0309
  333loPI    C3 5315   7.871  16.139   9.862 -0.2968 -0.1063 -0.1926
  333loPI   PO4 5316   7.425  16.526  10.111  0.3190  0.2718  0.2880
  333loPI   GL1 5317   7.127  16.689   9.808  0.0101  0.0038 -0.0378
  333loPI   GL2 5318   7.135  16.396   9.666  0.0076  0.1253  0.1538
  333loPI   C1A 5319   6.948  16.868   9.370 -0.2040  0.0432 -0.0733
  333loPI   C2A 5320   6.862  16.739   8.875 -0.1642  0.2206 -0.0097
  333loPI   C3A 5321   6.888  16.525   8.497 -0.0231 -0.3741 -0.0939
  333loPI   C4A 5322   6.965  16.380   8.022 -0.0285 -0.2766  0.0266
  333loPI   C5A 5323   7.287  16.621   7.875 -0.4220 -0.0786 -0.0937
  333loPI   C6A 5324   7.654  16.590   7.669 -0.3626  0.0702  0.1836
  333loPI   C1B 5325   7.244  16.463   9.203 -0.0571  0.0341 -0.1799
  333loPI   C2B 5326   7.382  16.523   8.793  0.4257  0.1027  0.5306
  333loPI   C3B 5327   7.652  16.699   8.556 -0.3961  0.1400  0.2802
  333loPI   C4B 5328   7.785  16.997   8.476  0.3110  0.0494  0.3347
  334loPI    C1 5329  14.514   1.965  10.164 -0.1279  0.0489  0.0961
  334loPI    C2 5330  14.190   1.956   9.930 -0.0924 -0.0108  0.0491
  334loPI    C3 5331  14.157   1.875  10.320 -0.1049 -0.1999  0.0096
  334loPI   PO4 5332  14.707   2.083   9.924 -0.3493 -0.1159  0.1138
  334loPI   GL1 5333  14.579   2.170   9.409 -0.1470 -0.3481  0.2054
  334loPI   GL2 5334  14.935   2.095   9.326  0.0726 -0.1393  0.0729
  334loPI   C1A 5335  14.527   2.249   9.056 -0.0279 -0.0979  0.1549
  334loPI   C2A 5336  14.713   2.278   8.609 -0.0923  0.1966  0.2283
  334loPI   C3A 5337  14.749   2.363   8.150 -0.0175  0.0192  0.0430
  334loPI   C4A 5338  14.674   2.609   7.935  0.0488 -0.0278  0.0062
  334loPI   C5A 5339  14.373   2.664   7.690  0.1224  0.0381  0.0248
  334loPI   C6A 5340  14.283   3.035   7.484  0.2510 -0.0226 -0.0105
  334loPI   C1B 5341  14.897   1.905   8.970 -0.0503  0.0233 -0.1715
  334loPI   C2B 5342  14.957   1.781   8.517 -0.0943 -0.2125 -0.2747
  334loPI   C3B 5343  14.793   1.849   8.211  0.3058  0.2085  0.1312
  334loPI   C4B 5344  14.956   1.836   7.847 -0.0098  0.0831 -0.0142
  335loPI    C1 5345  10.669   1.220   9.880  0.4059 -0.2279  0.2565
  335loPI    C2 5346  10.397   0.977  10.044  0.0329  0.0369  0.0457
  335loPI    C3 5347  10.488   1.324  10.221 -0.0270  0.1095 -0.0646
  335loPI   PO4 5348  10.713   1.168   9.663  0.2062  0.1009 -0.1226
  335loPI   GL1 5349  11.118   1.070   9.406 -0.0214 -0.0951 -0.0343
  335loPI   GL2 5350  11.211   0.710   9.244  0.0173 -0.1459 -0.0998
  335loPI   C1A 5351  11.230   1.198   8.969  0.5022 -0.0883 -0.1405
  335loPI   C2A 5352  11.119   1.159   8.534  0.4199 -0.2736  0.2524
  335loPI   C3A 5353  11.162   1.258   8.019 -0.0397  0.4222 -0.4349
  335loPI   C4A 5354  11.076   1.504   7.663  0.0167  0.0734 -0.0046
  335loPI   C5A 5355  10.997   1.699   7.295 -0.3127 -0.4825  0.1403
  335loPI   C6A 5356  10.793   1.937   6.881 -0.2874 -0.1141 -0.0792
  335loPI   C1B 5357  11.391   0.710   8.753  0.0472  0.2138 -0.0575
  335loPI   C2B 5358  11.441   0.811   8.323 -0.2608 -0.2839 -0.2553
  335loPI   C3B 5359  11.345   0.618   7.921 -0.3432 -0.1963 -0.0842
  335loPI   C4B 5360  11.294   1.003   7.655  0.2026 -0.1158  0.0846
  336loPI    C1 5361  12.942   2.335  10.180 -0.0420  0.0568 -0.2720
  336loPI    C2 5362  12.561   2.401  10.281  0.0639  0.2507  0.0153
  336loPI    C3 5363  12.826   2.293  10.561  0.1706 -0.1319 -0.2255
  336loPI   PO4 5364  12.961   2.117   9.936 -0.0933 -0.0751  0.1808
  336loPI   GL1 5365  12.995   2.047   9.551  0.0032  0.0246 -0.1107
  336loPI   GL2 5366  12.730   2.313   9.537  0.1937 -0.2625 -0.2387
  336loPI   C1A 5367  13.313   2.274   9.333  0.2329 -0.2245  0.1350
  336loPI   C2A 5368  13.407   2.193   8.917  0.0151  0.1681  0.0751
  336loPI   C3A 5369  13.626   2.351   8.597  0.0522 -0.3437  0.3195
  336loPI   C4A 5370  13.775   2.522   8.168 -0.2716 -0.0372 -0.4236
  336loPI   C5A 5371  13.856   2.442   7.677 -0.0136  0.0430  0.5936
  336loPI   C6A 5372  13.946   2.751   7.300  0.2382 -0.0506 -0.1808
  336loPI   C1B 5373  12.682   2.442   9.140  0.1330 -0.0982 -0.1313
  336loPI   C2B 5374  12.632   2.582   8.721 -0.1236  0.4067 -0.0629
  336loPI   C3B 5375  12.628   2.623   8.306 -0.1100  0.1250 -0.1103
  336loPI   C4B 5376  12.640   2.521   7.892  0.0828 -0.1357  0.2454
  337loPI    C1 5377  16.668   1.301   9.816 -0.0764 -0.2370 -0.2231
  337loPI    C2 5378  16.842   1.336  10.174 -0.0130 -0.2762 -0.2499
  337loPI    C3 5379  16.464   1.209  10.148 -0.0752 -0.1078 -0.1860
  337loPI   PO4 5380  16.925   1.202   9.685  0.2579 -0.1905 -0.0227
  337loPI   GL1 5381  17.167   1.184   9.216 -0.2106 -0.1630 -0.1160
  337loPI   GL2 5382  17.283   1.409   9.328  0.2263 -0.0418 -0.1488
  337loPI   C1A 5383  17.268   1.210   8.789  0.0643  0.1438 -0.3758
  337loPI   C2A 5384  17.512   1.160   8.431  0.2007  0.1741  0.0410
  337loPI   C3A 5385  17.849   0.941   8.130  0.0727 -0.1487 -0.0024
  337loPI   C4A 5386  17.897   1.216   7.750 -0.0903  0.1260  0.0347
  337loPI   C5A 5387  17.968   1.586   7.511  0.1208  0.1205 -0.3173
  337loPI   C6A 5388  18.412   1.491   7.282  0.2089 -0.2731 -0.2294
  337loPI   C1B 5389  17.578   1.582   8.997 -0.2552  0.0338  0.0617
  337loPI   C2B 5390  17.735   1.568   8.607  0.3423 -0.0575  0.1483
  337loPI   C3B 5391  17.845   1.440   8.209  0.0077 -0.0759  0.0381
  337loPI   C4B 5392  17.452   1.215   7.962  0.0933 -0.1381 -0.0385
  338loPI    C1 5393  15.732   1.626  10.321 -0.0409  0.1462 -0.0903
  338loPI    C2 5394  15.641   1.239  10.273 -0.1556  0.1914 -0.2437
  338loPI    C3 5395  15.356   1.518  10.239 -0.1169  0.2751  0.0815
  338loPI   PO4 5396  15.994   1.601  10.103  0.2492  0.2490 -0.0546
  338loPI   GL1 5397  16.207   1.582   9.711 -0.2465  0.0245  0.1511
  338loPI   GL2 5398  15.933   1.659   9.530 -0.1214 -0.2101  0.1350
  338loPI   C1A 5399  16.401   1.540   9.317 -0.0019 -0.0401 -0.1598
  338loPI   C2A 5400  16.527   1.644   8.878 -0.1040 -0.0326  0.0706
  338loPI   C3A 5401  16.801   1.822   8.528 -0.3049  0.0081  0.1827
  338loPI   C4A 5402  16.991   1.686   8.088  0.1109  0.0008  0.0713
  338loPI   C5A 5403  16.662   1.456   7.895 -0.0204 -0.0408 -0.0152
  338loPI   C6A 5404  16.513   1.192   7.593 -0.0445  0.3226  0.2568
  338loPI   C1B 5405  15.869   1.707   9.148 -0.0475 -0.1539 -0.0931
  338loPI   C2B 5406  15.891   1.667   8.749 -0.1382 -0.1396 -0.0341
  338loPI   C3B 5407  15.932   1.837   8.454  0.2038  0.4849  0.0171
  338loPI   C4B 5408  15.867   1.929   7.954 -0.2304 -0.1303 -0.2878
  339loPI    C1 5409  10.111  11.172  10.384  0.2222 -0.0539  0.3295
  339loPI    C2 5410  10.478  11.267  10.256  0.0415  0.1868 -0.0290
  339loPI    C3 5411  10.413  10.915  10.435  0.4576  0.1716  0.1028
  339loPI   PO4 5412   9.956  11.300  10.100  0.2112  0.1349  0.1961
  339loPI   GL1 5413   9.990  11.294   9.604 -0.6256  0.2087 -0.1139
  339loPI   GL2 5414   9.689  11.293   9.648 -0.0703 -0.0599  0.1599
  339loPI   C1A 5415  10.055  10.992   9.326  0.0670  0.0129  0.4014
  339loPI   C2A 5416   9.883  10.926   8.947 -0.1711  0.0780  0.1602
  339loPI   C3A 5417   9.868  11.019   8.509 -0.0154  0.0585 -0.0705
  339loPI   C4A 5418   9.806  11.000   8.115  0.0591 -0.1668  0.0043
  339loPI   C5A 5419   9.985  10.933   7.765 -0.0752 -0.1338  0.1213
  339loPI   C6A 5420  10.247  10.857   7.435  0.0424  0.1162  0.1046
  339loPI   C1B 5421   9.524  11.184   9.314 -0.1879  0.2630 -0.4572
  339loPI   C2B 5422   9.425  11.021   8.840  0.3716  0.1669 -0.1131
  339loPI   C3B 5423   9.308  11.003   8.396  0.2243 -0.2524  0.3057
  339loPI   C4B 5424   9.256  10.818   8.046 -0.0796 -0.0756  0.0017
  340loPI    C1 5425  18.726   9.187   9.872  0.0352 -0.0709  0.0007
  340loPI    C2 5426  18.362   9.035   9.807  0.1130 -0.2342 -0.0585
  340loPI    C3 5427  18.631   8.826  10.017  0.2610 -0.2328 -0.2443
  340loPI   PO4 5428  18.765   9.418   9.543 -0.0644 -0.2125 -0.1812
  340loPI   GL1 5429  18.843   9.596   9.278 -0.0033 -0.2929 -0.0591
  340loPI   GL2 5430  19.136   9.494   9.050 -0.1548  0.1476 -0.1615
  340loPI   C1A 5431  18.538   9.452   8.882  0.1664  0.2036 -0.4592
  340loPI   C2A 5432  18.664   9.581   8.472  0.1213  0.2760 -0.1334
  340loPI   C3A 5433  18.506   9.522   7.991 -0.4055 -0.3917  0.0476
  340loPI   C4A 5434  18.512   9.528   7.554 -0.0657 -0.0538  0.0993
  340loPI   C5A 5435  18.547   9.344   7.107 -0.0671 -0.0184 -0.0348
  340loPI   C6A 5436  18.589   9.491   6.651 -0.3109  0.0164  0.0578
  340loPI   C1B 5437  19.145   9.502   8.625  0.1547  0.0705 -0.3126
  340loPI   C2B 5438  19.107   9.487   8.276 -0.0486 -0.1453  0.0168
  340loPI   C3B 5439  18.971   9.363   7.891  0.0155 -0.1871  0.3014
  340loPI   C4B 5440  18.991   9.285   7.424  0.0545 -0.0175 -0.3869
  341loPI    C1 5441  16.766  17.456  10.426  0.2225 -0.3165 -0.0209
  341loPI    C2 5442  16.986  17.667  10.685 -0.1040  0.2652 -0.1995
  341loPI    C3 5443  16.614  17.557  10.782  0.0069 -0.0977 -0.1716
  341loPI   PO4 5444  16.753  17.542  10.162  0.1392  0.1194 -0.0845
  341loPI   GL1 5445  16.627  17.489   9.699 -0.2053 -0.2387 -0.0376
  341loPI   GL2 5446  16.403  17.275   9.605 -0.3292  0.0635  0.0299
  341loPI   C1A 5447  16.686  17.472   9.251 -0.2267  0.0869 -0.1408
  341loPI   C2A 5448  16.610  17.575   8.813  0.0700  0.1268 -0.0330
  341loPI   C3A 5449  16.466  17.584   8.319 -0.3745  0.0062  0.0136
  341loPI   C4A 5450  16.494  17.966   8.028  0.1448  0.1191 -0.0619
  341loPI   C5A 5451  16.207  18.222   7.774 -0.3291 -0.0010 -0.1700
  341loPI   C6A 5452  15.882  18.232   7.623 -0.1087  0.3119 -0.0866
  341loPI   C1B 5453  16.100  17.185   9.141 -0.0354 -0.3645  0.0719
  341loPI   C2B 5454  16.170  17.257   8.798  0.1335 -0.2865  0.4168
  341loPI   C3B 5455  16.078  17.260   8.383 -0.0290  0.1600  0.2225
  341loPI   C4B 5456  16.217  17.262   8.050 -0.1328  0.2591 -0.1436
  342loPI    C1 5457  15.509  10.830   9.391  0.1627 -0.2223  0.1701
  342loPI    C2 5458  15.470  11.148   9.630  0.2856 -0.0564 -0.0266
  342loPI    C3 5459  15.226  10.834   9.672  0.1308  0.0839  0.1368
  342loPI   PO4 5460  15.484  10.808   9.087  0.0648 -0.2435 -0.0729
  342loPI   GL1 5461  15.148  10.721   8.858 -0.1704  0.2748  0.1442
  342loPI   GL2 5462  15.195  10.401   8.659 -0.1669 -0.1837  0.2814
  342loPI   C1A 5463  15.188  10.864   8.517 -0.4059 -0.2500 -0.1750
  342loPI   C2A 5464  14.944  10.952   8.074 -0.1107 -0.1075 -0.2025
  342loPI   C3A 5465  15.074  11.135   7.623  0.1131  0.1062  0.0812
  342loPI   C4A 5466  14.913  11.342   7.179  0.2603  0.0221  0.0888
  342loPI   C5A 5467  14.980  11.498   6.767 -0.0211 -0.0704  0.0093
  342loPI   C6A 5468  15.235  11.471   6.358  0.2660  0.0407 -0.0525
  342loPI   C1B 5469  15.483  10.434   8.295 -0.0279  0.3035  0.0215
  342loPI   C2B 5470  15.816  10.449   7.943  0.1058  0.3001 -0.1027
  342loPI   C3B 5471  15.897  10.445   7.478  0.0890 -0.1966  0.2111
  342loPI   C4B 5472  16.242  10.368   7.102 -0.0159  0.1847  0.0933
  343loPI    C1 5473  10.239   9.197  10.288  0.0467 -0.1152 -0.1879
  343loPI    C2 5474  10.104   9.494  10.056 -0.0588  0.0311  0.0574
  343loPI    C3 5475   9.941   9.430  10.416  0.0120 -0.2799  0.0375
  343loPI   PO4 5476  10.278   8.986  10.172 -0.0877  0.2708  0.3219
  343loPI   GL1 5477  10.526   8.903   9.833  0.0551 -0.0117 -0.0051
  343loPI   GL2 5478  10.391   9.203   9.725 -0.1090  0.2539 -0.4364
  343loPI   C1A 5479  10.552   8.688   9.408  0.1039 -0.2116  0.0371
  343loPI   C2A 5480  10.503   8.859   8.921 -0.0368 -0.2795  0.0463
  343loPI   C3A 5481  10.411   8.820   8.535 -0.0070  0.3813  0.0001
  343loPI   C4A 5482  10.593   8.553   8.309 -0.0824  0.1852 -0.3676
  343loPI   C5A 5483  10.606   8.306   7.889  0.0916 -0.0407 -0.2874
  343loPI   C6A 5484  10.954   8.083   7.775  0.1711  0.6311  0.2229
  343loPI   C1B 5485  10.160   9.098   9.315 -0.0150  0.0432  0.3079
  343loPI   C2B 5486  10.036   9.064   8.943  0.3140  0.4818  0.2808
  343loPI   C3B 5487   9.901   9.052   8.566 -0.3772  0.2887 -0.0875
  343loPI   C4B 5488   9.840   8.889   8.204 -0.4337  0.2638  0.3200
  344loPI    C1 5489  16.416  14.961   9.975  0.0524 -0.0659  0.0622
  344loPI    C2 5490  16.795  14.993  10.099  0.0742 -0.1479  0.0170
  344loPI    C3 5491  16.535  14.770  10.305  0.0681 -0.1479  0.0093
  344loPI   PO4 5492  16.391  15.293   9.859  0.2999 -0.1469 -0.1347
  344loPI   GL1 5493  16.247  15.399   9.491 -0.1752  0.0237  0.0090
  344loPI   GL2 5494  16.048  15.201   9.356  0.1091 -0.3314  0.1122
  344loPI   C1A 5495  16.479  15.491   9.054  0.1385 -0.1308 -0.1392
  344loPI   C2A 5496  16.377  15.530   8.631  0.0992 -0.2711 -0.1830
  344loPI   C3A 5497  16.541  15.467   8.222  0.0283 -0.2564  0.1114
  344loPI   C4A 5498  16.544  15.460   7.743  0.1322 -0.0450  0.2055
  344loPI   C5A 5499  16.892  15.577   7.463 -0.0171  0.1582 -0.0048
  344loPI   C6A 5500  17.288  15.528   7.256  0.1682 -0.1761  0.0052
  344loPI   C1B 5501  16.148  15.191   8.871  0.5291  0.0875 -0.0392
  344loPI   C2B 5502  16.130  15.161   8.481  0.1404  0.0414  0.1043
  344loPI   C3B 5503  16.289  15.077   8.014 -0.0592  0.4140  0.2588
  344loPI   C4B 5504  16.154  15.242   7.718  0.2876 -0.2543  0.0205
  345loPI    C1 5505   7.121  17.557  10.381  0.1638  0.0265  0.0914
  345loPI    C2 5506   7.118  17.172  10.486  0.0660  0.0578  0.2052
  345loPI    C3 5507   6.862  17.427  10.657  0.0084  0.1387  0.0004
  345loPI   PO4 5508   7.165  17.506  10.057  0.2630  0.1852 -0.1609
  345loPI   GL1 5509   7.243  17.719   9.683 -0.1281  0.1761  0.0047
  345loPI   GL2 5510   6.958  17.498   9.603 -0.2538 -0.5905 -0.1579
  345loPI   C1A 5511   6.999  17.932   9.315 -0.0218 -0.0758  0.0022
  345loPI   C2A 5512   6.857  17.918   8.847  0.3043  0.0730  0.0550
  345loPI   C3A 5513   6.711  17.886   8.471 -0.0752  0.1387  0.5224
  345loPI   C4A 5514   6.622  17.825   8.044 -0.0158 -0.0003 -0.0438
  345loPI   C5A 5515   6.589  18.110   7.705  0.0441  0.1719  0.4419
  345loPI   C6A 5516   6.654  18.509   7.738  0.0413 -0.2519  0.0474
  345loPI   C1B 5517   6.957  17.462   9.137  0.1072  0.3400 -0.0342
  345loPI   C2B 5518   6.756  17.172   8.832 -0.1118 -0.1281  0.1358
  345loPI   C3B 5519   6.652  17.014   8.435  0.1402  0.0428 -0.2885
  345loPI   C4B 5520   6.736  16.832   8.155 -0.1296  0.0928  0.0553
  346loPI    C1 5521  12.080   4.676  10.629 -0.2247  0.1396  0.2387
  346loPI    C2 5522  12.235   4.320  10.725 -0.2544 -0.0082 -0.2356
  346loPI    C3 5523  12.410   4.656  10.854 -0.1383 -0.1892  0.0888
  346loPI   PO4 5524  12.055   4.696  10.375 -0.0491  0.0835  0.1444
  346loPI   GL1 5525  11.619   4.432  10.141 -0.1484 -0.0438  0.1604
  346loPI   GL2 5526  11.817   4.773   9.954  0.2167 -0.2409  0.1512
  346loPI   C1A 5527  11.804   4.267   9.770  0.0365 -0.1180  0.1972
  346loPI   C2A 5528  11.861   4.222   9.316  0.0381  0.2262 -0.2103
  346loPI   C3A 5529  12.036   4.348   9.063 -0.1167 -0.0997  0.0655
  346loPI   C4A 5530  12.129   4.447   8.656 -0.1219 -0.2897 -0.1299
  346loPI   C5A 5531  11.876   4.603   8.303 -0.1645  0.1101  0.2737
  346loPI   C6A 5532  12.011   4.762   7.982 -0.2958 -0.2348  0.1822
  346loPI   C1B 5533  11.573   4.993   9.690 -0.0092 -0.0704 -0.0681
  346loPI   C2B 5534  11.372   5.303   9.304  0.0091 -0.1580 -0.0453
  346loPI   C3B 5535  11.475   5.412   8.904 -0.2367 -0.0110  0.2052
  346loPI   C4B 5536  11.417   5.543   8.477 -0.0118 -0.3202 -0.0798
  347loPI    C1 5537  15.076   6.038   9.543 -0.0188  0.0001  0.0743
  347loPI    C2 5538  15.424   5.907   9.691  0.0501 -0.0039 -0.0894
  347loPI    C3 5539  15.175   5.652   9.509 -0.0218  0.0063 -0.0059
  347loPI   PO4 5540  15.209   6.299   9.457  0.0135 -0.1134  0.1219
  347loPI   GL1 5541  15.380   6.543   8.999 -0.0366 -0.0000 -0.0966
  347loPI   GL2 5542  15.706   6.501   9.007 -0.0613  0.2580 -0.1575
  347loPI   C1A 5543  15.240   6.434   8.508 -0.0660 -0.0197 -0.1186
  347loPI   C2A 5544  14.987   6.471   8.158  0.0322  0.0351 -0.0625
  347loPI   C3A 5545  14.705   6.690   7.766 -0.0343  0.2395  0.0093
  347loPI   C4A 5546  14.396   6.621   7.424 -0.0077 -0.2875  0.0756
  347loPI   C5A 5547  13.976   6.727   7.519  0.1680 -0.0670 -0.2381
  347loPI   C6A 5548  13.850   7.057   7.342  0.1493 -0.0922  0.2187
  347loPI   C1B 5549  15.815   6.590   8.652 -0.4916  0.2348 -0.0097
  347loPI   C2B 5550  15.927   6.615   8.247 -0.3206  0.0168  0.0551
  347loPI   C3B 5551  15.911   6.691   7.783 -0.0899  0.2444 -0.0507
  347loPI   C4B 5552  15.798   6.592   7.188  0.0429  0.1202 -0.0056
  348loPI    C1 5553  10.195   9.902  10.306  0.0857 -0.1352 -0.3896
  348loPI    C2 5554  10.570   9.980  10.420 -0.0861  0.0892  0.0477
  348loPI    C3 5555  10.431   9.605  10.431  0.1158  0.0082 -0.0963
  348loPI   PO4 5556  10.210  10.110  10.060  0.1168 -0.0990  0.0417
  348loPI   GL1 5557  10.225   9.995   9.653  0.3593  0.0050 -0.3636
  348loPI   GL2 5558  10.367   9.694   9.595 -0.2826 -0.0750  0.0122
  348loPI   C1A 5559   9.995  10.040   9.208 -0.1733  0.2202  0.0971
  348loPI   C2A 5560   9.785  10.031   8.829  0.1015  0.0898 -0.0364
  348loPI   C3A 5561   9.431  10.009   8.613 -0.2375  0.0168  0.1045
  348loPI   C4A 5562   9.217   9.690   8.357  0.0199  0.0921 -0.3215
  348loPI   C5A 5563   8.899   9.376   8.230 -0.0597 -0.2282 -0.1938
  348loPI   C6A 5564   8.869   9.122   7.945  0.0538  0.3067  0.1123
  348loPI   C1B 5565  10.513   9.462   9.253 -0.1989  0.1438 -0.2329
  348loPI   C2B 5566  10.413   9.340   8.733 -0.1477  0.0759  0.0547
  348loPI   C3B 5567  10.257   9.470   8.379  0.0412  0.0349 -0.1182
  348loPI   C4B 5568   9.940   9.361   8.026 -0.2161  0.4061  0.0965
  349loPI    C1 5569  11.951  12.345  10.018 -0.2289 -0.0727  0.1976
  349loPI    C2 5570  11.591  12.497   9.933 -0.0506  0.1844 -0.1221
  349loPI    C3 5571  11.849  12.707  10.156 -0.0914  0.0043  0.0991
  349loPI   PO4 5572  12.021  12.218   9.790  0.2357  0.0199 -0.1473
  349loPI   GL1 5573  12.182  12.096   9.366  0.4208 -0.0549  0.2179
  349loPI   GL2 5574  11.707  12.186   9.394 -0.0912 -0.2777 -0.1851
  349loPI   C1A 5575  12.255  12.116   8.944 -0.1231 -0.0125 -0.2185
  349loPI   C2A 5576  12.222  12.152   8.511  0.2538 -0.0907  0.0329
  349loPI   C3A 5577  12.228  12.200   8.080 -0.2035  0.2194 -0.0134
  349loPI   C4A 5578  12.229  12.311   7.651 -0.2525 -0.1942  0.1934
  349loPI   C5A 5579  12.050  12.396   7.318 -0.4361 -0.1737  0.0716
  349loPI   C6A 5580  12.066  12.263   6.929  0.0828 -0.1866  0.0551
  349loPI   C1B 5581  11.407  12.043   9.061  0.1833  0.0095  0.1055
  349loPI   C2B 5582  11.367  12.029   8.651  0.0461 -0.0254  0.0532
  349loPI   C3B 5583  11.372  12.130   8.213  0.0197 -0.3765 -0.1831
  349loPI   C4B 5584  11.321  12.296   7.792 -0.1876 -0.1121 -0.0043
  350loPI    C1 5585   3.106   2.051   9.897  0.1764 -0.0961  0.0366
  350loPI    C2 5586   3.036   1.707  10.089 -0.0719  0.0340  0.1846
  350loPI    C3 5587   3.298   1.970  10.238  0.0962 -0.0758  0.0868
  350loPI   PO4 5588   3.087   2.014   9.664  0.3403  0.0619 -0.0225
  350loPI   GL1 5589   3.371   1.939   9.281  0.1565 -0.1059 -0.2455
  350loPI   GL2 5590   3.208   2.192   8.971  0.4382 -0.2810 -0.2874
  350loPI   C1A 5591   3.700   1.972   8.996  0.0582 -0.1515 -0.0663
  350loPI   C2A 5592   3.745   2.103   8.584  0.2960  0.1010  0.1689
  350loPI   C3A 5593   3.810   2.223   8.071 -0.0487 -0.0229  0.2586
  350loPI   C4A 5594   3.663   2.224   7.595 -0.2016 -0.3153  0.4130
  350loPI   C5A 5595   3.749   2.279   7.242  0.0443 -0.0146  0.1468
  350loPI   C6A 5596   3.968   2.617   7.012 -0.1520 -0.0512 -0.0962
  350loPI   C1B 5597   3.337   1.812   8.693 -0.1903  0.2636  0.1704
  350loPI   C2B 5598   3.475   1.865   8.175  0.0104 -0.1443 -0.0567
  350loPI   C3B 5599   3.721   1.735   7.788  0.3143 -0.0057 -0.2974
  350loPI   C4B 5600   3.690   1.580   7.390 -0.2826 -0.2245 -0.4060
  351loPI    C1 5601   2.902  10.170   9.212  0.2803 -0.4040  0.0734
  351loPI    C2 5602   2.533  10.274   9.323  0.3378  0.0560 -0.1397
  351loPI    C3 5603   2.757  10.044   9.562  0.0664  0.1174  0.1817
  351loPI   PO4 5604   2.939  10.238   8.997 -0.1444  0.2658  0.0729
  351loPI   GL1 5605   3.072   9.963   8.681  0.1721 -0.0217  0.0311
  351loPI   GL2 5606   2.868  10.202   8.487 -0.3021 -0.1606  0.0435
  351loPI   C1A 5607   3.261   9.875   8.202 -0.0976 -0.0528 -0.2383
  351loPI   C2A 5608   3.339   9.814   7.731  0.0677 -0.0317 -0.1386
  351loPI   C3A 5609   3.391   9.552   7.313  0.0485  0.2303 -0.1173
  351loPI   C4A 5610   3.590   9.382   7.002  0.1225 -0.0457 -0.0920
  351loPI   C5A 5611   4.041   9.363   6.947  0.1727 -0.0291  0.3938
  351loPI   C6A 5612   4.284   9.451   6.596  0.1129 -0.1814  0.0771
  351loPI   C1B 5613   2.516  10.186   8.296 -0.0736 -0.1618  0.0149
  351loPI   C2B 5614   2.400  10.100   7.868  0.3115  0.1126  0.0080
  351loPI   C3B 5615   2.444   9.932   7.491  0.0358  0.2691  0.4857
  351loPI   C4B 5616   2.514   9.834   7.077  0.0050 -0.1791  0.1376
  352loPI    C1 5617   0.490  10.033   9.666 -0.2379  0.0570  0.0040
  352loPI    C2 5618   0.460  10.253   9.999 -0.2133  0.0489  0.0116
  352loPI    C3 5619   0.602   9.879  10.017 -0.0857  0.0950 -0.0272
  352loPI   PO4 5620   0.554  10.169   9.482  0.0701 -0.1338  0.0695
  352loPI   GL1 5621   0.772  10.037   9.126  0.4189 -0.2721 -0.2249
  352loPI   GL2 5622   0.788   9.649   9.096 -0.4572 -0.0790  0.1649
  352loPI   C1A 5623   1.003  10.221   8.696 -0.1919  0.0720  0.2625
  352loPI   C2A 5624   0.992  10.316   8.246  0.2568  0.1278 -0.1728
  352loPI   C3A 5625   0.843  10.417   7.883  0.2911 -0.2233 -0.1463
  352loPI   C4A 5626   0.906  10.289   7.480  0.0675 -0.0251  0.2366
  352loPI   C5A 5627   0.771  10.381   7.052 -0.0787 -0.0315  0.2281
  352loPI   C6A 5628   0.712  10.305   6.595  0.0238 -0.1167 -0.0312
  352loPI   C1B 5629   0.951   9.725   8.745 -0.1384 -0.1886  0.0561
  352loPI   C2B 5630   0.930   9.718   8.184  0.1110 -0.2164 -0.1094
  352loPI   C3B 5631   0.872   9.857   7.750  0.0172 -0.0103  0.2312
  352loPI   C4B 5632   0.805   9.810   7.313 -0.0503 -0.2414 -0.0506
  353loPI    C1 5633   2.136   2.618   9.476 -0.0288 -0.0755 -0.0545
  353loPI    C2 5634   2.027   2.389   9.786 -0.0956 -0.0446 -0.0550
  353loPI    C3 5635   2.094   2.780   9.840 -0.1712 -0.0264 -0.0923
  353loPI   PO4 5636   2.375   2.476   9.395 -0.1238 -0.1196 -0.2086
  353loPI   GL1 5637   2.506   2.263   9.023  0.2461 -0.2448 -0.0128
  353loPI   GL2 5638   2.692   2.048   9.139  0.1113  0.1675 -0.3551
  353loPI   C1A 5639   2.351   2.487   8.714 -0.0567 -0.0501  0.0871
  353loPI   C2A 5640   2.175   2.899   8.490  0.0562  0.0031 -0.0291
  353loPI   C3A 5641   2.017   3.026   8.062  0.0028 -0.0816 -0.2644
  353loPI   C4A 5642   1.978   3.044   7.626 -0.1241  0.1746  0.0159
  353loPI   C5A 5643   1.848   3.107   7.242  0.1212 -0.1180 -0.0597
  353loPI   C6A 5644   1.653   3.544   7.162  0.2638  0.1041  0.3120
  353loPI   C1B 5645   2.884   2.007   8.702 -0.2041 -0.0362  0.2853
  353loPI   C2B 5646   3.214   2.223   8.416  0.0335 -0.0593 -0.3121
  353loPI   C3B 5647   3.331   2.268   7.935 -0.0489  0.2449  0.0357
  353loPI   C4B 5648   3.233   2.538   7.585  0.0134 -0.1875  0.1967
  354loPI    C1 5649   3.250  12.344   9.928 -0.1345  0.1778  0.3793
  354loPI    C2 5650   3.268  11.944   9.934 -0.0516  0.1709 -0.0329
  354loPI    C3 5651   3.239  12.148  10.277  0.1359 -0.1768  0.1960
  354loPI   PO4 5652   3.531  12.595   9.836  0.2200  0.2604  0.0220
  354loPI   GL1 5653   3.555  12.645   9.410  0.2657 -0.0711  0.0453
  354loPI   GL2 5654   3.829  12.478   9.297  0.0460 -0.1461 -0.0695
  354loPI   C1A 5655   3.403  12.589   9.048 -0.3117  0.0835  0.0926
  354loPI   C2A 5656   3.373  12.705   8.620 -0.4020 -0.2218  0.4902
  354loPI   C3A 5657   3.648  12.686   8.291 -0.0912 -0.0487 -0.0752
  354loPI   C4A 5658   3.645  12.630   7.862  0.1506 -0.0588  0.1470
  354loPI   C5A 5659   3.645  12.708   7.480  0.0010  0.0798  0.0507
  354loPI   C6A 5660   3.359  12.587   7.218 -0.0988 -0.0924  0.1648
  354loPI   C1B 5661   3.839  12.454   8.919 -0.2294 -0.1845 -0.0150
  354loPI   C2B 5662   3.849  12.283   8.586  0.0121 -0.1158 -0.1838
  354loPI   C3B 5663   3.807  12.236   8.203  0.0374 -0.1012 -0.1812
  354loPI   C4B 5664   3.797  12.172   7.735 -0.0880  0.1721  0.1763
  355loPI    C1 5665   9.171   4.925  10.252  0.0745 -0.1093 -0.0063
  355loPI    C2 5666   9.495   5.096  10.412 -0.0497 -0.1312  0.2737
  355loPI    C3 5667   9.144   5.114  10.603 -0.1690 -0.2872  0.0733
  355loPI   PO4 5668   9.174   4.985  10.021  0.0038 -0.4378 -0.0505
  355loPI   GL1 5669   9.143   5.209   9.651 -0.2569  0.2298  0.2021
  355loPI   GL2 5670   9.393   5.405   9.401  0.2103 -0.1028 -0.0216
  355loPI   C1A 5671   9.248   4.953   9.384  0.0494 -0.2668 -0.3423
  355loPI   C2A 5672   9.288   4.852   9.030 -0.2052  0.0780 -0.1504
  355loPI   C3A 5673   9.242   4.834   8.657  0.1014 -0.1898  0.0842
  355loPI   C4A 5674   9.081   4.842   8.269  0.0843  0.2171  0.2993
  355loPI   C5A 5675   8.821   4.828   7.799 -0.2027  0.0472  0.0407
  355loPI   C6A 5676   8.515   4.854   7.439  0.2771  0.0131 -0.0235
  355loPI   C1B 5677   9.405   5.401   8.993 -0.2851 -0.1361 -0.0070
  355loPI   C2B 5678   9.578   5.232   8.601  0.0137  0.2291  0.0108
  355loPI   C3B 5679   9.638   5.090   8.095 -0.1755 -0.2248  0.1346
  355loPI   C4B 5680   9.340   4.843   7.813  0.0842 -0.0580  0.2850
  356loPI    C1 5681  14.893   9.016   9.748 -0.0094  0.2311  0.0578
  356loPI    C2 5682  14.753   8.829  10.073 -0.0023  0.1423  0.0102
  356loPI    C3 5683  15.061   9.082  10.105  0.2470 -0.1567  0.0147
  356loPI   PO4 5684  14.921   8.845   9.559  0.1096  0.2146 -0.2060
  356loPI   GL1 5685  14.753   8.758   9.179  0.1329 -0.3171  0.0319
  356loPI   GL2 5686  14.498   8.531   9.152 -0.0117  0.2122  0.1040
  356loPI   C1A 5687  14.960   8.746   8.862  0.0583  0.0082 -0.3134
  356loPI   C2A 5688  15.115   8.771   8.510 -0.0611  0.1021 -0.4284
  356loPI   C3A 5689  15.020   8.640   8.134  0.3519  0.4272 -0.2881
  356loPI   C4A 5690  14.866   8.631   7.760 -0.2460  0.0100 -0.3269
  356loPI   C5A 5691  14.769   8.561   7.400  0.3107  0.2497  0.0563
  356loPI   C6A 5692  14.618   8.299   7.009  0.4124 -0.2339 -0.2316
  356loPI   C1B 5693  14.468   8.583   8.735  0.0900 -0.2261 -0.3428
  356loPI   C2B 5694  14.503   8.730   8.247 -0.1354  0.1766 -0.0530
  356loPI   C3B 5695  14.412   8.935   7.765  0.0271 -0.1883  0.1944
  356loPI   C4B 5696  14.287   8.730   7.360 -0.0136 -0.3701 -0.3862
  357loPI    C1 5697  15.943  12.674   9.840 -0.2201  0.1228 -0.1314
  357loPI    C2 5698  15.751  12.667  10.191 -0.0200  0.1504 -0.0203
  357loPI    C3 5699  15.654  12.405   9.904 -0.0813  0.0287  0.1103
  357loPI   PO4 5700  15.943  12.925   9.744 -0.0779 -0.0869  0.0218
  357loPI   GL1 5701  16.161  13.209   9.405 -0.0644  0.1240  0.2044
  357loPI   GL2 5702  16.360  13.410   9.353 -0.1259  0.0246  0.1808
  357loPI   C1A 5703  15.947  13.425   9.046 -0.0841 -0.1781  0.1320
  357loPI   C2A 5704  15.914  13.582   8.722 -0.0549 -0.3030  0.2419
  357loPI   C3A 5705  15.899  13.696   8.199 -0.2787  0.3023  0.0136
  357loPI   C4A 5706  15.826  13.664   7.739 -0.3125 -0.0910 -0.1880
  357loPI   C5A 5707  15.689  13.677   7.306  0.0278 -0.0985  0.0872
  357loPI   C6A 5708  15.763  14.122   7.054  0.0013 -0.0332  0.2403
  357loPI   C1B 5709  16.421  13.554   8.909 -0.0355 -0.0977 -0.3309
  357loPI   C2B 5710  16.387  13.559   8.443 -0.2088  0.0658 -0.1003
  357loPI   C3B 5711  16.343  13.510   8.064  0.1034  0.0512  0.0643
  357loPI   C4B 5712  16.411  13.595   7.660  0.0838 -0.2760  0.0040
  358loPI    C1 5713   1.167  16.242  10.087  0.1490 -0.0374 -0.0808
  358loPI    C2 5714   0.918  16.528  10.214  0.1614 -0.1842  0.2866
  358loPI    C3 5715   0.779  16.161  10.137  0.1474 -0.0891 -0.1744
  358loPI   PO4 5716   1.265  16.286   9.853  0.0856  0.4424 -0.2851
  358loPI   GL1 5717   1.255  16.150   9.523 -0.1431 -0.2722 -0.1896
  358loPI   GL2 5718   1.600  16.095   9.510  0.2496  0.1500 -0.3219
  358loPI   C1A 5719   0.960  16.237   9.139  0.0700  0.2657 -0.1794
  358loPI   C2A 5720   0.914  15.994   8.810 -0.1145 -0.1744 -0.0218
  358loPI   C3A 5721   0.834  16.032   8.340 -0.0841  0.0482 -0.0178
  358loPI   C4A 5722   0.741  16.070   7.927  0.0486 -0.1268  0.1696
  358loPI   C5A 5723   0.713  15.840   7.585 -0.3103  0.2363  0.2321
  358loPI   C6A 5724   0.369  15.658   7.299 -0.0650 -0.3291  0.0339
  358loPI   C1B 5725   1.825  16.312   9.254  0.1233 -0.1268 -0.0064
  358loPI   C2B 5726   1.919  16.353   8.729  0.3335 -0.0847 -0.1796
  358loPI   C3B 5727   1.948  16.705   8.296 -0.0341  0.2552 -0.0124
  358loPI   C4B 5728   1.749  16.712   7.940 -0.1039  0.1325  0.0575
  359loPI    C1 5729   2.212   9.800   9.265  0.0444  0.0298 -0.0858
  359loPI    C2 5730   2.144   9.527   9.550  0.0924 -0.0429 -0.1436
  359loPI    C3 5731   2.259   9.897   9.650 -0.3580  0.0775 -0.0438
  359loPI   PO4 5732   2.004   9.797   9.075 -0.2644 -0.3692  0.3624
  359loPI   GL1 5733   1.889   9.587   8.652  0.1735 -0.1031 -0.1719
  359loPI   GL2 5734   1.826   9.209   8.651  0.0175  0.2268  0.0154
  359loPI   C1A 5735   1.782   9.687   8.234  0.0108  0.0380  0.0509
  359loPI   C2A 5736   1.803   9.649   7.861  0.3239 -0.0971  0.0226
  359loPI   C3A 5737   1.711   9.751   7.461 -0.1342 -0.0823  0.2843
  359loPI   C4A 5738   1.429   9.613   7.088 -0.0196 -0.0809  0.1913
  359loPI   C5A 5739   1.249   9.336   6.774  0.0079 -0.1854  0.1001
  359loPI   C6A 5740   0.965   9.444   6.578 -0.1014  0.3426 -0.1109
  359loPI   C1B 5741   1.978   9.182   8.234 -0.0200  0.1428 -0.3576
  359loPI   C2B 5742   1.735   9.178   7.950 -0.0912  0.2536 -0.1399
  359loPI   C3B 5743   1.549   9.180   7.556  0.0682  0.0355 -0.1901
  359loPI   C4B 5744   1.079   9.132   7.426 -0.3824  0.0143  0.1713
  360loPI    C1 5745  14.402  12.431   9.908  0.0156  0.1472  0.0437
  360loPI    C2 5746  14.266  12.113  10.109  0.2164  0.0491  0.0265
  360loPI    C3 5747  14.609  12.287  10.219  0.1876  0.1626 -0.0624
  360loPI   PO4 5748  14.269  12.443   9.582  0.2495 -0.1474  0.0120
  360loPI   GL1 5749  14.480  12.613   9.231 -0.1658 -0.0438 -0.1528
  360loPI   GL2 5750  14.203  12.642   9.151  0.2080 -0.1112  0.3076
  360loPI   C1A 5751  14.483  13.004   8.777  0.0155 -0.1518 -0.0039
  360loPI   C2A 5752  14.587  13.032   8.350  0.0965 -0.0070 -0.0517
  360loPI   C3A 5753  14.460  12.846   7.967  0.0703 -0.2770 -0.0723
  360loPI   C4A 5754  14.427  12.616   7.551  0.0139  0.0746  0.1898
  360loPI   C5A 5755  14.722  12.495   7.199  0.1249  0.2451  0.2424
  360loPI   C6A 5756  15.211  12.290   7.115 -0.0988  0.0162  0.2048
  360loPI   C1B 5757  14.319  12.482   8.738  0.3125 -0.1743  0.1513
  360loPI   C2B 5758  14.389  12.116   8.465 -0.2487 -0.1689 -0.0860
  360loPI   C3B 5759  14.194  11.881   8.156 -0.0317  0.1994  0.1870
  360loPI   C4B 5760  13.966  11.785   7.773  0.1611  0.1546 -0.3063
  361loPI    C1 5761  16.031   7.076   9.813 -0.2781 -0.1011  0.1221
  361loPI    C2 5762  16.173   6.956  10.167 -0.0790  0.0095  0.0814
  361loPI    C3 5763  15.975   7.302  10.138 -0.1270 -0.0171  0.0908
  361loPI   PO4 5764  15.913   6.935   9.673 -0.0958  0.0283  0.0173
  361loPI   GL1 5765  16.085   6.726   9.355  0.0963 -0.0225 -0.0823
  361loPI   GL2 5766  16.137   6.445   9.309 -0.3528 -0.1239  0.0898
  361loPI   C1A 5767  16.143   6.915   8.965 -0.2154 -0.0355  0.3393
  361loPI   C2A 5768  16.002   7.155   8.657  0.0737  0.0488  0.0403
  361loPI   C3A 5769  15.960   7.254   8.208 -0.0239  0.0388 -0.2538
  361loPI   C4A 5770  15.740   7.140   7.836 -0.1800 -0.0476  0.0455
  361loPI   C5A 5771  15.905   7.117   7.340 -0.2886  0.0505 -0.1117
  361loPI   C6A 5772  16.026   7.086   6.889  0.0919 -0.3865 -0.3149
  361loPI   C1B 5773  16.137   6.182   8.925 -0.0375  0.0255 -0.2204
  361loPI   C2B 5774  16.027   6.174   8.415  0.2478  0.0256 -0.4170
  361loPI   C3B 5775  15.916   6.149   7.975 -0.0037 -0.0208 -0.0144
  361loPI   C4B 5776  15.995   5.961   7.547  0.0661  0.1174  0.0824
  362loPI    C1 5777   6.419  17.321  10.297 -0.1853 -0.0962 -0.3809
  362loPI    C2 5778   6.067  17.177  10.173 -0.1515 -0.2975 -0.2461
  362loPI    C3 5779   6.104  17.325  10.543 -0.1859  0.0623 -0.3827
  362loPI   PO4 5780   6.505  17.490  10.040  0.3605 -0.2478 -0.1402
  362loPI   GL1 5781   6.470  17.317   9.569 -0.0450  0.0910 -0.4217
  362loPI   GL2 5782   6.173  17.141   9.670 -0.0757 -0.1317  0.1580
  362loPI   C1A 5783   6.352  17.254   9.176 -0.4160  0.2486 -0.0286
  362loPI   C2A 5784   6.271  17.156   8.767 -0.0187 -0.1770 -0.4439
  362loPI   C3A 5785   6.077  16.973   8.435 -0.1556  0.0269 -0.0327
  362loPI   C4A 5786   6.223  16.936   8.086 -0.2628  0.0353 -0.2647
  362loPI   C5A 5787   6.082  16.609   7.765  0.0401 -0.1025  0.5668
  362loPI   C6A 5788   6.104  16.347   7.355  0.1261 -0.3739  0.0543
  362loPI   C1B 5789   5.975  17.011   9.351  0.1216 -0.0919 -0.1517
  362loPI   C2B 5790   5.855  16.961   8.957 -0.0305 -0.0453  0.1944
  362loPI   C3B 5791   5.749  16.713   8.653 -0.0500  0.0880  0.2678
  362loPI   C4B 5792   5.809  16.575   8.239  0.0810 -0.0613  0.0741
  363loPI    C1 5793  18.861  17.372   9.916 -0.0608  0.0052 -0.0569
  363loPI    C2 5794  18.808  17.162  10.251  0.2002  0.0512  0.0160
  363loPI    C3 5795  19.050  17.480  10.251  0.0933  0.1346 -0.1833
  363loPI   PO4 5796  18.530  17.320   9.717 -0.0772  0.3192 -0.2510
  363loPI   GL1 5797  18.476  17.230   9.295  0.3837  0.2302 -0.0477
  363loPI   GL2 5798  18.105  17.382   9.237 -0.1976 -0.0244  0.1525
  363loPI   C1A 5799  18.362  17.068   8.792 -0.2000 -0.2089 -0.1099
  363loPI   C2A 5800  18.289  17.092   8.304  0.1878 -0.0236  0.0918
  363loPI   C3A 5801  18.257  17.073   7.941 -0.2294 -0.0359 -0.0587
  363loPI   C4A 5802  18.248  16.934   7.593  0.0391  0.5418 -0.1555
  363loPI   C5A 5803  18.094  16.701   7.246  0.3027 -0.0057 -0.0634
  363loPI   C6A 5804  18.171  16.313   7.313  0.0262  0.1825  0.0237
  363loPI   C1B 5805  18.041  17.465   8.781  0.1151 -0.3521  0.0807
  363loPI   C2B 5806  18.072  17.547   8.337 -0.1987 -0.2615 -0.1247
  363loPI   C3B 5807  17.992  17.440   7.901 -0.0422  0.0501  0.1715
  363loPI   C4B 5808  18.289  17.630   7.456  0.0253 -0.4063  0.0880
  364loPI    C1 5809  11.559  10.636  10.290 -0.0910  0.0015 -0.0329
  364loPI    C2 5810  11.731  10.574  10.646 -0.0125 -0.0449 -0.0786
  364loPI    C3 5811  11.507  10.900  10.587  0.1465  0.0704 -0.0509
  364loPI   PO4 5812  11.376  10.462  10.164  0.0093  0.1088  0.1277
  364loPI   GL1 5813  11.348  10.499   9.837  0.0242  0.0419 -0.0015
  364loPI   GL2 5814  11.183  10.648   9.719 -0.0179 -0.4792 -0.3683
  364loPI   C1A 5815  11.397  10.306   9.468 -0.1342 -0.0267 -0.2443
  364loPI   C2A 5816  11.217  10.303   9.017  0.1249  0.1184  0.1653
  364loPI   C3A 5817  10.980  10.246   8.657 -0.2793 -0.1495  0.0228
  364loPI   C4A 5818  10.833  10.115   8.215 -0.0427 -0.0474  0.1140
  364loPI   C5A 5819  11.003   9.952   7.908 -0.1194 -0.0029  0.1202
  364loPI   C6A 5820  11.400  10.183   7.672  0.1171 -0.1594 -0.1326
  364loPI   C1B 5821  11.111  10.756   9.243  0.1004  0.1154  0.3517
  364loPI   C2B 5822  10.886  10.816   8.859 -0.2594  0.0153  0.0453
  364loPI   C3B 5823  11.137  10.706   8.548  0.0465 -0.1871  0.1803
  364loPI   C4B 5824  11.504  10.760   8.410  0.0942  0.1907 -0.2602
  365loPI    C1 5825   2.863   4.639   9.952  0.0405  0.0404 -0.1772
  365loPI    C2 5826   2.839   4.252   9.855  0.4526 -0.0707  0.1362
  365loPI    C3 5827   3.150   4.386  10.069  0.1761  0.3849  0.2667
  365loPI   PO4 5828   2.726   4.719   9.768  0.2893  0.1053 -0.1487
  365loPI   GL1 5829   2.523   4.653   9.429  0.5211  0.2410 -0.4008
  365loPI   GL2 5830   2.773   4.682   9.246 -0.0641  0.2313 -0.0544
  365loPI   C1A 5831   2.340   4.397   9.025  0.3433 -0.0412 -0.3754
  365loPI   C2A 5832   2.249   4.284   8.632  0.1002 -0.0057  0.0615
  365loPI   C3A 5833   2.267   4.311   8.281  0.0733 -0.0298 -0.1647
  365loPI   C4A 5834   2.567   4.280   7.955 -0.0352  0.0186  0.2026
  365loPI   C5A 5835   2.568   4.447   7.429  0.0891  0.0071 -0.3052
  365loPI   C6A 5836   2.503   4.913   7.413 -0.2394 -0.2121 -0.3443
  365loPI   C1B 5837   3.010   4.768   8.844 -0.1368  0.0299  0.1499
  365loPI   C2B 5838   3.241   4.474   8.632 -0.1859  0.0722 -0.1418
  365loPI   C3B 5839   3.395   4.328   8.315  0.2457 -0.0580 -0.0127
  365loPI   C4B 5840   3.519   4.352   7.960  0.3410 -0.3359 -0.0025
  366loPI    C1 5841   7.329  14.802  10.040  0.0105 -0.0096 -0.1308
  366loPI    C2 5842   7.437  15.102   9.800  0.0542 -0.0027 -0.1025
  366loPI    C3 5843   7.622  15.051  10.151 -0.0690  0.0403 -0.0306
  366loPI   PO4 5844   7.096  14.796   9.999  0.2820 -0.0577  0.0677
  366loPI   GL1 5845   6.854  14.449   9.865  0.0883  0.3748 -0.0906
  366loPI   GL2 5846   7.196  14.500   9.623  0.0277  0.0549  0.1463
  366loPI   C1A 5847   6.505  14.821   9.726 -0.0561 -0.3665 -0.1771
  366loPI   C2A 5848   6.232  14.921   9.336  0.4365  0.1716  0.1469
  366loPI   C3A 5849   6.187  15.043   8.886  0.3786  0.2956  0.3271
  366loPI   C4A 5850   6.127  15.189   8.416 -0.1656 -0.0926 -0.3082
  366loPI   C5A 5851   5.979  15.330   8.105  0.3532  0.2763 -0.0651
  366loPI   C6A 5852   5.964  15.127   7.653  0.0926  0.4610  0.0912
  366loPI   C1B 5853   6.838  14.733   9.381  0.0411 -0.0565  0.2316
  366loPI   C2B 5854   6.494  14.535   9.138 -0.0838 -0.4000  0.1309
  366loPI   C3B 5855   6.214  14.510   8.849  0.1974 -0.0419  0.2437
  366loPI   C4B 5856   6.045  14.359   8.522  0.5074  0.1458 -0.1674
  367loPI    C1 5857   8.110   9.644  10.151 -0.0619  0.1374  0.1330
  367loPI    C2 5858   8.141   9.407  10.472  0.1122  0.0084  0.0228
  367loPI    C3 5859   8.116   9.804  10.518 -0.1895 -0.0295  0.2088
  367loPI   PO4 5860   8.019   9.480   9.948 -0.1353  0.0434 -0.0748
  367loPI   GL1 5861   7.904   9.013   9.662 -0.0546  0.0768 -0.2088
  367loPI   GL2 5862   8.232   8.995   9.793  0.1360 -0.0440  0.3291
  367loPI   C1A 5863   7.927   9.047   9.219  0.0338  0.0539  0.1631
  367loPI   C2A 5864   7.961   9.092   8.786 -0.0734 -0.1138 -0.3247
  367loPI   C3A 5865   8.001   8.895   8.354  0.2974  0.1615 -0.0843
  367loPI   C4A 5866   8.094   8.804   8.013 -0.0509 -0.1258 -0.0666
  367loPI   C5A 5867   8.014   8.775   7.607 -0.0176 -0.3041  0.3154
  367loPI   C6A 5868   8.194   9.052   7.135 -0.1012 -0.0139 -0.0043
  367loPI   C1B 5869   8.354   8.796   9.518  0.1254 -0.1779 -0.0720
  367loPI   C2B 5870   8.415   8.847   9.138  0.2790  0.0720  0.0352
  367loPI   C3B 5871   8.742   8.873   8.802 -0.0118 -0.0787 -0.0622
  367loPI   C4B 5872   8.988   8.908   8.471  0.1268 -0.1612  0.3957
  368loPI    C1 5873   0.796   4.935  10.159 -0.3511  0.0839  0.3106
  368loPI    C2 5874   1.111   5.176  10.210 -0.1344 -0.1117 -0.0630
  368loPI    C3 5875   1.092   4.829  10.407 -0.3366  0.0987  0.2997
  368loPI   PO4 5876   0.750   4.987   9.799  0.0097 -0.2141 -0.2798
  368loPI   GL1 5877   0.657   4.983   9.363 -0.0364 -0.1287  0.0815
  368loPI   GL2 5878   0.456   4.629   9.401 -0.2795 -0.1283  0.2002
  368loPI   C1A 5879   0.666   4.970   8.928  0.1581  0.3198 -0.1814
  368loPI   C2A 5880   0.533   5.144   8.567 -0.1690  0.1390 -0.0397
  368loPI   C3A 5881   0.409   5.108   8.107  0.2024 -0.2421  0.1433
  368loPI   C4A 5882   0.126   5.066   7.786  0.4618 -0.0659  0.2880
  368loPI   C5A 5883  -0.315   4.970   7.532  0.3188 -0.3309  0.0926
  368loPI   C6A 5884  -0.670   4.856   7.355  0.0471  0.0822  0.2224
  368loPI   C1B 5885   0.595   4.285   9.088  0.2857 -0.1026  0.0138
  368loPI   C2B 5886   0.503   4.188   8.593  0.0619 -0.1028 -0.3747
  368loPI   C3B 5887   0.458   4.103   8.144  0.0138 -0.4169  0.2345
  368loPI   C4B 5888   0.711   3.921   7.792 -0.2270  0.1528  0.1074
  369loPI    C1 5889   8.307   2.693  10.008  0.1007 -0.2347  0.0258
  369loPI    C2 5890   8.111   2.445  10.253 -0.1375  0.0946  0.1752
  369loPI    C3 5891   8.147   2.833  10.347 -0.0341  0.1805 -0.2017
  369loPI   PO4 5892   8.247   2.554   9.770 -0.0202 -0.4079 -0.3106
  369loPI   GL1 5893   8.091   2.700   9.470 -0.0806  0.1268 -0.0055
  369loPI   GL2 5894   8.044   2.596   9.219 -0.2300  0.0096 -0.1906
  369loPI   C1A 5895   8.273   2.987   9.037 -0.0308 -0.2393  0.0853
  369loPI   C2A 5896   8.246   3.121   8.612  0.1119  0.0388 -0.1137
  369loPI   C3A 5897   8.144   3.135   8.226  0.0261  0.1398 -0.0420
  369loPI   C4A 5898   8.244   3.212   7.879  0.0138 -0.1691  0.2714
  369loPI   C5A 5899   8.479   3.574   7.521  0.1562  0.1751 -0.0871
  369loPI   C6A 5900   8.824   3.628   7.258 -0.0735 -0.0133  0.0188
  369loPI   C1B 5901   8.147   2.539   8.751 -0.1335 -0.1552  0.2220
  369loPI   C2B 5902   8.144   2.607   8.279  0.0473 -0.2242 -0.1222
  369loPI   C3B 5903   8.176   2.725   7.915  0.0626  0.2463 -0.2073
  369loPI   C4B 5904   7.988   2.428   7.639  0.0327  0.1141 -0.1615
  370loPI    C1 5905  10.859  14.163  10.185 -0.0648 -0.1100 -0.1036
  370loPI    C2 5906  11.207  14.129   9.990 -0.0106  0.0002 -0.0272
  370loPI    C3 5907  11.159  13.954  10.347 -0.0256  0.0044 -0.0272
  370loPI   PO4 5908  10.678  14.070   9.952  0.2146 -0.2847  0.1109
  370loPI   GL1 5909  10.596  13.903   9.569 -0.2163 -0.1856 -0.0323
  370loPI   GL2 5910  10.288  13.791   9.601 -0.3067  0.3854  0.0767
  370loPI   C1A 5911  10.694  13.955   9.192 -0.1658 -0.3343  0.2258
  370loPI   C2A 5912  10.656  13.857   8.681 -0.1288  0.0784  0.0512
  370loPI   C3A 5913  10.385  13.554   8.413  0.2170  0.0841  0.0355
  370loPI   C4A 5914  10.311  13.466   8.051  0.1183 -0.0048  0.0063
  370loPI   C5A 5915  10.415  13.643   7.687  0.1251  0.1514  0.1983
  370loPI   C6A 5916  10.588  14.013   7.625 -0.0747  0.4804  0.0352
  370loPI   C1B 5917  10.196  13.621   9.248 -0.0287  0.1449  0.0336
  370loPI   C2B 5918  10.058  13.373   8.904 -0.0681 -0.1410  0.1601
  370loPI   C3B 5919  10.065  13.212   8.439 -0.0636  0.1817 -0.0710
  370loPI   C4B 5920   9.733  13.180   8.224 -0.1591 -0.0398  0.0292
  371loPI    C1 5921   1.425   9.983   9.537  0.2187 -0.0684 -0.0936
  371loPI    C2 5922   1.701   9.702   9.463  0.2509 -0.0576 -0.0153
  371loPI    C3 5923   1.432   9.647   9.754  0.2626 -0.0037  0.0060
  371loPI   PO4 5924   1.273  10.071   9.287  0.1408  0.0749  0.0518
  371loPI   GL1 5925   1.589   9.984   8.857  0.3106  0.1097 -0.0332
  371loPI   GL2 5926   1.514   9.754   8.954 -0.1261 -0.2358 -0.0296
  371loPI   C1A 5927   1.388   9.972   8.498 -0.0326  0.0602  0.0146
  371loPI   C2A 5928   1.369   9.988   8.068 -0.1394  0.1018 -0.4466
  371loPI   C3A 5929   1.341  10.078   7.561  0.1596  0.3865  0.1171
  371loPI   C4A 5930   1.232  10.062   7.129 -0.0342  0.1061  0.1544
  371loPI   C5A 5931   1.062   9.915   6.750  0.0026 -0.0232  0.2600
  371loPI   C6A 5932   1.014   9.871   6.265  0.1356  0.0692 -0.1497
  371loPI   C1B 5933   1.385   9.472   8.708 -0.1404  0.1093  0.0443
  371loPI   C2B 5934   1.388   9.388   8.266  0.4561  0.0337  0.0505
  371loPI   C3B 5935   1.286   9.517   7.821  0.0025  0.0344  0.0436
  371loPI   C4B 5936   1.283   9.585   7.518 -0.1904  0.2866  0.0696
  372loPI    C1 5937  16.271   0.336   9.795  0.0946 -0.0501 -0.0527
  372loPI    C2 5938  16.317   0.161  10.152 -0.1374 -0.0329 -0.0129
  372loPI    C3 5939  16.609   0.388  10.001 -0.0259 -0.0655  0.1519
  372loPI   PO4 5940  15.951   0.544   9.850 -0.0823 -0.1011 -0.0069
  372loPI   GL1 5941  15.796   0.814   9.589 -0.1907 -0.3712  0.3057
  372loPI   GL2 5942  15.517   0.970   9.395 -0.0582  0.1605  0.0522
  372loPI   C1A 5943  15.910   1.192   9.354 -0.0319  0.2028  0.1501
  372loPI   C2A 5944  16.114   1.200   9.042  0.3406 -0.2323  0.0965
  372loPI   C3A 5945  16.245   1.230   8.601 -0.3382 -0.0162 -0.0262
  372loPI   C4A 5946  16.401   1.519   8.336  0.0800  0.0456  0.0735
  372loPI   C5A 5947  16.429   1.845   8.187  0.0608  0.0696 -0.3659
  372loPI   C6A 5948  16.344   1.969   7.778 -0.1187 -0.0667  0.1906
  372loPI   C1B 5949  15.711   0.739   9.091  0.2415  0.0997  0.0500
  372loPI   C2B 5950  15.921   0.813   8.699 -0.0700 -0.0015 -0.1717
  372loPI   C3B 5951  15.969   0.863   8.224 -0.0036  0.3157  0.0752
  372loPI   C4B 5952  16.049   1.024   7.772  0.1175  0.0403  0.0375
  373loPI    C1 5953  17.646  11.468   9.707  0.0807  0.0500 -0.0562
  373loPI    C2 5954  17.980  11.385   9.909 -0.1623 -0.0056  0.3331
  373loPI    C3 5955  17.743  11.683  10.030 -0.2026  0.1027 -0.0035
  373loPI   PO4 5956  17.680  11.452   9.482 -0.1649 -0.0413 -0.1503
  373loPI   GL1 5957  17.368  11.581   9.131 -0.3648 -0.0108  0.2845
  373loPI   GL2 5958  17.115  11.901   9.038  0.0324  0.2880  0.3747
  373loPI   C1A 5959  17.368  11.521   8.686  0.1657  0.2727 -0.1000
  373loPI   C2A 5960  17.369  11.583   8.212  0.1643 -0.1479  0.1043
  373loPI   C3A 5961  17.351  11.611   7.841  0.0223 -0.1973  0.0025
  373loPI   C4A 5962  17.556  11.711   7.502  0.1302  0.1360 -0.2472
  373loPI   C5A 5963  17.668  11.981   7.162  0.3084 -0.0721  0.0024
  373loPI   C6A 5964  17.854  12.448   7.007  0.1044 -0.3743 -0.2035
  373loPI   C1B 5965  17.031  11.874   8.531  0.0916  0.0091 -0.5572
  373loPI   C2B 5966  16.949  11.852   8.088 -0.1109 -0.1515 -0.3428
  373loPI   C3B 5967  16.989  11.907   7.709 -0.1162 -0.1118 -0.0171
  373loPI   C4B 5968  17.144  11.929   7.311 -0.0884  0.0909  0.2515
  374loPI    C1 5969   4.428  16.078  10.256  0.1112  0.2829 -0.2295
  374loPI    C2 5970   4.613  16.233  10.576  0.0309 -0.3416  0.1357
  374loPI    C3 5971   4.268  16.035  10.620 -0.2181 -0.0516 -0.4071
  374loPI   PO4 5972   4.534  16.292  10.091 -0.0770 -0.0623  0.3658
  374loPI   GL1 5973   4.516  16.519   9.571 -0.0479  0.0195 -0.0501
  374loPI   GL2 5974   4.852  16.479   9.449  0.0780  0.4650 -0.0289
  374loPI   C1A 5975   4.566  16.625   9.138 -0.0489 -0.1517  0.1280
  374loPI   C2A 5976   4.826  16.644   8.739 -0.0298 -0.2125 -0.0450
  374loPI   C3A 5977   4.846  16.753   8.267 -0.1086 -0.3180 -0.2041
  374loPI   C4A 5978   4.806  16.763   7.886  0.1694 -0.1707 -0.1003
  374loPI   C5A 5979   4.815  16.405   7.501 -0.3088 -0.0519  0.0698
  374loPI   C6A 5980   4.554  16.386   7.185  0.1302 -0.1680  0.0268
  374loPI   C1B 5981   4.944  16.254   9.035  0.2152  0.3276  0.0609
  374loPI   C2B 5982   4.694  16.178   8.635 -0.0290 -0.1743  0.1069
  374loPI   C3B 5983   4.581  16.088   8.177  0.0319  0.1852 -0.2902
  374loPI   C4B 5984   4.449  15.901   7.734  0.2717  0.0070  0.0622
  375loPI    C1 5985  18.966   6.289   9.613  0.2101  0.0362  0.0541
  375loPI    C2 5986  19.045   5.984   9.860  0.2506  0.1557  0.1903
  375loPI    C3 5987  18.828   6.294   9.989 -0.0907  0.0243 -0.0533
  375loPI   PO4 5988  18.938   6.198   9.398  0.2091  0.1813  0.0436
  375loPI   GL1 5989  18.750   6.265   9.067 -0.0988  0.4652 -0.2551
  375loPI   GL2 5990  18.479   6.154   9.127  0.2414  0.0073 -0.0896
  375loPI   C1A 5991  18.791   6.229   8.612  0.0126 -0.2746  0.2401
  375loPI   C2A 5992  18.757   6.225   8.154 -0.0167 -0.0137  0.0151
  375loPI   C3A 5993  18.629   6.339   7.724 -0.1685 -0.0329 -0.1558
  375loPI   C4A 5994  18.793   6.295   7.343 -0.0734 -0.0574 -0.1522
  375loPI   C5A 5995  19.095   6.346   6.885 -0.0249  0.2533  0.0600
  375loPI   C6A 5996  19.006   6.123   6.558 -0.0610  0.0563  0.0837
  375loPI   C1B 5997  18.305   6.311   8.663  0.0808  0.2095 -0.6618
  375loPI   C2B 5998  18.273   6.430   8.198  0.1939 -0.0692 -0.0928
  375loPI   C3B 5999  18.146   6.545   7.810 -0.1203  0.1097 -0.0051
  375loPI   C4B 6000  17.687   6.699   7.718 -0.1966  0.3781  0.0489
  376loPI    C1 6001  18.593  13.819   9.982 -0.2153  0.1374  0.3085
  376loPI    C2 6002  18.961  13.671  10.034 -0.2027  0.1065  0.1369
  376loPI    C3 6003  18.760  13.821  10.346 -0.1383 -0.0919  0.2761
  376loPI   PO4 6004  18.638  13.902   9.719 -0.2314  0.1982  0.0707
  376loPI   GL1 6005  18.607  13.912   9.214  0.1237  0.2115 -0.0300
  376loPI   GL2 6006  18.907  13.956   9.277 -0.0480 -0.3572  0.1824
  376loPI   C1A 6007  18.433  13.843   8.845  0.0187 -0.0052 -0.1099
  376loPI   C2A 6008  18.563  13.793   8.349  0.1195 -0.0226 -0.1476
  376loPI   C3A 6009  18.496  13.619   8.031  0.0015  0.1740  0.1471
  376loPI   C4A 6010  18.482  13.572   7.556 -0.1706 -0.1743 -0.1092
  376loPI   C5A 6011  18.561  13.670   7.143 -0.2464 -0.0409  0.2291
  376loPI   C6A 6012  18.778  13.967   6.863  0.0768 -0.0206 -0.2065
  376loPI   C1B 6013  18.884  13.992   8.763 -0.0063  0.1435 -0.2015
  376loPI   C2B 6014  19.030  13.963   8.290 -0.0990  0.0650  0.2586
  376loPI   C3B 6015  18.955  13.810   7.874 -0.1576  0.1550  0.0343
  376loPI   C4B 6016  19.077  14.034   7.452 -0.1734 -0.0773 -0.3061
  377loPI    C1 6017   4.550   5.450   9.702 -0.0159 -0.0389  0.0294
  377loPI    C2 6018   4.176   5.411   9.838  0.0358 -0.1002  0.1554
  377loPI    C3 6019   4.369   5.758   9.884  0.0165 -0.0883  0.1464
  377loPI   PO4 6020   4.507   5.286   9.413  0.0874  0.5041  0.2552
  377loPI   GL1 6021   4.717   5.244   9.059 -0.0971  0.4548  0.2329
  377loPI   GL2 6022   4.916   5.528   8.964  0.0507  0.0302  0.0340
  377loPI   C1A 6023   4.536   5.323   8.586  0.0921  0.2165  0.2051
  377loPI   C2A 6024   4.623   5.372   8.163  0.0601  0.2246 -0.3952
  377loPI   C3A 6025   4.879   5.306   7.839  0.3205  0.2339  0.0588
  377loPI   C4A 6026   5.279   5.115   7.833  0.1521  0.0965 -0.0398
  377loPI   C5A 6027   5.616   4.939   7.615 -0.2152  0.0935 -0.3606
  377loPI   C6A 6028   5.782   4.588   7.391 -0.2739  0.1871 -0.2015
  377loPI   C1B 6029   5.032   5.367   8.530 -0.0839 -0.1846 -0.0184
  377loPI   C2B 6030   5.151   5.440   8.252 -0.1134  0.1630 -0.0515
  377loPI   C3B 6031   5.333   5.728   7.930  0.0262  0.1687  0.1647
  377loPI   C4B 6032   5.630   5.787   7.587 -0.1329  0.1196  0.3662
  378loPI    C1 6033   9.677   2.293  10.034 -0.1296  0.1081  0.0616
  378loPI    C2 6034   9.606   1.908  10.116  0.1057  0.0545  0.0197
  378loPI    C3 6035   9.535   2.187  10.393 -0.3123  0.0117 -0.0374
  378loPI   PO4 6036   9.975   2.352   9.890 -0.0839  0.0158 -0.2505
  378loPI   GL1 6037   9.993   2.250   9.479  0.0980 -0.0295  0.0191
  378loPI   GL2 6038   9.600   2.270   9.513 -0.3719  0.0259 -0.1287
  378loPI   C1A 6039  10.077   2.347   8.990 -0.1000 -0.2755  0.0794
  378loPI   C2A 6040  10.067   2.376   8.502 -0.0762  0.0881  0.2071
  378loPI   C3A 6041  10.148   2.534   8.089 -0.0559 -0.0548  0.1597
  378loPI   C4A 6042  10.045   2.866   7.688  0.1775 -0.0350  0.0628
  378loPI   C5A 6043  10.236   3.078   7.383 -0.1839 -0.1825  0.1777
  378loPI   C6A 6044  10.330   3.205   6.954  0.1273  0.0260 -0.3498
  378loPI   C1B 6045   9.583   2.268   9.064  0.4135 -0.2519 -0.0796
  378loPI   C2B 6046   9.555   2.445   8.632 -0.1355  0.1555 -0.0863
  378loPI   C3B 6047   9.648   2.437   8.206 -0.1718 -0.0117  0.1150
  378loPI   C4B 6048   9.777   2.427   7.752  0.2723  0.0571  0.0086
  379loPI    C1 6049  13.169  12.470  10.008 -0.1837  0.0301  0.0603
  379loPI    C2 6050  13.319  12.741   9.755 -0.3563 -0.0100 -0.0872
  379loPI    C3 6051  13.237  12.843  10.133 -0.1621  0.0688 -0.0655
  379loPI   PO4 6052  12.942  12.294   9.800  0.1783 -0.3835  0.0644
  379loPI   GL1 6053  13.010  11.797   9.602  0.0954 -0.1667 -0.2378
  379loPI   GL2 6054  12.721  11.983   9.402  0.0199  0.2409  0.0683
  379loPI   C1A 6055  13.050  11.759   9.117  0.1470  0.1116 -0.1226
  379loPI   C2A 6056  13.126  11.806   8.749 -0.0141 -0.2366 -0.0546
  379loPI   C3A 6057  13.123  11.967   8.316  0.3265  0.0851 -0.0879
  379loPI   C4A 6058  12.955  11.855   7.925  0.0064  0.0310 -0.0443
  379loPI   C5A 6059  12.594  11.860   7.884  0.2670  0.4599 -0.3176
  379loPI   C6A 6060  12.253  11.774   7.731  0.2149 -0.1060  0.2192
  379loPI   C1B 6061  12.604  11.743   9.030 -0.3463  0.0749 -0.1100
  379loPI   C2B 6062  12.797  11.427   8.864  0.1323 -0.0640 -0.3638
  379loPI   C3B 6063  12.966  11.359   8.475  0.0420 -0.3338  0.2096
  379loPI   C4B 6064  13.153  11.325   8.064 -0.0286 -0.0714 -0.0470
  380loPI    C1 6065  18.492  10.026   9.751 -0.2242  0.0289 -0.0305
  380loPI    C2 6066  18.544   9.693   9.967  0.0800 -0.0445 -0.2100
  380loPI    C3 6067  18.617  10.051  10.130 -0.2149 -0.0638 -0.0274
  380loPI   PO4 6068  18.599   9.926   9.527  0.0517  0.3950 -0.1281
  380loPI   GL1 6069  18.654  10.120   9.079  0.3059 -0.0399 -0.0387
  380loPI   GL2 6070  18.400   9.967   9.004 -0.0767 -0.5215 -0.1373
  380loPI   C1A 6071  18.939   9.913   8.866  0.0236 -0.1002  0.3904
  380loPI   C2A 6072  19.042   9.938   8.403  0.0232  0.0730 -0.1826
  380loPI   C3A 6073  19.130   9.891   7.957 -0.2969 -0.0428  0.3015
  380loPI   C4A 6074  19.037   9.781   7.623 -0.2578 -0.0639 -0.3085
  380loPI   C5A 6075  18.628   9.869   7.236  0.1546  0.0630 -0.0148
  380loPI   C6A 6076  18.304   9.882   6.983  0.0917 -0.0605  0.0545
  380loPI   C1B 6077  18.545  10.043   8.557  0.0201 -0.2879  0.0806
  380loPI   C2B 6078  18.710  10.179   8.117  0.1327  0.0343 -0.2370
  380loPI   C3B 6079  18.539  10.062   7.704  0.0672  0.1907  0.1893
  380loPI   C4B 6080  18.223  10.121   7.439 -0.0576  0.2785 -0.0210
  381loPI    C1 6081  13.906  14.665   9.555  0.1388 -0.1461 -0.1951
  381loPI    C2 6082  13.769  14.339   9.742 -0.0222  0.0496  0.0333
  381loPI    C3 6083  14.142  14.466   9.810 -0.0297  0.0332  0.1064
  381loPI   PO4 6084  13.916  14.576   9.308  0.0889  0.0762  0.1026
  381loPI   GL1 6085  13.871  14.424   8.866  0.1559  0.1937  0.1209
  381loPI   GL2 6086  14.185  14.360   8.912 -0.2529 -0.0859 -0.1092
  381loPI   C1A 6087  13.752  14.428   8.371  0.3663 -0.1002 -0.0688
  381loPI   C2A 6088  13.915  14.476   8.006 -0.0040  0.2479 -0.2094
  381loPI   C3A 6089  14.150  14.545   7.649  0.0013  0.2182 -0.1423
  381loPI   C4A 6090  14.428  14.813   7.408  0.4497  0.1336 -0.3156
  381loPI   C5A 6091  14.629  15.115   7.197 -0.1843  0.2115 -0.1604
  381loPI   C6A 6092  14.880  15.457   7.212  0.0346  0.0235 -0.1535
  381loPI   C1B 6093  14.292  14.433   8.467  0.0945 -0.1809  0.0993
  381loPI   C2B 6094  14.409  14.421   8.108 -0.0210 -0.1620 -0.0288
  381loPI   C3B 6095  14.623  14.393   7.762  0.1817  0.1248 -0.3800
  381loPI   C4B 6096  14.912  14.192   7.512 -0.1601  0.1619 -0.1339
  382loPI    C1 6097   3.180   9.724   9.446 -0.1258  0.3207  0.0216
  382loPI    C2 6098   3.558   9.807   9.544 -0.0456 -0.0641  0.0527
  382loPI    C3 6099   3.258   9.943   9.771  0.0996 -0.2239  0.3457
  382loPI   PO4 6100   3.251   9.721   9.137 -0.1663 -0.0628 -0.0313
  382loPI   GL1 6101   3.289   9.509   8.835 -0.0470  0.1555  0.3675
  382loPI   GL2 6102   2.951   9.344   8.782  0.0389 -0.2438 -0.2156
  382loPI   C1A 6103   3.448   9.414   8.392 -0.4186 -0.0126  0.3357
  382loPI   C2A 6104   3.261   9.395   8.009 -0.5460 -0.0384  0.3594
  382loPI   C3A 6105   3.064   9.030   7.812  0.0575  0.2953  0.0136
  382loPI   C4A 6106   2.864   9.159   7.312 -0.0691 -0.1383 -0.1246
  382loPI   C5A 6107   2.924   9.468   6.961 -0.0360 -0.0058 -0.1925
  382loPI   C6A 6108   2.747   9.693   6.606  0.1754 -0.3058  0.0236
  382loPI   C1B 6109   2.921   9.592   8.397  0.1117 -0.1074 -0.3187
  382loPI   C2B 6110   2.827   9.777   7.988  0.1145  0.0377  0.0370
  382loPI   C3B 6111   2.838   9.587   7.633 -0.0884  0.1193 -0.2062
  382loPI   C4B 6112   2.511   9.471   7.510 -0.3699  0.1388 -0.0529
  383loPI    C1 6113   1.821   4.112   9.765  0.0653  0.1129  0.0181
  383loPI    C2 6114   1.552   4.389   9.871 -0.0330  0.1409 -0.2940
  383loPI    C3 6115   1.464   4.000   9.908 -0.1205  0.1500 -0.4037
  383loPI   PO4 6116   1.901   4.279   9.537  0.2485 -0.1030  0.0647
  383loPI   GL1 6117   1.903   4.084   9.254 -0.2008 -0.3229 -0.0395
  383loPI   GL2 6118   1.716   3.855   9.096 -0.0421  0.1410  0.0957
  383loPI   C1A 6119   1.857   4.310   8.890  0.3957  0.3495  0.0711
  383loPI   C2A 6120   1.743   4.315   8.463 -0.0679 -0.0996 -0.3233
  383loPI   C3A 6121   1.863   4.584   8.080  0.0444 -0.0685 -0.3893
  383loPI   C4A 6122   2.113   4.362   7.739  0.2042 -0.0210 -0.0100
  383loPI   C5A 6123   2.104   4.246   7.315 -0.1672 -0.2849  0.4009
  383loPI   C6A 6124   1.957   3.901   6.995 -0.2092  0.1376  0.0515
  383loPI   C1B 6125   1.589   3.814   8.689  0.1425 -0.1144  0.0702
  383loPI   C2B 6126   1.569   3.791   8.293  0.2855  0.0501  0.0561
  383loPI   C3B 6127   1.714   4.089   7.962  0.1953  0.0538 -0.1701
  383loPI   C4B 6128   1.606   4.146   7.577 -0.3547 -0.2457 -0.2947
  384loPI    C1 6129  16.733  13.246  10.027 -0.1063  0.0909 -0.0199
  384loPI    C2 6130  16.382  13.239   9.837 -0.3184  0.1291  0.3602
  384loPI    C3 6131  16.432  13.475  10.156  0.0645  0.1460  0.2926
  384loPI   PO4 6132  17.113  13.347   9.846 -0.1070 -0.0282 -0.3058
  384loPI   GL1 6133  17.250  13.139   9.499 -0.0112 -0.0389  0.2312
  384loPI   GL2 6134  17.301  12.877   9.442 -0.4248 -0.2856 -0.0003
  384loPI   C1A 6135  17.612  13.254   9.193  0.0497  0.0150  0.2955
  384loPI   C2A 6136  17.753  13.240   8.739  0.4451  0.3806 -0.0177
  384loPI   C3A 6137  17.611  13.129   8.313  0.1860 -0.1353  0.0913
  384loPI   C4A 6138  17.603  13.206   7.905 -0.2464 -0.0453  0.0328
  384loPI   C5A 6139  17.442  13.198   7.516  0.0174 -0.3480 -0.0730
  384loPI   C6A 6140  17.204  12.895   7.285 -0.1652  0.1802 -0.1889
  384loPI   C1B 6141  17.507  12.804   9.008  0.1270 -0.0918 -0.1516
  384loPI   C2B 6142  17.693  12.672   8.731  0.0628  0.0347 -0.0281
  384loPI   C3B 6143  17.568  12.596   8.341 -0.1273 -0.1539 -0.2563
  384loPI   C4B 6144  17.498  12.610   7.872 -0.0453 -0.0259 -0.0998
  385loPI    C1 6145  14.832  18.091   9.863  0.1244  0.0369 -0.0340
  385loPI    C2 6146  14.790  17.937  10.230 -0.1350  0.1528 -0.0134
  385loPI    C3 6147  15.038  18.245  10.169 -0.0743  0.1185  0.0599
  385loPI   PO4 6148  14.562  18.065   9.699  0.0449 -0.0086  0.1379
  385loPI   GL1 6149  14.540  17.990   9.327 -0.1045 -0.1211 -0.1169
  385loPI   GL2 6150  14.833  17.833   9.267  0.0725  0.1636 -0.0724
  385loPI   C1A 6151  14.558  18.264   9.029  0.2357 -0.1134 -0.2049
  385loPI   C2A 6152  14.460  18.305   8.604 -0.2223  0.2343  0.0368
  385loPI   C3A 6153  14.609  18.264   8.175  0.0053 -0.1483  0.0876
  385loPI   C4A 6154  14.528  18.243   7.698  0.2025 -0.2753  0.0567
  385loPI   C5A 6155  14.723  18.343   7.250 -0.3548 -0.0879  0.0288
  385loPI   C6A 6156  14.892  18.495   6.794 -0.1437  0.0126 -0.1838
  385loPI   C1B 6157  14.756  17.773   8.823  0.1235 -0.3060 -0.1750
  385loPI   C2B 6158  14.892  17.796   8.385 -0.0689  0.1323  0.0563
  385loPI   C3B 6159  15.166  17.926   8.061  0.0862  0.1559 -0.1195
  385loPI   C4B 6160  15.400  18.291   8.058 -0.1570 -0.0023  0.1218
  386loPI    C1 6161  15.194  12.174   9.748  0.2511 -0.1569  0.2718
  386loPI    C2 6162  14.846  12.027   9.878 -0.0031  0.2922  0.1220
  386loPI    C3 6163  15.164  12.033  10.121 -0.1150 -0.0556  0.2840
  386loPI   PO4 6164  15.138  12.141   9.439 -0.2974 -0.1801  0.1259
  386loPI   GL1 6165  15.267  12.009   9.108  0.0923 -0.1840 -0.1039
  386loPI   GL2 6166  15.653  11.922   9.118 -0.0303 -0.1555 -0.0540
  386loPI   C1A 6167  15.314  12.310   8.746  0.1629 -0.1809 -0.2867
  386loPI   C2A 6168  15.220  12.450   8.394  0.0336 -0.1864 -0.3735
  386loPI   C3A 6169  15.315  12.570   7.926  0.2785 -0.1906 -0.0714
  386loPI   C4A 6170  15.291  12.677   7.501 -0.0875 -0.2920  0.2737
  386loPI   C5A 6171  15.643  12.689   7.174  0.2484 -0.0762  0.3057
  386loPI   C6A 6172  16.008  12.995   7.069  0.0714 -0.1785 -0.0967
  386loPI   C1B 6173  15.621  11.868   8.658  0.3558  0.0756 -0.0538
  386loPI   C2B 6174  15.552  11.869   8.252  0.0214  0.2446 -0.1628
  386loPI   C3B 6175  15.770  11.784   7.831 -0.0405 -0.2614  0.2940
  386loPI   C4B 6176  16.036  11.473   7.625 -0.2914 -0.2873  0.1068
  387loPI    C1 6177  17.553   5.716   9.972  0.0635 -0.4019  0.1705
  387loPI    C2 6178  17.489   5.678  10.365 -0.0316 -0.0377  0.1944
  387loPI    C3 6179  17.184   5.761  10.120  0.0275 -0.2619  0.0410
  387loPI   PO4 6180  17.625   5.473   9.826 -0.0683 -0.2887 -0.0809
  387loPI   GL1 6181  17.565   5.238   9.487 -0.1824  0.0936 -0.0286
  387loPI   GL2 6182  17.724   4.963   9.216  0.1301 -0.2433 -0.0905
  387loPI   C1A 6183  17.308   5.329   9.096 -0.2986  0.1155 -0.1438
  387loPI   C2A 6184  17.124   5.538   8.760 -0.0359  0.1059  0.1071
  387loPI   C3A 6185  16.869   5.649   8.373 -0.1935  0.0954  0.3544
  387loPI   C4A 6186  16.608   5.522   8.046 -0.2544 -0.1337 -0.2480
  387loPI   C5A 6187  16.509   5.544   7.695 -0.0672  0.0839  0.0055
  387loPI   C6A 6188  16.246   5.272   7.391  0.1988  0.1452  0.3589
  387loPI   C1B 6189  17.627   4.830   8.855  0.3246 -0.0632 -0.0931
  387loPI   C2B 6190  17.763   4.478   8.541  0.0868  0.0793  0.1466
  387loPI   C3B 6191  17.637   4.229   8.092  0.0018 -0.0683  0.2734
  387loPI   C4B 6192  17.569   4.319   7.699  0.1829 -0.1253  0.0793
  388loPI    C1 6193   3.258  11.291   9.805  0.1869  0.2542 -0.1199
  388loPI    C2 6194   3.184  11.502  10.137 -0.0907  0.0359 -0.0398
  388loPI    C3 6195   3.094  11.112  10.123 -0.1431  0.0573 -0.3938
  388loPI   PO4 6196   3.177  11.471   9.639 -0.1962 -0.2212 -0.3472
  388loPI   GL1 6197   3.373  11.596   9.320 -0.1191 -0.1542  0.0874
  388loPI   GL2 6198   3.206  11.645   9.148 -0.0278 -0.1158 -0.0535
  388loPI   C1A 6199   3.609  11.491   8.938 -0.2220  0.3804  0.1429
  388loPI   C2A 6200   3.603  11.343   8.558  0.0607 -0.1348  0.0290
  388loPI   C3A 6201   3.618  11.316   8.020 -0.1526  0.0119 -0.0476
  388loPI   C4A 6202   3.697  11.647   7.702 -0.2799 -0.0238  0.2209
  388loPI   C5A 6203   3.895  11.858   7.279 -0.1916  0.0693 -0.3384
  388loPI   C6A 6204   3.742  11.992   6.867  0.0599  0.2055 -0.0067
  388loPI   C1B 6205   3.175  11.629   8.778 -0.0356 -0.1232  0.1222
  388loPI   C2B 6206   3.235  11.588   8.276  0.0940 -0.1269 -0.0814
  388loPI   C3B 6207   3.257  11.639   7.872 -0.1185 -0.2702  0.2493
  388loPI   C4B 6208   3.231  11.592   7.401 -0.2096  0.0842  0.0172
  389loPI    C1 6209  18.103  13.992   9.974  0.0389 -0.2105 -0.0279
  389loPI    C2 6210  18.188  13.780  10.302 -0.2722  0.0294  0.2140
  389loPI    C3 6211  18.130  14.175  10.329  0.1397  0.1264 -0.2050
  389loPI   PO4 6212  17.937  13.830   9.848  0.1497 -0.3297  0.4238
  389loPI   GL1 6213  17.800  13.831   9.438 -0.1626 -0.0064  0.0621
  389loPI   GL2 6214  17.568  14.058   9.494  0.0328 -0.0633 -0.0688
  389loPI   C1A 6215  17.830  13.702   9.087  0.0689 -0.2689  0.0710
  389loPI   C2A 6216  17.957  13.681   8.790 -0.1626  0.5472  0.0330
  389loPI   C3A 6217  18.032  13.566   8.457 -0.4519  0.4324  0.4377
  389loPI   C4A 6218  18.029  13.458   7.961 -0.2508  0.4406 -0.1434
  389loPI   C5A 6219  17.914  13.386   7.519  0.1283 -0.2292  0.0343
  389loPI   C6A 6220  18.073  13.468   7.181  0.0153 -0.1942 -0.1150
  389loPI   C1B 6221  17.445  14.101   9.072  0.2047 -0.2242 -0.0338
  389loPI   C2B 6222  17.588  14.027   8.670  0.1097  0.1968 -0.0854
  389loPI   C3B 6223  17.620  13.907   8.288  0.0924  0.1191  0.1205
  389loPI   C4B 6224  17.563  13.804   7.925 -0.0410  0.1469 -0.2559
  390loPI    C1 6225   6.040   8.741  10.116  0.1258 -0.1091  0.0682
  390loPI    C2 6226   5.741   8.697  10.379  0.0517 -0.0864 -0.0114
  390loPI    C3 6227   6.079   8.880  10.489  0.1735 -0.4179  0.1810
  390loPI   PO4 6228   6.051   8.512   9.947 -0.0857 -0.0080  0.0163
  390loPI   GL1 6229   5.950   8.207   9.548 -0.0714  0.0348 -0.2621
  390loPI   GL2 6230   5.632   8.299   9.397 -0.0130 -0.1253  0.3142
  390loPI   C1A 6231   6.213   7.770   9.521 -0.0084 -0.1558 -0.0276
  390loPI   C2A 6232   6.297   7.540   9.158 -0.0113 -0.0829 -0.3122
  390loPI   C3A 6233   6.796   7.468   9.034  0.0371 -0.2777  0.0074
  390loPI   C4A 6234   6.963   7.583   8.575 -0.1014  0.0135  0.0011
  390loPI   C5A 6235   7.201   7.663   8.210 -0.1059 -0.1943  0.4641
  390loPI   C6A 6236   7.061   7.668   7.818  0.1912 -0.2996  0.0119
  390loPI   C1B 6237   5.823   8.460   9.062  0.0218  0.1724  0.0708
  390loPI   C2B 6238   5.902   8.339   8.576 -0.0024 -0.0311 -0.3746
  390loPI   C3B 6239   6.139   8.525   8.176  0.1682  0.1010  0.0617
  390loPI   C4B 6240   6.290   8.412   7.813 -0.0043 -0.0546 -0.0201
  391loPI    C1 6241  18.066   5.720  10.000  0.0632 -0.0163  0.1311
  391loPI    C2 6242  18.010   6.079   9.831  0.1297 -0.1026 -0.0784
  391loPI    C3 6243  17.856   6.001  10.192  0.1039  0.1315 -0.0373
  391loPI   PO4 6244  18.147   5.584   9.830 -0.1716  0.2126  0.2176
  391loPI   GL1 6245  18.328   5.613   9.353 -0.0423 -0.1192 -0.0157
  391loPI   GL2 6246  18.103   5.885   9.376 -0.2173 -0.0026 -0.3407
  391loPI   C1A 6247  18.183   5.521   8.939  0.0512  0.1139 -0.1049
  391loPI   C2A 6248  18.134   5.470   8.439  0.0356 -0.0206  0.0678
  391loPI   C3A 6249  17.832   5.275   8.152 -0.1122  0.1108  0.1176
  391loPI   C4A 6250  17.587   5.188   7.669  0.1614  0.0885 -0.2102
  391loPI   C5A 6251  17.574   4.812   7.564 -0.0726 -0.0560  0.2743
  391loPI   C6A 6252  17.258   4.515   7.372  0.3032  0.1424 -0.0142
  391loPI   C1B 6253  18.051   5.983   8.900 -0.0165  0.6407 -0.0410
  391loPI   C2B 6254  17.962   5.956   8.499  0.0604  0.1437  0.3091
  391loPI   C3B 6255  17.792   5.822   8.181  0.0771 -0.1445  0.0443
  391loPI   C4B 6256  17.842   5.670   7.773 -0.1434 -0.2682 -0.0060
  392loPI    C1 6257   7.051   5.876  10.194 -0.0292 -0.1989 -0.3336
  392loPI    C2 6258   7.170   5.496  10.230  0.1591 -0.1174 -0.0688
  392loPI    C3 6259   7.262   5.762  10.514 -0.0495  0.1071 -0.2082
  392loPI   PO4 6260   7.123   5.979   9.930  0.1645  0.0342  0.1137
  392loPI   GL1 6261   7.449   6.101   9.632 -0.0497 -0.2028  0.0164
  392loPI   GL2 6262   7.202   6.328   9.475  0.1819  0.0131 -0.0944
  392loPI   C1A 6263   7.721   6.076   9.330  0.0399  0.1474  0.3331
  392loPI   C2A 6264   7.652   6.007   8.846 -0.1419  0.0375  0.1750
  392loPI   C3A 6265   7.594   5.797   8.459  0.0075 -0.0004 -0.0749
  392loPI   C4A 6266   7.617   5.742   7.959 -0.4689  0.0741 -0.0427
  392loPI   C5A 6267   7.787   5.704   7.553 -0.1123  0.0172  0.1476
  392loPI   C6A 6268   8.078   6.052   7.411  0.1330  0.2778  0.1027
  392loPI   C1B 6269   7.236   6.236   8.994 -0.0772 -0.0746  0.1845
  392loPI   C2B 6270   7.257   6.208   8.528  0.3625 -0.2176  0.0857
  392loPI   C3B 6271   7.372   6.223   8.126  0.1543 -0.0737  0.1230
  392loPI   C4B 6272   7.442   6.238   7.682  0.2755 -0.0371 -0.0124
  393loPI    C1 6273  14.674  10.880   9.903  0.1968 -0.1258  0.1851
  393loPI    C2 6274  14.577  11.212  10.104 -0.0569  0.0257 -0.1773
  393loPI    C3 6275  14.360  10.879  10.151 -0.0118  0.0103 -0.0747
  393loPI   PO4 6276  14.729  10.910   9.650  0.0741  0.1423 -0.0609
  393loPI   GL1 6277  14.777  10.756   9.223 -0.0941 -0.1236  0.3522
  393loPI   GL2 6278  14.748  10.527   9.042  0.2201  0.0538 -0.3867
  393loPI   C1A 6279  14.767  11.027   8.792  0.0227  0.0903 -0.1732
  393loPI   C2A 6280  14.868  11.341   8.447  0.0480 -0.0868  0.2263
  393loPI   C3A 6281  14.700  11.645   8.217  0.1130  0.0588  0.1859
  393loPI   C4A 6282  14.613  11.929   7.926  0.2898  0.1223  0.3250
  393loPI   C5A 6283  14.461  12.095   7.542  0.1068 -0.0767  0.1786
  393loPI   C6A 6284  14.089  12.258   7.323 -0.2497  0.1766  0.0908
  393loPI   C1B 6285  14.752  10.561   8.550  0.0516 -0.0582  0.0342
  393loPI   C2B 6286  14.977  10.413   8.153 -0.0027 -0.2134  0.1444
  393loPI   C3B 6287  15.301  10.275   7.800  0.0231  0.1481  0.0175
  393loPI   C4B 6288  15.359  10.351   7.439 -0.2363 -0.0820  0.0066
  394loPI    C1 6289   2.538   9.173   9.379 -0.1084  0.1422  0.1534
  394loPI    C2 6290   2.550   9.253   9.771  0.1234  0.0006  0.1772
  394loPI    C3 6291   2.627   9.542   9.505  0.0039  0.0875  0.2357
  394loPI   PO4 6292   2.334   9.154   9.211  0.0218 -0.1640  0.0769
  394loPI   GL1 6293   2.302   9.394   8.831 -0.0818 -0.1443  0.0231
  394loPI   GL2 6294   2.392   9.122   8.512 -0.2413 -0.0990  0.0579
  394loPI   C1A 6295   2.429   9.710   8.417  0.3936  0.3358 -0.4437
  394loPI   C2A 6296   2.269   9.561   7.966  0.0548 -0.1612  0.3477
  394loPI   C3A 6297   2.067   9.305   7.642  0.2051  0.0718 -0.1018
  394loPI   C4A 6298   2.132   9.526   7.211  0.0013 -0.0601 -0.2346
  394loPI   C5A 6299   2.013   9.770   6.781  0.0280  0.0896 -0.2844
  394loPI   C6A 6300   1.962  10.246   6.596  0.1126 -0.0716 -0.0169
  394loPI   C1B 6301   2.601   9.181   8.161  0.0451  0.0216 -0.1946
  394loPI   C2B 6302   2.556   9.043   7.759 -0.0209 -0.2225  0.1454
  394loPI   C3B 6303   2.413   8.976   7.237  0.1353 -0.2176  0.2584
  394loPI   C4B 6304   2.310   8.714   6.973  0.3555 -0.1607  0.0362
  395loPI    C1 6305   6.543   0.413   9.698 -0.1237  0.1100  0.1017
  395loPI    C2 6306   6.483   0.291  10.074  0.0724 -0.2532  0.0202
  395loPI    C3 6307   6.260   0.586   9.921 -0.1601 -0.2545  0.3466
  395loPI   PO4 6308   6.619   0.169   9.567  0.1749 -0.2829 -0.1131
  395loPI   GL1 6309   6.421   0.030   9.259  0.2063  0.1095  0.1514
  395loPI   GL2 6310   6.252  -0.089   8.989 -0.0345 -0.2071 -0.0080
  395loPI   C1A 6311   6.706  -0.054   8.858  0.0676 -0.2544  0.0272
  395loPI   C2A 6312   6.646  -0.241   8.482  0.1223  0.4485 -0.0601
  395loPI   C3A 6313   6.669  -0.116   8.016  0.3245  0.1607 -0.0458
  395loPI   C4A 6314   6.797  -0.164   7.629 -0.1886 -0.0929  0.1734
  395loPI   C5A 6315   7.049  -0.465   7.471  0.0857  0.4690 -0.0164
  395loPI   C6A 6316   7.274  -0.765   7.286  0.1412  0.4344  0.5224
  395loPI   C1B 6317   6.163   0.027   8.562 -0.0450 -0.1448 -0.3515
  395loPI   C2B 6318   6.190   0.030   8.152  0.0231  0.0282 -0.1864
  395loPI   C3B 6319   6.301   0.082   7.713  0.1241 -0.0546 -0.0358
  395loPI   C4B 6320   6.267   0.401   7.392 -0.1704  0.0897 -0.0690
  396loPI    C1 6321  13.361   7.861   9.758 -0.0251 -0.1106  0.1070
  396loPI    C2 6322  13.446   7.924  10.144  0.1280  0.2458  0.0195
  396loPI    C3 6323  13.152   8.131   9.968  0.1591  0.1943 -0.0939
  396loPI   PO4 6324  13.599   7.887   9.614 -0.1307  0.0576  0.1669
  396loPI   GL1 6325  13.599   7.731   9.269 -0.0775  0.0206  0.0638
  396loPI   GL2 6326  13.958   7.718   9.232 -0.3368 -0.1866  0.4116
  396loPI   C1A 6327  13.401   7.782   8.952 -0.1656 -0.1277  0.0105
  396loPI   C2A 6328  13.359   7.778   8.503 -0.0342  0.0229 -0.0026
  396loPI   C3A 6329  13.275   7.826   8.107  0.0287 -0.1293  0.2251
  396loPI   C4A 6330  13.185   7.839   7.666  0.1090  0.3022 -0.1447
  396loPI   C5A 6331  13.175   7.788   7.222 -0.1557  0.0852  0.1303
  396loPI   C6A 6332  12.851   7.996   7.031 -0.2893  0.1294 -0.0555
  396loPI   C1B 6333  13.873   7.641   8.743 -0.1546  0.1729 -0.0185
  396loPI   C2B 6334  13.804   7.729   8.322 -0.1374  0.0411  0.0834
  396loPI   C3B 6335  13.860   7.872   7.921  0.2412  0.1527 -0.1394
  396loPI   C4B 6336  13.910   8.205   7.699 -0.3780 -0.1254  0.3589
  397loPI    C1 6337   1.322   3.129   9.904 -0.1267 -0.0735 -0.3515
  397loPI    C2 6338   1.213   3.491   9.772 -0.0886  0.0593 -0.0296
  397loPI    C3 6339   1.010   3.317  10.069 -0.0805 -0.1677 -0.1541
  397loPI   PO4 6340   1.538   3.099   9.700 -0.2842  0.0843 -0.2760
  397loPI   GL1 6341   1.731   2.982   9.321  0.3438 -0.3420  0.2430
  397loPI   GL2 6342   2.010   3.131   9.456 -0.1573 -0.1651  0.5127
  397loPI   C1A 6343   1.512   2.885   8.838  0.1203  0.1115 -0.0954
  397loPI   C2A 6344   1.518   2.889   8.376  0.1525  0.0797  0.0974
  397loPI   C3A 6345   1.550   2.925   8.016 -0.0521  0.0916  0.4260
  397loPI   C4A 6346   1.452   2.867   7.525 -0.1602 -0.2186 -0.1220
  397loPI   C5A 6347   1.064   2.708   7.310  0.3587  0.0653  0.3231
  397loPI   C6A 6348   0.666   2.504   7.217  0.5240  0.1005 -0.0013
  397loPI   C1B 6349   1.829   3.313   8.899  0.1201  0.3098 -0.2237
  397loPI   C2B 6350   1.812   3.328   8.455  0.1050 -0.2603 -0.2013
  397loPI   C3B 6351   1.846   3.454   8.003  0.0276 -0.3018  0.0338
  397loPI   C4B 6352   1.706   3.665   7.726 -0.1841 -0.0840  0.1007
  398loPI    C1 6353  15.406   4.280  10.042 -0.1462 -0.2725  0.0261
  398loPI    C2 6354  15.751   4.156  10.201 -0.0511  0.0212  0.0549
  398loPI    C3 6355  15.457   3.894  10.132  0.0847 -0.1901  0.2616
  398loPI   PO4 6356  15.494   4.519   9.955 -0.3486  0.2231  0.2343
  398loPI   GL1 6357  15.787   4.657   9.651 -0.2758 -0.1858 -0.2024
  398loPI   GL2 6358  15.578   4.817   9.555  0.0113  0.2977 -0.2143
  398loPI   C1A 6359  15.942   4.538   9.258  0.1403  0.3015 -0.1309
  398loPI   C2A 6360  16.026   4.535   8.821 -0.1043  0.1095 -0.3337
  398loPI   C3A 6361  15.983   4.503   8.404  0.1338 -0.1870 -0.0150
  398loPI   C4A 6362  15.969   4.734   8.012 -0.0194  0.0455  0.0085
  398loPI   C5A 6363  16.135   4.819   7.531 -0.2032 -0.0869 -0.2283
  398loPI   C6A 6364  16.540   4.787   7.290  0.1473  0.1081 -0.1948
  398loPI   C1B 6365  15.484   4.723   9.138  0.0858  0.1106  0.3883
  398loPI   C2B 6366  15.571   4.513   8.694  0.3306  0.1530  0.0297
  398loPI   C3B 6367  15.507   4.633   8.292  0.2473 -0.2213  0.0747
  398loPI   C4B 6368  15.531   4.696   7.834  0.0244 -0.0441 -0.1356
  399loPI    C1 6369   0.313   5.203   9.639  0.5428  0.1615  0.0957
  399loPI    C2 6370   0.221   5.555   9.805  0.0982  0.0947  0.0026
  399loPI    C3 6371   0.262   5.230  10.035  0.1374  0.1325  0.0492
  399loPI   PO4 6372   0.310   5.315   9.353  0.1844 -0.0618 -0.1197
  399loPI   GL1 6373   0.640   5.432   9.044 -0.5364 -0.1439 -0.2236
  399loPI   GL2 6374   0.267   5.653   8.921 -0.1023 -0.1970 -0.1307
  399loPI   C1A 6375   0.883   5.532   8.574  0.1665  0.0533 -0.1688
  399loPI   C2A 6376   0.750   5.453   8.108  0.0405 -0.2242 -0.1447
  399loPI   C3A 6377   0.606   5.216   7.626 -0.0975  0.3383  0.0304
  399loPI   C4A 6378   0.586   5.029   7.187 -0.0437 -0.2689 -0.1717
  399loPI   C5A 6379   0.687   4.780   6.811 -0.0055 -0.3140  0.1622
  399loPI   C6A 6380   0.522   4.590   6.420  0.0911 -0.3470 -0.1872
  399loPI   C1B 6381   0.305   5.580   8.527  0.0888 -0.0095  0.0711
  399loPI   C2B 6382   0.121   5.646   8.073  0.3561 -0.2248 -0.0426
  399loPI   C3B 6383   0.286   5.516   7.724 -0.2197 -0.0909  0.0150
  399loPI   C4B 6384   0.183   5.359   7.375  0.0468  0.1279 -0.2057
  400loPI    C1 6385   8.576   0.101   9.609  0.1575  0.1125 -0.2061
  400loPI    C2 6386   8.970   0.118   9.676  0.1306  0.1313 -0.0486
  400loPI    C3 6387   8.721   0.348   9.889  0.0232  0.0205 -0.0536
  400loPI   PO4 6388   8.636  -0.182   9.433 -0.4462 -0.1233  0.2323
  400loPI   GL1 6389   8.996  -0.177   9.171  0.0231 -0.3121 -0.1932
  400loPI   GL2 6390   9.111   0.091   8.985  0.1819  0.0036 -0.2407
  400loPI   C1A 6391   8.738  -0.280   8.825  0.0527  0.0630  0.1039
  400loPI   C2A 6392   8.787  -0.422   8.407  0.4268  0.0924  0.2343
  400loPI   C3A 6393   9.034  -0.510   7.938 -0.0162  0.0493 -0.0058
  400loPI   C4A 6394   9.125  -0.663   7.463  0.0243 -0.1241 -0.3064
  400loPI   C5A 6395   9.210  -0.912   6.974  0.1454  0.0239 -0.1404
  400loPI   C6A 6396   9.382  -1.111   6.573  0.1160 -0.0767 -0.0293
  400loPI   C1B 6397   9.056   0.113   8.572  0.2299  0.1907  0.0565
  400loPI   C2B 6398   9.121   0.145   8.129 -0.2555  0.0949 -0.1011
  400loPI   C3B 6399   9.127   0.372   7.642 -0.0486 -0.0985  0.2139
  400loPI   C4B 6400   9.281   0.379   7.201  0.2233  0.1167 -0.5115
  401loPI    C1 6401   7.566  17.824  10.323  0.0822  0.0220 -0.1073
  401loPI    C2 6402   7.906  17.842  10.533  0.0877 -0.0814 -0.1069
  401loPI    C3 6403   7.557  17.930  10.708  0.1127  0.0151 -0.1046
  401loPI   PO4 6404   7.606  17.973  10.026  0.0581  0.1651  0.3103
  401loPI   GL1 6405   7.832  18.050   9.664 -0.0204 -0.1433  0.1843
  401loPI   GL2 6406   8.112  17.979   9.539 -0.0244  0.2012 -0.2779
  401loPI   C1A 6407   7.466  18.135   9.247 -0.2451  0.0658 -0.1041
  401loPI   C2A 6408   7.568  18.077   8.813  0.1996 -0.1979 -0.3315
  401loPI   C3A 6409   7.685  17.955   8.420  0.1530 -0.0317  0.1843
  401loPI   C4A 6410   7.676  17.841   8.007  0.1948 -0.1050  0.2045
  401loPI   C5A 6411   7.488  17.536   7.720 -0.0083  0.0632  0.2046
  401loPI   C6A 6412   7.284  17.239   7.513 -0.1567 -0.1080  0.0997
  401loPI   C1B 6413   7.994  18.207   9.067 -0.0898 -0.2525  0.1712
  401loPI   C2B 6414   8.022  18.314   8.639  0.2016  0.2290 -0.1000
  401loPI   C3B 6415   8.131  18.278   8.192  0.0517 -0.0482  0.0826
  401loPI   C4B 6416   7.907  18.316   7.830  0.0544  0.1716  0.1788
  402loPI    C1 6417   2.963   8.052   9.519 -0.0631 -0.0116 -0.0263
  402loPI    C2 6418   3.301   7.983   9.316  0.0619  0.4193  0.0258
  402loPI    C3 6419   3.308   8.000   9.716 -0.0988  0.0360  0.0492
  402loPI   PO4 6420   2.860   8.280   9.364  0.0724  0.3505 -0.0315
  402loPI   GL1 6421   2.530   8.588   9.005 -0.2636  0.4417 -0.5154
  402loPI   GL2 6422   2.670   8.957   8.900  0.0528  0.0555  0.2403
  402loPI   C1A 6423   2.480   8.446   8.607 -0.2422  0.0854 -0.3821
  402loPI   C2A 6424   2.709   8.294   8.365  0.2185  0.0988 -0.2540
  402loPI   C3A 6425   2.631   8.219   7.939  0.2301 -0.1405 -0.0639
  402loPI   C4A 6426   2.876   7.934   7.542 -0.0480 -0.1471  0.1553
  402loPI   C5A 6427   2.942   8.195   7.290  0.2455  0.0744  0.2250
  402loPI   C6A 6428   3.008   8.096   6.980 -0.1083  0.1456  0.1512
  402loPI   C1B 6429   2.818   8.815   8.462  0.2715 -0.0837 -0.1644
  402loPI   C2B 6430   2.866   8.665   8.088  0.0952 -0.0526  0.1912
  402loPI   C3B 6431   2.843   8.629   7.653  0.1569  0.0923  0.0678
  402loPI   C4B 6432   2.531   8.555   7.398  0.2217 -0.2056  0.1028
  403loPI    C1 6433  12.757  13.723  10.085 -0.0875  0.1496  0.1562
  403loPI    C2 6434  12.893  14.099  10.057  0.0760  0.0780 -0.0311
  403loPI    C3 6435  13.100  13.826  10.263 -0.0700  0.1020  0.1498
  403loPI   PO4 6436  12.626  13.759   9.821  0.1110 -0.0900 -0.1008
  403loPI   GL1 6437  12.675  13.860   9.364 -0.0957  0.0124 -0.0142
  403loPI   GL2 6438  12.629  14.038   9.216  0.1709  0.2961  0.0204
  403loPI   C1A 6439  12.532  13.630   8.967  0.0163  0.1278 -0.5027
  403loPI   C2A 6440  12.501  13.569   8.511 -0.6575 -0.1806  0.0168
  403loPI   C3A 6441  12.474  13.646   8.112 -0.2063  0.0155  0.1475
  403loPI   C4A 6442  12.494  13.788   7.712 -0.0831 -0.1158 -0.1412
  403loPI   C5A 6443  12.552  14.151   7.544 -0.0791 -0.2216  0.2119
  403loPI   C6A 6444  12.382  14.372   7.090 -0.1855  0.0490 -0.0886
  403loPI   C1B 6445  12.679  14.025   8.727 -0.0090 -0.0277 -0.1917
  403loPI   C2B 6446  12.780  13.990   8.363  0.0262  0.0703 -0.1750
  403loPI   C3B 6447  12.726  14.174   8.044  0.1049  0.1244 -0.1108
  403loPI   C4B 6448  13.071  14.316   7.750 -0.1787 -0.2039  0.2399
  404loPI    C1 6449  18.000  10.871   9.878 -0.1357 -0.2064 -0.1627
  404loPI    C2 6450  17.624  10.846  10.012 -0.0710 -0.1229  0.0393
  404loPI    C3 6451  17.927  10.742  10.250  0.0453  0.0029 -0.0522
  404loPI   PO4 6452  17.951  10.852   9.593 -0.3031 -0.0868 -0.3052
  404loPI   GL1 6453  17.928  10.816   9.275  0.1249 -0.0255 -0.3268
  404loPI   GL2 6454  17.942  11.188   9.174  0.1504 -0.3543  0.1343
  404loPI   C1A 6455  17.908  10.792   8.772 -0.1392  0.0726 -0.3494
  404loPI   C2A 6456  17.842  10.781   8.401  0.1054 -0.1837  0.1339
  404loPI   C3A 6457  17.782  10.784   7.926 -0.1469  0.1165  0.2332
  404loPI   C4A 6458  17.669  10.630   7.513 -0.2965  0.0140 -0.0155
  404loPI   C5A 6459  17.661  10.458   7.032 -0.0912 -0.2714  0.1546
  404loPI   C6A 6460  17.395  10.544   6.685  0.0107  0.2413 -0.1041
  404loPI   C1B 6461  17.837  11.297   8.739  0.1429 -0.0326 -0.1460
  404loPI   C2B 6462  17.980  11.264   8.403  0.1447  0.2328  0.3795
  404loPI   C3B 6463  17.879  11.291   7.997  0.0796  0.4235  0.1502
  404loPI   C4B 6464  17.944  11.336   7.608  0.2480 -0.0096 -0.2863
  405loPI    C1 6465   9.949   5.283  10.411  0.0353  0.0888  0.0558
  405loPI    C2 6466   9.957   4.968  10.657  0.3138  0.0266 -0.0303
  405loPI    C3 6467   9.926   5.337  10.807 -0.1785 -0.0465  0.0635
  405loPI   PO4 6468  10.129   5.272  10.207  0.3632 -0.3487 -0.2561
  405loPI   GL1 6469  10.092   5.151   9.845  0.0271  0.0455  0.0602
  405loPI   GL2 6470  10.075   5.393   9.702  0.1913 -0.2153 -0.0870
  405loPI   C1A 6471  10.167   4.954   9.485 -0.2830 -0.0814 -0.0233
  405loPI   C2A 6472  10.192   4.812   9.056 -0.1385  0.1183  0.2168
  405loPI   C3A 6473  10.107   4.635   8.623 -0.0264 -0.2431  0.1485
  405loPI   C4A 6474  10.117   4.698   8.199 -0.1572 -0.2056 -0.0780
  405loPI   C5A 6475  10.221   4.473   7.842  0.3184  0.1507  0.2173
  405loPI   C6A 6476  10.397   4.087   7.748  0.3537 -0.0808  0.0455
  405loPI   C1B 6477  10.287   5.582   9.327  0.1255 -0.0134 -0.2556
  405loPI   C2B 6478  10.457   5.610   8.906 -0.0764  0.1622  0.1374
  405loPI   C3B 6479  10.269   5.570   8.501 -0.1423  0.0380 -0.0972
  405loPI   C4B 6480   9.917   5.579   8.228 -0.1219  0.1692  0.1352
  406loPI    C1 6481  16.198  16.715  10.199 -0.3145 -0.1443 -0.4115
  406loPI    C2 6482  16.003  16.382  10.303 -0.3424 -0.0750 -0.2383
  406loPI    C3 6483  16.403  16.396  10.326 -0.3514 -0.0435 -0.0898
  406loPI   PO4 6484  16.208  16.744   9.949 -0.1985  0.1017 -0.1727
  406loPI   GL1 6485  16.076  16.769   9.532 -0.0078  0.1127  0.1018
  406loPI   GL2 6486  15.881  16.370   9.525 -0.2543  0.1427  0.0257
  406loPI   C1A 6487  16.247  16.710   9.164 -0.1987  0.0889 -0.1668
  406loPI   C2A 6488  16.268  16.807   8.735  0.3392  0.2600  0.3298
  406loPI   C3A 6489  16.247  16.803   8.342 -0.0919 -0.0059  0.0018
  406loPI   C4A 6490  16.257  16.812   7.899 -0.1823  0.1221 -0.0722
  406loPI   C5A 6491  16.506  16.997   7.558 -0.2763 -0.0738  0.1328
  406loPI   C6A 6492  16.389  17.012   7.144  0.0463 -0.5257  0.1466
  406loPI   C1B 6493  15.934  16.386   8.992  0.0392  0.0409  0.1843
  406loPI   C2B 6494  15.972  16.376   8.591 -0.2393 -0.0213  0.2401
  406loPI   C3B 6495  16.026  16.328   8.126  0.2038 -0.0193  0.1290
  406loPI   C4B 6496  16.060  16.250   7.757  0.0889  0.0870 -0.0036
  407loPI    C1 6497   6.056  15.740  10.324 -0.0249 -0.2354  0.0350
  407loPI    C2 6498   6.136  16.122  10.410 -0.0820 -0.1212 -0.3959
  407loPI    C3 6499   6.181  15.841  10.691 -0.0919  0.2059 -0.0578
  407loPI   PO4 6500   6.106  15.754  10.041 -0.2854 -0.0077  0.3535
  407loPI   GL1 6501   5.927  16.050   9.738 -0.1084 -0.0400 -0.1492
  407loPI   GL2 6502   5.969  15.745   9.575 -0.0925 -0.1006 -0.0415
  407loPI   C1A 6503   6.238  16.110   9.303 -0.0839  0.1052 -0.1302
  407loPI   C2A 6504   6.321  15.963   8.907  0.1717  0.2148 -0.1251
  407loPI   C3A 6505   6.595  16.012   8.563 -0.2088 -0.3040 -0.0240
  407loPI   C4A 6506   6.707  15.994   8.127  0.2316 -0.0862 -0.1000
  407loPI   C5A 6507   6.806  15.992   7.690  0.1739 -0.0289 -0.2553
  407loPI   C6A 6508   6.797  16.261   7.296  0.2243  0.2821 -0.0769
  407loPI   C1B 6509   5.788  15.949   9.165  0.1362 -0.1153  0.0105
  407loPI   C2B 6510   5.544  15.851   8.829  0.0248  0.3401  0.3910
  407loPI   C3B 6511   5.599  15.724   8.286 -0.3614 -0.4034 -0.0920
  407loPI   C4B 6512   5.842  15.845   8.049 -0.0530  0.2438 -0.0283
  408loPI    C1 6513  12.181   6.450  10.036 -0.2997 -0.1104 -0.0144
  408loPI    C2 6514  12.396   6.232  10.293  0.0331  0.2399  0.0121
  408loPI    C3 6515  12.002   6.274  10.347 -0.0402 -0.3558 -0.0001
  408loPI   PO4 6516  12.228   6.307   9.817  0.0901 -0.1132 -0.0103
  408loPI   GL1 6517  12.109   6.369   9.402 -0.4249 -0.0915 -0.4036
  408loPI   GL2 6518  11.934   6.177   9.341  0.4154 -0.0259  0.2064
  408loPI   C1A 6519  11.919   6.615   9.085 -0.1352  0.4267  0.2464
  408loPI   C2A 6520  11.921   6.466   8.699 -0.0207 -0.3308 -0.0105
  408loPI   C3A 6521  11.858   6.315   8.279 -0.1746  0.2874 -0.2115
  408loPI   C4A 6522  11.976   6.110   7.878  0.1461  0.0884  0.0500
  408loPI   C5A 6523  11.852   5.790   7.492 -0.3945 -0.0880 -0.2045
  408loPI   C6A 6524  11.542   5.648   7.518  0.1547  0.3151 -0.0704
  408loPI   C1B 6525  12.013   6.117   9.029  0.0113 -0.0115  0.3071
  408loPI   C2B 6526  12.121   5.953   8.658  0.1096  0.2790  0.1203
  408loPI   C3B 6527  12.103   5.864   8.269 -0.1161 -0.1462  0.0940
  408loPI   C4B 6528  11.950   5.582   7.908 -0.0927  0.0191 -0.0787
  409loPI    C1 6529  10.960   6.261  10.440  0.0145 -0.0975 -0.0126
  409loPI    C2 6530  11.235   6.538  10.528  0.2764 -0.3728  0.0495
  409loPI    C3 6531  10.895   6.520  10.738  0.1545  0.0431 -0.1024
  409loPI   PO4 6532  10.811   6.310  10.110 -0.1278 -0.1896 -0.2358
  409loPI   GL1 6533  11.024   6.491   9.713  0.1893  0.0921  0.1054
  409loPI   GL2 6534  10.982   6.043   9.671  0.0066  0.0661 -0.0414
  409loPI   C1A 6535  11.024   6.393   9.263 -0.0263 -0.0813  0.0188
  409loPI   C2A 6536  10.927   6.390   8.748  0.2161 -0.1280  0.0195
  409loPI   C3A 6537  10.766   6.471   8.303  0.1459  0.0329 -0.0629
  409loPI   C4A 6538  10.577   6.552   7.927 -0.3449  0.2352  0.0873
  409loPI   C5A 6539  10.797   6.858   7.653  0.0476 -0.0481  0.0522
  409loPI   C6A 6540  10.869   7.209   7.772 -0.3778  0.1481  0.3174
  409loPI   C1B 6541  11.156   5.927   9.232 -0.0130 -0.0478  0.3034
  409loPI   C2B 6542  11.152   5.929   8.680 -0.0610  0.0108  0.0300
  409loPI   C3B 6543  11.041   6.033   8.273  0.2745  0.0970 -0.0048
  409loPI   C4B 6544  11.002   5.957   7.832 -0.1553 -0.1761  0.2402
  410loPI    C1 6545  16.721  12.825   9.742  0.0654  0.0294 -0.1366
  410loPI    C2 6546  16.396  12.697   9.549  0.0839 -0.0679 -0.1032
  410loPI    C3 6547  16.631  12.436   9.740  0.0921  0.0220  0.0103
  410loPI   PO4 6548  16.744  13.065   9.552 -0.0223 -0.0945  0.3020
  410loPI   GL1 6549  16.689  13.011   9.159 -0.1957  0.0387 -0.1774
  410loPI   GL2 6550  16.900  13.370   9.119  0.0581  0.2852  0.6451
  410loPI   C1A 6551  16.678  13.154   8.742  0.2411  0.0103 -0.2059
  410loPI   C2A 6552  16.875  13.357   8.484  0.2230 -0.1062 -0.0409
  410loPI   C3A 6553  16.785  13.277   8.129 -0.0201  0.2294  0.1663
  410loPI   C4A 6554  16.734  13.273   7.715 -0.1338  0.0003 -0.0139
  410loPI   C5A 6555  16.888  13.330   7.296 -0.0644  0.1624  0.0913
  410loPI   C6A 6556  16.838  13.376   6.910 -0.0687 -0.0826 -0.0723
  410loPI   C1B 6557  17.135  13.069   8.981 -0.2539 -0.1217 -0.1414
  410loPI   C2B 6558  17.230  12.854   8.523  0.4933 -0.1804  0.1699
  410loPI   C3B 6559  17.205  12.907   8.115 -0.2492 -0.3060 -0.1092
  410loPI   C4B 6560  17.140  12.920   7.745 -0.0514 -0.1723  0.3038
  411loPI    C1 6561  14.218   4.630  10.021  0.3565  0.1783  0.2352
  411loPI    C2 6562  14.293   4.332  10.276  0.2685  0.0988  0.1692
  411loPI    C3 6563  13.969   4.562  10.327 -0.0187 -0.2237 -0.1435
  411loPI   PO4 6564  14.270   4.513   9.798  0.1621  0.0832  0.0417
  411loPI   GL1 6565  14.546   4.301   9.483 -0.1714  0.0629 -0.0078
  411loPI   GL2 6566  14.414   4.507   9.280 -0.0332  0.2644 -0.3617
  411loPI   C1A 6567  14.296   3.905   9.362 -0.1710  0.0081  0.3394
  411loPI   C2A 6568  14.194   3.650   8.888  0.1588  0.1642 -0.0476
  411loPI   C3A 6569  14.127   3.886   8.434 -0.0139 -0.1503 -0.1202
  411loPI   C4A 6570  14.232   4.139   8.120  0.0334 -0.4563 -0.2935
  411loPI   C5A 6571  14.155   4.395   7.856 -0.1082  0.3830  0.3797
  411loPI   C6A 6572  13.799   4.446   7.671  0.0322 -0.1260  0.1319
  411loPI   C1B 6573  14.533   4.642   8.844  0.1736 -0.1191  0.1521
  411loPI   C2B 6574  14.661   4.969   8.578 -0.1751  0.2709  0.1331
  411loPI   C3B 6575  14.749   5.037   8.044 -0.1382 -0.2760 -0.0787
  411loPI   C4B 6576  14.835   5.211   7.742  0.0453  0.2022  0.0238
  412loPI    C1 6577  17.009  18.482   9.814 -0.0184  0.0111  0.1073
  412loPI    C2 6578  17.285  18.770   9.789  0.1904 -0.2017 -0.0957
  412loPI    C3 6579  17.232  18.573  10.133  0.0719  0.0506  0.0334
  412loPI   PO4 6580  17.074  18.320   9.633  0.1394 -0.3576  0.1915
  412loPI   GL1 6581  17.249  18.607   9.294 -0.0153 -0.0157 -0.0914
  412loPI   GL2 6582  16.821  18.513   9.228  0.0535  0.0865  0.1086
  412loPI   C1A 6583  17.417  18.488   8.945  0.0689  0.1972  0.0081
  412loPI   C2A 6584  17.742  18.482   8.572  0.0061  0.0690  0.0141
  412loPI   C3A 6585  17.839  18.058   8.389 -0.0071  0.1442  0.3333
  412loPI   C4A 6586  17.679  17.808   8.034 -0.0768 -0.0056 -0.0503
  412loPI   C5A 6587  17.591  18.101   7.722  0.0026 -0.2396 -0.1179
  412loPI   C6A 6588  17.458  18.500   7.678  0.1550  0.1632 -0.3791
  412loPI   C1B 6589  16.958  18.437   8.743 -0.1934  0.5830 -0.0311
  412loPI   C2B 6590  17.025  18.382   8.330  0.2630 -0.0244  0.0832
  412loPI   C3B 6591  17.107  18.595   7.991 -0.0179 -0.0632 -0.2778
  412loPI   C4B 6592  17.269  18.981   7.863 -0.0520  0.0948  0.0639
  413loPI    C1 6593  14.198   1.390   9.864  0.0214  0.1151 -0.1990
  413loPI    C2 6594  14.525   1.301  10.077 -0.0725 -0.1035 -0.1437
  413loPI    C3 6595  14.177   1.368  10.263 -0.0400  0.2266 -0.1956
  413loPI   PO4 6596  14.108   1.181   9.711 -0.0266  0.1356  0.0960
  413loPI   GL1 6597  13.928   1.169   9.279 -0.3974  0.0841 -0.0542
  413loPI   GL2 6598  13.749   1.067   9.389  0.2668  0.1659 -0.2112
  413loPI   C1A 6599  13.934   1.345   8.862  0.1591 -0.1765 -0.0859
  413loPI   C2A 6600  14.116   1.406   8.501  0.4635  0.0089 -0.1684
  413loPI   C3A 6601  14.051   1.478   8.054  0.3840  0.0962  0.0223
  413loPI   C4A 6602  13.903   1.402   7.597  0.0837 -0.0697  0.0223
  413loPI   C5A 6603  13.560   1.276   7.342 -0.0549 -0.2290  0.4820
  413loPI   C6A 6604  13.467   0.944   7.027 -0.0471 -0.0133  0.0066
  413loPI   C1B 6605  13.579   0.788   9.053 -0.3401  0.1223 -0.1774
  413loPI   C2B 6606  13.653   0.989   8.642  0.1486  0.0895 -0.0325
  413loPI   C3B 6607  13.751   1.038   8.224 -0.0974  0.2692 -0.1637
  413loPI   C4B 6608  13.858   0.986   7.810  0.2187 -0.1620 -0.1201
  414loPI    C1 6609   3.690   5.116   9.788  0.0900  0.0344  0.0907
  414loPI    C2 6610   4.020   4.985   9.972  0.0506  0.0298  0.1581
  414loPI    C3 6611   3.744   5.190  10.177  0.0696  0.1405  0.0736
  414loPI   PO4 6612   3.653   4.873   9.635 -0.2129  0.0754  0.1383
  414loPI   GL1 6613   3.605   4.524   9.250  0.2093 -0.0279  0.0865
  414loPI   GL2 6614   3.492   4.823   9.083 -0.0742  0.2421 -0.3628
  414loPI   C1A 6615   3.706   4.461   8.776 -0.2178 -0.2489 -0.3991
  414loPI   C2A 6616   4.014   4.598   8.403  0.0263 -0.0658  0.0009
  414loPI   C3A 6617   3.977   4.675   7.949 -0.1640 -0.2702  0.0809
  414loPI   C4A 6618   4.217   4.861   7.683 -0.0719  0.4040  0.1735
  414loPI   C5A 6619   4.610   4.968   7.584 -0.5298 -0.0349  0.0910
  414loPI   C6A 6620   4.661   5.414   7.391  0.0820  0.2146  0.0410
  414loPI   C1B 6621   3.372   5.202   8.845 -0.1946  0.1991 -0.1545
  414loPI   C2B 6622   3.078   5.079   8.425 -0.0274 -0.0132  0.0962
  414loPI   C3B 6623   2.959   5.121   7.984 -0.1849 -0.1427  0.2694
  414loPI   C4B 6624   2.937   4.845   7.613  0.5142 -0.0096 -0.0857
  415loPI    C1 6625   8.889  14.520   9.801  0.0399 -0.1258  0.1405
  415loPI    C2 6626   8.935  14.709  10.151  0.1413 -0.0283  0.0754
  415loPI    C3 6627   9.255  14.578   9.950  0.0889 -0.0077 -0.0222
  415loPI   PO4 6628   8.722  14.659   9.683 -0.2899  0.1786  0.1576
  415loPI   GL1 6629   8.808  14.785   9.317 -0.1220 -0.1196  0.1011
  415loPI   GL2 6630   8.725  15.094   9.371 -0.0865  0.1734  0.1758
  415loPI   C1A 6631   8.425  14.738   9.086  0.1383 -0.1485  0.2103
  415loPI   C2A 6632   8.303  14.737   8.775 -0.1387 -0.3009 -0.0122
  415loPI   C3A 6633   8.310  15.062   8.483  0.1633 -0.1284 -0.0819
  415loPI   C4A 6634   8.195  15.219   8.163 -0.0778 -0.1857 -0.1282
  415loPI   C5A 6635   8.136  15.082   7.733 -0.2582 -0.3631 -0.1972
  415loPI   C6A 6636   8.410  14.722   7.522  0.1591  0.0838 -0.0559
  415loPI   C1B 6637   8.679  15.073   8.898  0.2027  0.1165  0.0974
  415loPI   C2B 6638   8.869  15.070   8.466 -0.2252  0.0715 -0.0741
  415loPI   C3B 6639   8.758  15.036   8.064 -0.0305 -0.2131 -0.1109
  415loPI   C4B 6640   9.040  14.953   7.717  0.2370  0.1551  0.1588
  416loPI    C1 6641   8.513  10.955   9.872  0.0401 -0.0396  0.0357
  416loPI    C2 6642   8.699  11.073   9.538 -0.0174 -0.0591 -0.0036
  416loPI    C3 6643   8.908  11.017   9.874  0.0449 -0.0653 -0.0431
  416loPI   PO4 6644   8.359  10.734   9.677 -0.0769 -0.2057  0.2387
  416loPI   GL1 6645   8.206  10.890   9.401 -0.1231 -0.0199  0.2015
  416loPI   GL2 6646   8.167  11.242   9.357 -0.0024 -0.0232 -0.1918
  416loPI   C1A 6647   8.517  10.869   9.087 -0.0625 -0.1798  0.1168
  416loPI   C2A 6648   8.631  10.955   8.689  0.0849 -0.1157 -0.0522
  416loPI   C3A 6649   8.584  11.239   8.239 -0.3789 -0.2921  0.0044
  416loPI   C4A 6650   8.338  11.446   7.910  0.1159  0.0865 -0.3237
  416loPI   C5A 6651   8.188  11.476   7.486 -0.1696  0.0235  0.0198
  416loPI   C6A 6652   8.237  11.427   6.995  0.1981  0.0924 -0.1766
  416loPI   C1B 6653   8.158  11.146   8.926  0.0711 -0.0682  0.1720
  416loPI   C2B 6654   8.107  11.231   8.555 -0.1416 -0.3453  0.1801
  416loPI   C3B 6655   7.929  11.199   8.185 -0.0391  0.0804 -0.0354
  416loPI   C4B 6656   7.865  11.532   7.899  0.2304  0.0224 -0.1649
  417loPI    C1 6657   7.883   1.666   9.623  0.0122  0.0772 -0.0655
  417loPI    C2 6658   8.111   1.586   9.942  0.2252 -0.1886 -0.2792
  417loPI    C3 6659   7.822   1.861   9.966  0.0973 -0.3568  0.2046
  417loPI   PO4 6660   8.033   1.564   9.400  0.0229 -0.1967 -0.0449
  417loPI   GL1 6661   8.021   1.468   8.973 -0.0645  0.0478  0.3421
  417loPI   GL2 6662   8.199   1.168   9.062  0.0659  0.0516  0.0037
  417loPI   C1A 6663   7.857   1.355   8.493  0.1484 -0.2838 -0.1815
  417loPI   C2A 6664   7.819   1.518   7.987  0.1138  0.0146 -0.0889
  417loPI   C3A 6665   7.804   1.545   7.577 -0.0149 -0.0140  0.2453
  417loPI   C4A 6666   7.706   1.604   7.209 -0.1434  0.0414 -0.0306
  417loPI   C5A 6667   7.272   1.537   7.058  0.0252 -0.0632 -0.0541
  417loPI   C6A 6668   6.971   1.284   6.839 -0.0171  0.2541 -0.1664
  417loPI   C1B 6669   8.162   1.016   8.632  0.0684  0.1974  0.1446
  417loPI   C2B 6670   8.228   0.956   8.143  0.1343 -0.3797 -0.1002
  417loPI   C3B 6671   8.008   1.096   7.702  0.1836 -0.1076  0.0895
  417loPI   C4B 6672   8.012   1.230   7.228  0.1171 -0.2992 -0.1218
  418loPI    C1 6673   1.977  17.681   9.540 -0.2189 -0.0347 -0.1921
  418loPI    C2 6674   2.275  17.586   9.788 -0.1703  0.1205 -0.1899
  418loPI    C3 6675   2.140  17.316   9.526 -0.1856 -0.0264 -0.0325
  418loPI   PO4 6676   1.776  17.848   9.624  0.4109  0.1445  0.2627
  418loPI   GL1 6677   1.349  18.059   9.527  0.1424 -0.0083  0.2441
  418loPI   GL2 6678   1.029  18.020   9.641  0.0851  0.0102 -0.0516
  418loPI   C1A 6679   1.356  17.990   9.028  0.2063 -0.1586  0.2409
  418loPI   C2A 6680   1.328  17.920   8.619  0.0650  0.1465  0.1265
  418loPI   C3A 6681   1.672  18.162   8.307  0.0429  0.0560  0.2406
  418loPI   C4A 6682   1.575  18.347   7.919  0.3083 -0.0966  0.1735
  418loPI   C5A 6683   1.409  18.384   7.606  0.2164  0.1707 -0.3397
  418loPI   C6A 6684   1.668  18.551   7.229 -0.2396  0.0254 -0.1462
  418loPI   C1B 6685   0.936  17.881   9.231  0.0629 -0.1281  0.0103
  418loPI   C2B 6686   0.880  17.913   8.861  0.2284 -0.0096 -0.3809
  418loPI   C3B 6687   0.918  17.902   8.363  0.2281 -0.1449 -0.1830
  418loPI   C4B 6688   1.191  18.050   8.001 -0.1190 -0.0289 -0.3770
  419loPI    C1 6689  12.842  10.014   9.903  0.3617 -0.0577 -0.0795
  419loPI    C2 6690  13.109  10.285  10.024  0.1990  0.0285  0.0919
  419loPI    C3 6691  12.868  10.110  10.291 -0.0402  0.0864 -0.0829
  419loPI   PO4 6692  12.812   9.965   9.686 -0.2935  0.2568  0.0178
  419loPI   GL1 6693  12.639  10.167   9.291 -0.1782 -0.0628  0.4208
  419loPI   GL2 6694  12.863   9.910   9.184 -0.1277 -0.0065  0.0492
  419loPI   C1A 6695  12.367  10.012   9.051  0.1051  0.1893 -0.2328
  419loPI   C2A 6696  12.541   9.839   8.716  0.0343 -0.1567 -0.0386
  419loPI   C3A 6697  12.508   9.819   8.387 -0.2101 -0.0064  0.0392
  419loPI   C4A 6698  12.360   9.746   8.012 -0.1122 -0.1653 -0.0233
  419loPI   C5A 6699  12.128   9.390   7.984 -0.4198 -0.2926 -0.1241
  419loPI   C6A 6700  11.692   9.175   8.038  0.0088  0.2844 -0.2211
  419loPI   C1B 6701  12.918  10.115   8.890 -0.1497 -0.0698  0.0130
  419loPI   C2B 6702  12.810  10.249   8.427  0.0909  0.2951 -0.1375
  419loPI   C3B 6703  12.462  10.211   8.094 -0.0378 -0.4386  0.0570
  419loPI   C4B 6704  12.225  10.320   7.807 -0.2300 -0.1445  0.2076
  420loPI    C1 6705  18.745  14.883   9.989  0.1148 -0.0490  0.1317
  420loPI    C2 6706  18.777  15.276  10.060  0.0745 -0.0122 -0.0501
  420loPI    C3 6707  19.094  15.036  10.110  0.0683  0.0246  0.1734
  420loPI   PO4 6708  18.575  14.810   9.639 -0.0424  0.0695 -0.0810
  420loPI   GL1 6709  18.556  15.058   9.291  0.4247  0.0778  0.0983
  420loPI   GL2 6710  18.771  14.881   9.143 -0.3312 -0.3420  0.0133
  420loPI   C1A 6711  18.362  15.118   8.861  0.2730  0.3280 -0.1371
  420loPI   C2A 6712  18.299  15.148   8.474  0.1985  0.0386 -0.1375
  420loPI   C3A 6713  18.219  15.203   8.047 -0.3565 -0.2211 -0.1513
  420loPI   C4A 6714  17.912  14.994   7.737  0.0497  0.2667 -0.0902
  420loPI   C5A 6715  17.580  14.764   7.565  0.1230  0.0057 -0.0828
  420loPI   C6A 6716  17.277  14.372   7.654 -0.0592 -0.1165 -0.2654
  420loPI   C1B 6717  18.661  14.766   8.701  0.0343 -0.1938 -0.0188
  420loPI   C2B 6718  18.659  14.728   8.314  0.4750  0.0595 -0.1248
  420loPI   C3B 6719  18.470  14.780   7.887 -0.3778 -0.1235 -0.2067
  420loPI   C4B 6720  18.403  15.071   7.506  0.3302  0.1340 -0.0427
  421loPI    C1 6721  16.104   9.031  10.044 -0.0614  0.0655 -0.2519
  421loPI    C2 6722  16.420   9.271  10.096 -0.0428 -0.0824  0.3978
  421loPI    C3 6723  16.066   9.368  10.255 -0.2618 -0.0565 -0.0892
  421loPI   PO4 6724  16.138   9.015   9.761 -0.2089  0.0730  0.3169
  421loPI   GL1 6725  15.946   9.103   9.383  0.0898  0.3151 -0.2030
  421loPI   GL2 6726  16.343   9.100   9.244 -0.1103 -0.2014 -0.2752
  421loPI   C1A 6727  15.838   9.001   9.010 -0.0207  0.2165 -0.0510
  421loPI   C2A 6728  15.913   9.043   8.565 -0.3491 -0.0419  0.1734
  421loPI   C3A 6729  15.547   8.932   8.336 -0.2414 -0.0839  0.0063
  421loPI   C4A 6730  15.388   9.007   7.883  0.0731  0.2357  0.0281
  421loPI   C5A 6731  15.450   8.989   7.445  0.2260  0.1678 -0.1646
  421loPI   C6A 6732  15.328   9.371   7.040  0.0811  0.2685  0.0519
  421loPI   C1B 6733  16.408   9.054   8.830  0.1109  0.0523 -0.1795
  421loPI   C2B 6734  16.410   9.078   8.440 -0.1723  0.0014  0.1284
  421loPI   C3B 6735  16.500   9.127   7.950  0.2873  0.1137  0.2302
  421loPI   C4B 6736  16.487   8.897   7.581  0.0930  0.0331  0.2582
  422loPI    C1 6737  12.336  11.597  10.214 -0.0193 -0.0396  0.4272
  422loPI    C2 6738  12.099  11.740   9.925  0.2059 -0.0023  0.2574
  422loPI    C3 6739  11.940  11.603  10.266 -0.0664 -0.1009  0.0935
  422loPI   PO4 6740  12.541  11.490   9.993  0.3665 -0.2266  0.0167
  422loPI   GL1 6741  12.588  11.530   9.615 -0.2850 -0.2104 -0.0808
  422loPI   GL2 6742  12.335  11.635   9.434  0.0150 -0.1135  0.0483
  422loPI   C1A 6743  12.728  11.274   9.311 -0.4525  0.1192  0.0201
  422loPI   C2A 6744  12.578  10.969   9.006  0.2230 -0.3595 -0.0560
  422loPI   C3A 6745  12.701  10.800   8.569 -0.0339 -0.0191  0.0230
  422loPI   C4A 6746  12.675  10.769   8.164  0.0387  0.2773  0.2207
  422loPI   C5A 6747  12.624  10.676   7.731  0.1146 -0.0987 -0.3113
  422loPI   C6A 6748  12.784  10.814   7.431 -0.0240  0.0719  0.0849
  422loPI   C1B 6749  12.269  11.353   9.077 -0.0241 -0.0489 -0.1489
  422loPI   C2B 6750  12.394  11.230   8.597 -0.0075  0.0238 -0.2312
  422loPI   C3B 6751  12.499  11.239   8.202 -0.0264 -0.2353  0.0963
  422loPI   C4B 6752  12.688  11.194   7.838 -0.1371 -0.0614  0.0692
  423loPI    C1 6753   7.453   1.193   9.857 -0.1666  0.2284 -0.0678
  423loPI    C2 6754   7.686   1.362  10.134 -0.1837  0.3503 -0.1272
  423loPI    C3 6755   7.304   1.280  10.218 -0.0577 -0.0782  0.0541
  423loPI   PO4 6756   7.679   1.207   9.652  0.0066 -0.0656  0.1125
  423loPI   GL1 6757   7.669   1.267   9.251  0.1190 -0.2036  0.0719
  423loPI   GL2 6758   7.414   1.419   8.986 -0.1433  0.1432  0.1201
  423loPI   C1A 6759   7.714   1.089   8.850  0.0182  0.3707  0.0601
  423loPI   C2A 6760   7.772   0.830   8.428  0.2893  0.1414 -0.0899
  423loPI   C3A 6761   7.773   0.743   7.992 -0.1524  0.0217 -0.0437
  423loPI   C4A 6762   7.632   0.707   7.493  0.0754 -0.1610 -0.1584
  423loPI   C5A 6763   7.277   0.406   7.442  0.0862  0.1887 -0.2625
  423loPI   C6A 6764   7.163   0.079   7.242  0.0322 -0.1000 -0.2476
  423loPI   C1B 6765   7.390   1.325   8.480 -0.3195  0.1227  0.2581
  423loPI   C2B 6766   7.473   1.112   8.033  0.0037 -0.0329 -0.3541
  423loPI   C3B 6767   7.494   1.173   7.591  0.1269  0.0526  0.2727
  423loPI   C4B 6768   7.468   1.087   7.163  0.0142 -0.2641  0.1954
  424loPI    C1 6769  17.062   6.797  10.042 -0.0044 -0.1156  0.1528
  424loPI    C2 6770  17.441   6.923  10.030 -0.0259 -0.0651 -0.0360
  424loPI    C3 6771  17.338   6.621  10.272  0.1304 -0.0673  0.0295
  424loPI   PO4 6772  16.991   6.672   9.760  0.2591 -0.2062  0.0585
  424loPI   GL1 6773  17.055   6.487   9.342 -0.3060  0.2786 -0.1178
  424loPI   GL2 6774  17.281   6.611   9.188  0.0465  0.0051 -0.1877
  424loPI   C1A 6775  16.656   6.399   9.037 -0.0547  0.0491 -0.2119
  424loPI   C2A 6776  16.451   6.502   8.675  0.0249 -0.0925 -0.4358
  424loPI   C3A 6777  16.378   6.476   8.193 -0.0393 -0.0002  0.0879
  424loPI   C4A 6778  16.368   6.459   7.787 -0.0579  0.2853  0.1078
  424loPI   C5A 6779  16.264   6.759   7.441  0.3677  0.3559  0.1029
  424loPI   C6A 6780  16.326   6.687   6.976  0.1021 -0.1947 -0.2387
  424loPI   C1B 6781  16.996   6.650   8.815  0.0627  0.1083 -0.2834
  424loPI   C2B 6782  16.827   6.682   8.351  0.1243 -0.1347 -0.2481
  424loPI   C3B 6783  16.876   6.737   7.939  0.0958 -0.0653 -0.2875
  424loPI   C4B 6784  16.795   6.729   7.577  0.0442 -0.3600 -0.0049
  425loPI    C1 6785   3.664  11.993   9.546 -0.0984 -0.2505 -0.0172
  425loPI    C2 6786   3.660  11.614   9.675  0.1309 -0.2523 -0.0106
  425loPI    C3 6787   3.762  11.910   9.924 -0.1715 -0.1699  0.0196
  425loPI   PO4 6788   3.467  12.095   9.414  0.1497  0.1315  0.0303
  425loPI   GL1 6789   3.409  12.062   8.999 -0.1814  0.0539 -0.2274
  425loPI   GL2 6790   3.184  12.176   8.779 -0.0408 -0.2195  0.3295
  425loPI   C1A 6791   3.590  11.860   8.573  0.3054 -0.0338  0.0003
  425loPI   C2A 6792   3.702  11.797   8.158 -0.0275  0.2319  0.4156
  425loPI   C3A 6793   4.074  11.686   8.071  0.0673  0.1442 -0.2007
  425loPI   C4A 6794   4.470  11.817   7.915 -0.0281  0.1158  0.2222
  425loPI   C5A 6795   4.604  11.962   7.595  0.0653  0.0718  0.1660
  425loPI   C6A 6796   4.412  12.146   7.288  0.0132 -0.4057  0.3042
  425loPI   C1B 6797   3.385  12.243   8.426 -0.0046 -0.0189 -0.0440
  425loPI   C2B 6798   3.328  12.293   8.059  0.2310 -0.0243 -0.1027
  425loPI   C3B 6799   3.285  12.172   7.638  0.0866  0.2238 -0.2286
  425loPI   C4B 6800   3.377  12.049   7.249  0.3235 -0.2145 -0.4875
  426loPI    C1 6801   0.885  11.454   9.455 -0.2049  0.0225 -0.3291
  426loPI    C2 6802   1.233  11.529   9.273 -0.0796  0.1244 -0.0530
  426loPI    C3 6803   1.156  11.689   9.631 -0.1967 -0.3146  0.1247
  426loPI   PO4 6804   0.916  11.044   9.473 -0.1840  0.1239 -0.2490
  426loPI   GL1 6805   0.926  11.121   9.081 -0.0493  0.2430 -0.3072
  426loPI   GL2 6806   0.718  10.929   9.003  0.0898  0.1346  0.2185
  426loPI   C1A 6807   1.102  11.332   8.797  0.1417  0.1383 -0.1135
  426loPI   C2A 6808   1.369  11.416   8.574  0.1007  0.0542 -0.0781
  426loPI   C3A 6809   1.251  11.465   8.245 -0.0747  0.5859  0.1235
  426loPI   C4A 6810   1.094  11.537   7.905  0.1716 -0.1786 -0.0060
  426loPI   C5A 6811   1.039  11.407   7.496  0.1601 -0.1948 -0.0276
  426loPI   C6A 6812   1.057  11.452   7.099 -0.0207  0.0875 -0.0976
  426loPI   C1B 6813   0.470  11.033   8.671 -0.1544 -0.2578  0.1556
  426loPI   C2B 6814   0.412  11.182   8.250  0.0164  0.2905 -0.1074
  426loPI   C3B 6815   0.527  11.196   7.784  0.2229 -0.1737  0.0279
  426loPI   C4B 6816   0.504  11.169   7.356  0.2248  0.1941  0.2353
  427loPI    C1 6817  17.310  15.074  10.179 -0.0945  0.0943 -0.0550
  427loPI    C2 6818  17.045  15.234  10.433  0.0579  0.1317  0.0816
  427loPI    C3 6819  17.429  15.198  10.540  0.1082  0.0758 -0.1145
  427loPI   PO4 6820  17.282  15.238   9.920  0.0030  0.4119  0.2124
  427loPI   GL1 6821  17.408  15.231   9.471 -0.2221 -0.4611  0.2619
  427loPI   GL2 6822  17.323  15.550   9.551  0.0651  0.0166  0.1607
  427loPI   C1A 6823  17.401  15.137   9.031 -0.1568 -0.0964 -0.1533
  427loPI   C2A 6824  17.376  15.135   8.626 -0.3257 -0.0383  0.0101
  427loPI   C3A 6825  17.481  15.309   8.343  0.1351 -0.0871  0.3117
  427loPI   C4A 6826  17.677  15.444   7.906 -0.1558  0.3051  0.1268
  427loPI   C5A 6827  17.768  15.363   7.479  0.1021  0.0646 -0.0722
  427loPI   C6A 6828  17.976  15.384   7.123 -0.4999  0.2123 -0.2345
  427loPI   C1B 6829  17.318  15.716   9.109  0.0717  0.0764 -0.4092
  427loPI   C2B 6830  17.340  15.674   8.672 -0.2518  0.2786 -0.0100
  427loPI   C3B 6831  17.466  15.774   8.307  0.1573 -0.2227 -0.0915
  427loPI   C4B 6832  17.263  15.756   7.874 -0.2580 -0.0716 -0.0067
  428loPI    C1 6833   3.967   7.797   9.631  0.0949 -0.1297  0.0297
  428loPI    C2 6834   4.106   8.027   9.335  0.1052 -0.0297  0.1117
  428loPI    C3 6835   4.217   8.099   9.713 -0.0971 -0.0054  0.1675
  428loPI   PO4 6836   3.731   7.733   9.539  0.1777  0.3853 -0.1510
  428loPI   GL1 6837   3.749   7.612   9.175 -0.5011  0.1373 -0.2617
  428loPI   GL2 6838   3.805   7.911   8.996  0.1868  0.0243  0.0074
  428loPI   C1A 6839   3.594   7.573   8.703  0.2619 -0.1551  0.1023
  428loPI   C2A 6840   3.330   7.637   8.288 -0.0317 -0.1518 -0.3859
  428loPI   C3A 6841   3.225   7.445   7.847  0.1048 -0.0810 -0.1135
  428loPI   C4A 6842   3.078   7.365   7.476 -0.3204 -0.1577  0.0555
  428loPI   C5A 6843   2.813   7.594   7.048  0.1642  0.2011  0.1661
  428loPI   C6A 6844   2.527   7.427   6.852 -0.1396  0.0342 -0.0561
  428loPI   C1B 6845   3.954   8.203   8.718  0.1594 -0.0086 -0.1252
  428loPI   C2B 6846   4.077   8.140   8.282 -0.0012 -0.2588 -0.0806
  428loPI   C3B 6847   4.180   8.076   7.970  0.0016  0.0856 -0.1867
  428loPI   C4B 6848   4.517   7.941   7.695  0.2791 -0.2099  0.2809
  429loPI    C1 6849   3.772   9.057   9.937 -0.1765 -0.0277  0.0269
  429loPI    C2 6850   3.606   9.408   9.842 -0.0076  0.0581  0.0455
  429loPI    C3 6851   3.714   9.334  10.220 -0.0728 -0.0267  0.0477
  429loPI   PO4 6852   3.790   8.976   9.626 -0.2076 -0.1945 -0.0196
  429loPI   GL1 6853   4.021   9.135   9.304 -0.2551  0.2745 -0.1611
  429loPI   GL2 6854   4.080   9.373   9.070  0.2185  0.1194  0.3518
  429loPI   C1A 6855   4.438   9.053   9.040  0.2342 -0.0273  0.1057
  429loPI   C2A 6856   4.802   9.242   8.698  0.0487 -0.2550 -0.5187
  429loPI   C3A 6857   4.830   9.398   8.302 -0.0875  0.2129  0.1301
  429loPI   C4A 6858   4.780   9.191   7.975 -0.2213  0.3046  0.1556
  429loPI   C5A 6859   4.800   8.968   7.698 -0.1464  0.0002 -0.5805
  429loPI   C6A 6860   4.714   8.724   7.271 -0.0015  0.2131  0.0267
  429loPI   C1B 6861   4.286   9.403   8.627  0.0372 -0.1165  0.1728
  429loPI   C2B 6862   4.287   9.530   8.243 -0.2411  0.0027 -0.0966
  429loPI   C3B 6863   4.161   9.485   7.810 -0.1669 -0.0201  0.3224
  429loPI   C4B 6864   4.211   9.417   7.371  0.3775  0.1593  0.3216
  430loPI    C1 6865   2.184   0.596   9.863  0.0212 -0.0702  0.1021
  430loPI    C2 6866   1.972   0.323  10.065 -0.1538 -0.0490 -0.0500
  430loPI    C3 6867   2.193   0.592  10.263  0.0631 -0.3325  0.0999
  430loPI   PO4 6868   2.132   0.433   9.567  0.1441 -0.0197  0.0629
  430loPI   GL1 6869   1.912   0.459   9.170  0.0630 -0.0034 -0.2212
  430loPI   GL2 6870   1.998   0.775   9.046  0.1059 -0.0733  0.0243
  430loPI   C1A 6871   2.159   0.236   8.925 -0.1164 -0.0794  0.2253
  430loPI   C2A 6872   2.133   0.332   8.461 -0.2835 -0.0729  0.1396
  430loPI   C3A 6873   2.374   0.412   8.082 -0.1441 -0.1593 -0.0998
  430loPI   C4A 6874   2.564   0.322   7.713  0.0929  0.0155 -0.2212
  430loPI   C5A 6875   3.026   0.178   7.562  0.0747 -0.1923  0.0558
  430loPI   C6A 6876   3.437   0.120   7.432 -0.1429  0.2658  0.2024
  430loPI   C1B 6877   1.958   0.734   8.663 -0.1385 -0.2647  0.0983
  430loPI   C2B 6878   2.300   0.870   8.338 -0.0865  0.0148  0.3154
  430loPI   C3B 6879   2.575   0.876   8.029  0.0026 -0.2313  0.1456
  430loPI   C4B 6880   2.849   0.859   7.627 -0.0648 -0.3082 -0.0957
  431loPI    C1 6881   9.155   2.517  10.026 -0.0460 -0.0888 -0.1464
  431loPI    C2 6882   9.095   2.396  10.402  0.0301  0.0928 -0.0743
  431loPI    C3 6883   9.325   2.714  10.329 -0.0732  0.1247 -0.2678
  431loPI   PO4 6884   9.218   2.320   9.847  0.1533 -0.0624  0.1534
  431loPI   GL1 6885   9.029   2.223   9.437 -0.1425  0.0382 -0.0031
  431loPI   GL2 6886   9.191   2.001   9.187 -0.0920  0.3585  0.0573
  431loPI   C1A 6887   9.134   2.455   8.966  0.0688  0.1993 -0.0893
  431loPI   C2A 6888   9.073   2.415   8.536  0.0456 -0.0803  0.0997
  431loPI   C3A 6889   9.141   2.386   8.046  0.1600 -0.0005 -0.2941
  431loPI   C4A 6890   9.189   2.340   7.615 -0.6309  0.0796  0.3247
  431loPI   C5A 6891   9.564   1.976   7.481  0.0693 -0.1474 -0.1032
  431loPI   C6A 6892  10.023   2.094   7.473 -0.3409 -0.2064 -0.2581
  431loPI   C1B 6893   9.244   1.990   8.760 -0.1444 -0.2385 -0.0883
  431loPI   C2B 6894   9.314   2.009   8.332  0.2530 -0.6974  0.0922
  431loPI   C3B 6895   9.289   1.913   7.877  0.2648  0.3414  0.0327
  431loPI   C4B 6896   9.176   1.720   7.499 -0.2517  0.0527 -0.1664
  432loPI    C1 6897   3.581   7.143   9.768 -0.0704  0.0578 -0.2099
  432loPI    C2 6898   3.390   7.469   9.901 -0.2645 -0.2215  0.2167
  432loPI    C3 6899   3.783   7.428   9.964 -0.1857  0.0489 -0.0759
  432loPI   PO4 6900   3.506   7.242   9.448 -0.0047  0.2992 -0.4242
  432loPI   GL1 6901   3.321   7.280   9.115  0.5545 -0.0618 -0.0566
  432loPI   GL2 6902   2.868   7.317   9.070  0.0388 -0.0505  0.1780
  432loPI   C1A 6903   3.119   6.878   8.862  0.1748 -0.1062 -0.0225
  432loPI   C2A 6904   3.232   6.844   8.469 -0.1529  0.0416  0.1343
  432loPI   C3A 6905   3.330   6.815   8.042 -0.0984 -0.3303  0.0438
  432loPI   C4A 6906   3.312   6.958   7.642  0.0481  0.0655 -0.1167
  432loPI   C5A 6907   3.520   7.100   7.304 -0.1169 -0.0052 -0.0368
  432loPI   C6A 6908   3.945   6.992   7.370  0.4891 -0.1542  0.2599
  432loPI   C1B 6909   2.936   7.418   8.672 -0.0253  0.2927 -0.0717
  432loPI   C2B 6910   2.808   7.351   8.329 -0.3170 -0.1792 -0.0424
  432loPI   C3B 6911   2.900   7.130   8.105 -0.0092 -0.3968 -0.1434
  432loPI   C4B 6912   2.674   6.990   7.741 -0.1369  0.0068  0.0350
  433loPI    C1 6913   4.434   7.604   9.816  0.0652  0.1125 -0.0574
  433loPI    C2 6914   4.149   7.736  10.063 -0.5209 -0.2601 -0.5060
  433loPI    C3 6915   4.270   7.356  10.083  0.4360  0.0394  0.1089
  433loPI   PO4 6916   4.455   7.693   9.563  0.2321  0.1649  0.1073
  433loPI   GL1 6917   4.720   7.604   9.144 -0.1442 -0.1089 -0.0123
  433loPI   GL2 6918   4.282   7.553   9.102 -0.1551 -0.3786 -0.0564
  433loPI   C1A 6919   5.039   7.623   8.849 -0.2139  0.0679  0.2470
  433loPI   C2A 6920   5.192   7.675   8.356 -0.0521 -0.3132 -0.0423
  433loPI   C3A 6921   4.963   7.728   7.945  0.1588 -0.2244 -0.0123
  433loPI   C4A 6922   4.960   8.206   7.900  0.2019 -0.1629  0.5052
  433loPI   C5A 6923   5.086   8.497   7.552 -0.3901 -0.1523  0.2823
  433loPI   C6A 6924   5.401   8.811   7.404 -0.0931  0.2504 -0.0826
  433loPI   C1B 6925   4.072   7.691   8.621  0.2847 -0.1696 -0.0446
  433loPI   C2B 6926   3.889   7.708   8.210 -0.0736  0.0506 -0.0877
  433loPI   C3B 6927   3.769   7.655   7.874  0.1113 -0.0678 -0.1415
  433loPI   C4B 6928   3.595   7.561   7.470 -0.4578 -0.0097 -0.3946
  434loPI    C1 6929  13.862  12.533  10.027  0.0891  0.0726  0.0281
  434loPI    C2 6930  13.827  12.231  10.287 -0.2458  0.0704 -0.0156
  434loPI    C3 6931  13.631  12.574  10.351  0.2192  0.3239  0.0912
  434loPI   PO4 6932  13.847  12.452   9.817 -0.2309  0.2975  0.1411
  434loPI   GL1 6933  13.743  12.651   9.390  0.0074  0.3626  0.5333
  434loPI   GL2 6934  13.733  12.960   9.314 -0.0808  0.2809 -0.1787
  434loPI   C1A 6935  13.671  12.543   8.992  0.0664 -0.0987 -0.1526
  434loPI   C2A 6936  13.319  12.662   8.739  0.0755  0.1968  0.1163
  434loPI   C3A 6937  13.038  12.925   8.380  0.1543 -0.1572 -0.1027
  434loPI   C4A 6938  12.952  12.843   8.008  0.1189 -0.0248 -0.1992
  434loPI   C5A 6939  13.290  12.729   7.674  0.2995 -0.0563  0.2628
  434loPI   C6A 6940  13.378  12.646   7.159 -0.1794  0.1759 -0.2784
  434loPI   C1B 6941  13.894  13.054   8.878  0.2125 -0.2978  0.1672
  434loPI   C2B 6942  13.894  12.755   8.559 -0.1507 -0.2477  0.0841
  434loPI   C3B 6943  14.128  12.566   8.242  0.0031 -0.1244  0.1789
  434loPI   C4B 6944  14.251  12.327   7.923 -0.0306 -0.1389 -0.2037
  435loPI    C1 6945   4.344  15.449   9.910  0.0893 -0.0234 -0.1581
  435loPI    C2 6946   4.640  15.686  10.039  0.1679 -0.1721 -0.0628
  435loPI    C3 6947   4.541  15.358  10.246  0.0062 -0.1802 -0.1509
  435loPI   PO4 6948   4.325  15.447   9.670 -0.2001 -0.1373 -0.1271
  435loPI   GL1 6949   4.164  15.582   9.237  0.0027 -0.1492 -0.0263
  435loPI   GL2 6950   3.924  15.534   9.199  0.2586 -0.0479 -0.0766
  435loPI   C1A 6951   4.395  15.655   8.883 -0.0222  0.3095  0.1499
  435loPI   C2A 6952   4.464  15.723   8.498  0.3523 -0.0535  0.2400
  435loPI   C3A 6953   4.590  15.511   8.099  0.3899  0.0062 -0.3119
  435loPI   C4A 6954   4.697  15.402   7.712 -0.0716  0.2011 -0.1920
  435loPI   C5A 6955   4.699  15.012   7.542 -0.2174  0.1189  0.0129
  435loPI   C6A 6956   4.479  14.995   7.222  0.1528  0.2675 -0.3776
  435loPI   C1B 6957   3.899  15.515   8.764  0.0856 -0.0279 -0.0873
  435loPI   C2B 6958   3.824  15.707   8.437 -0.1874 -0.0357 -0.1165
  435loPI   C3B 6959   3.620  16.002   8.239  0.1344 -0.1456  0.1840
  435loPI   C4B 6960   3.624  16.051   7.812  0.0045 -0.0062 -0.2390
  436loPI    C1 6961  16.690  18.163  10.074 -0.0171  0.1518 -0.1158
  436loPI    C2 6962  16.562  17.938  10.379 -0.0863  0.1444 -0.1502
  436loPI    C3 6963  16.928  18.099  10.389 -0.0162 -0.0134 -0.1495
  436loPI   PO4 6964  16.531  18.014   9.865 -0.2210 -0.1232  0.2817
  436loPI   GL1 6965  16.522  18.126   9.462 -0.0470  0.1091  0.2573
  436loPI   GL2 6966  16.754  17.902   9.392  0.2239  0.0066  0.0972
  436loPI   C1A 6967  16.407  18.339   9.088  0.2278  0.2456 -0.0424
  436loPI   C2A 6968  16.435  18.394   8.705 -0.1309 -0.0954 -0.0353
  436loPI   C3A 6969  16.367  18.391   8.315  0.1958  0.2564  0.0389
  436loPI   C4A 6970  16.648  18.398   8.020  0.1748  0.0659  0.0203
  436loPI   C5A 6971  16.887  18.172   7.779 -0.0513 -0.0556 -0.2756
  436loPI   C6A 6972  17.165  18.003   7.469  0.2375  0.0872  0.2203
  436loPI   C1B 6973  16.800  18.036   8.965  0.0896  0.1741 -0.0322
  436loPI   C2B 6974  16.707  18.015   8.502  0.1717  0.0418  0.2782
  436loPI   C3B 6975  16.997  17.883   8.171 -0.1956  0.3896 -0.3437
  436loPI   C4B 6976  17.188  17.698   7.834  0.3103  0.3793 -0.0256
  437loPI    C1 6977   2.967   2.370   9.382  0.2141 -0.2740  0.0260
  437loPI    C2 6978   3.321   2.556   9.370  0.0545  0.0468  0.1627
  437loPI    C3 6979   3.137   2.500   9.720 -0.0683 -0.0460  0.0843
  437loPI   PO4 6980   2.846   2.569   9.218 -0.0851 -0.1843  0.3078
  437loPI   GL1 6981   2.789   2.573   8.854  0.1403 -0.0394 -0.2192
  437loPI   GL2 6982   2.707   2.912   8.859  0.0759  0.1432  0.0154
  437loPI   C1A 6983   2.865   2.569   8.444  0.1631  0.0681 -0.0722
  437loPI   C2A 6984   2.875   2.595   8.014 -0.2060 -0.0327 -0.0387
  437loPI   C3A 6985   2.719   2.515   7.629  0.1886 -0.0497  0.2439
  437loPI   C4A 6986   2.703   2.669   7.290  0.0092  0.0608 -0.0099
  437loPI   C5A 6987   2.867   3.026   7.213 -0.1345 -0.2787  0.2049
  437loPI   C6A 6988   3.240   3.315   7.219 -0.0168 -0.0304 -0.1188
  437loPI   C1B 6989   2.641   2.992   8.495 -0.2148  0.1282 -0.0594
  437loPI   C2B 6990   2.453   2.672   8.195 -0.1105 -0.0216  0.5425
  437loPI   C3B 6991   2.314   2.534   7.866 -0.0958 -0.2420  0.2669
  437loPI   C4B 6992   2.190   2.613   7.452 -0.0075  0.1092 -0.1024
  438loPI    C1 6993  12.595   4.638  10.411  0.3803 -0.2387  0.1123
  438loPI    C2 6994  12.484   5.000  10.541  0.1046 -0.3105  0.0824
  438loPI    C3 6995  12.853   4.866  10.615  0.2899  0.0749 -0.1148
  438loPI   PO4 6996  12.493   4.570  10.209  0.0157  0.0836  0.1411
  438loPI   GL1 6997  12.573   4.571   9.743  0.5526 -0.0268 -0.2861
  438loPI   GL2 6998  12.246   4.506   9.786  0.0440 -0.0130  0.0353
  438loPI   C1A 6999  12.558   4.450   9.274  0.0820 -0.2039 -0.0831
  438loPI   C2A 7000  12.650   4.493   8.865  0.1164 -0.2247  0.2583
  438loPI   C3A 7001  12.807   4.532   8.544  0.1164 -0.0804  0.0448
  438loPI   C4A 7002  12.806   4.446   8.069 -0.3500  0.1082  0.0795
  438loPI   C5A 7003  12.906   4.249   7.778  0.0672 -0.1107 -0.3125
  438loPI   C6A 7004  12.721   4.018   7.397 -0.1559 -0.1220 -0.1509
  438loPI   C1B 7005  11.903   4.710   9.430 -0.0209 -0.2318  0.1292
  438loPI   C2B 7006  11.835   5.074   9.242  0.0206  0.3091 -0.1357
  438loPI   C3B 7007  11.961   5.391   8.939 -0.1673  0.1124 -0.1596
  438loPI   C4B 7008  11.875   5.503   8.625 -0.0733 -0.0631  0.1314
  439loPI    C1 7009  18.827  14.284  10.169  0.1386 -0.0909 -0.0122
  439loPI    C2 7010  18.859  14.597  10.417  0.2988 -0.1550  0.0495
  439loPI    C3 7011  18.602  14.302  10.500 -0.0248  0.0703 -0.1298
  439loPI   PO4 7012  18.909  14.399   9.818  0.1954  0.1705  0.1465
  439loPI   GL1 7013  18.871  14.466   9.411  0.1520  0.0201  0.0246
  439loPI   GL2 7014  18.583  14.413   9.351  0.0268  0.0068  0.1250
  439loPI   C1A 7015  19.054  14.501   8.993 -0.0007  0.1896 -0.3584
  439loPI   C2A 7016  19.039  14.396   8.599  0.3481 -0.0676 -0.1671
  439loPI   C3A 7017  19.064  14.505   8.222 -0.1994  0.0214 -0.1000
  439loPI   C4A 7018  19.105  14.368   7.803  0.0471  0.1216 -0.2199
  439loPI   C5A 7019  19.190  14.695   7.581  0.0061  0.3127  0.2177
  439loPI   C6A 7020  18.801  14.685   7.317  0.1218  0.2816  0.1938
  439loPI   C1B 7021  18.578  14.340   8.911  0.2314  0.2293  0.1070
  439loPI   C2B 7022  18.568  14.283   8.487 -0.0152 -0.0866  0.2660
  439loPI   C3B 7023  18.665  14.250   8.066  0.1803  0.1605  0.4803
  439loPI   C4B 7024  18.545  14.032   7.704  0.2000 -0.0692 -0.2720
  440loPI    C1 7025  18.215   6.624   9.476 -0.0655 -0.1969  0.1165
  440loPI    C2 7026  18.420   6.502   9.797  0.1270  0.0315  0.0825
  440loPI    C3 7027  18.615   6.627   9.471 -0.0662 -0.2885 -0.1611
  440loPI   PO4 7028  18.013   6.390   9.493 -0.3327  0.0724 -0.0480
  440loPI   GL1 7029  17.592   6.163   9.482  0.1803 -0.3682 -0.2377
  440loPI   GL2 7030  17.536   5.876   9.480  0.1978  0.0820  0.0822
  440loPI   C1A 7031  17.552   6.146   9.001 -0.1132 -0.0479 -0.0349
  440loPI   C2A 7032  17.540   5.856   8.679 -0.0363 -0.1310 -0.0027
  440loPI   C3A 7033  17.294   5.876   8.245  0.2673 -0.0639 -0.2292
  440loPI   C4A 7034  16.978   5.787   7.859  0.1878  0.1339  0.1832
  440loPI   C5A 7035  16.976   5.931   7.400  0.1552  0.3269 -0.0498
  440loPI   C6A 7036  17.023   6.231   7.169  0.0590 -0.0078 -0.4379
  440loPI   C1B 7037  17.721   5.582   9.168  0.0393 -0.2040 -0.2525
  440loPI   C2B 7038  17.737   5.353   8.781  0.2312  0.0678  0.1709
  440loPI   C3B 7039  18.080   5.023   8.770 -0.1357 -0.1785 -0.1850
  440loPI   C4B 7040  18.349   4.767   8.656  0.3445 -0.1355 -0.0063
  441loPI    C1 7041  13.359   6.574  10.233 -0.1577  0.0775 -0.1174
  441loPI    C2 7042  13.163   6.245  10.349 -0.0250 -0.0044 -0.1234
  441loPI    C3 7043  13.069   6.600  10.508 -0.3498 -0.0031 -0.3099
  441loPI   PO4 7044  13.269   6.587   9.930  0.2058 -0.0172  0.3616
  441loPI   GL1 7045  13.196   6.358   9.577  0.0574 -0.1409  0.1905
  441loPI   GL2 7046  13.495   6.248   9.423 -0.2465 -0.1776 -0.1881
  441loPI   C1A 7047  13.046   6.344   9.208 -0.0590 -0.1909 -0.1630
  441loPI   C2A 7048  12.987   6.556   8.905  0.4646  0.1609  0.1887
  441loPI   C3A 7049  12.882   6.483   8.419 -0.3241  0.0211 -0.1660
  441loPI   C4A 7050  12.839   6.355   8.012  0.0522 -0.1118  0.1535
  441loPI   C5A 7051  12.641   6.265   7.603 -0.1762  0.0525  0.0326
  441loPI   C6A 7052  12.605   5.813   7.140 -0.3194 -0.0150  0.0428
  441loPI   C1B 7053  13.490   6.274   8.975 -0.2688  0.0660 -0.2739
  441loPI   C2B 7054  13.485   6.204   8.532 -0.0153 -0.1411  0.1393
  441loPI   C3B 7055  13.373   6.386   8.199  0.0347 -0.2157 -0.0955
  441loPI   C4B 7056  13.160   6.534   7.686 -0.3281  0.0708 -0.4249
  442loPI    C1 7057   0.615  18.266   9.584  0.2081 -0.1553 -0.1148
  442loPI    C2 7058   0.504  18.148   9.950 -0.0754  0.0049 -0.1459
  442loPI    C3 7059   0.556  17.878   9.659 -0.1087 -0.0984 -0.0562
  442loPI   PO4 7060   0.754  18.416   9.619  0.0491 -0.0224 -0.1135
  442loPI   GL1 7061   1.031  18.417   9.256 -0.0632  0.0028 -0.2381
  442loPI   GL2 7062   1.427  18.441   9.247  0.2561  0.1062  0.2456
  442loPI   C1A 7063   1.137  18.375   8.840  0.0633 -0.0553  0.1616
  442loPI   C2A 7064   1.143  18.480   8.365 -0.0882  0.1342 -0.0322
  442loPI   C3A 7065   0.968  18.519   7.962  0.1374 -0.2545 -0.2953
  442loPI   C4A 7066   0.743  18.559   7.560 -0.2205 -0.0405  0.0758
  442loPI   C5A 7067   0.359  18.337   7.283  0.1586 -0.2889 -0.1448
  442loPI   C6A 7068   0.379  18.248   6.882 -0.0050 -0.1966 -0.1037
  442loPI   C1B 7069   1.640  18.342   8.875  0.1596  0.1003 -0.4295
  442loPI   C2B 7070   1.790  17.969   8.744  0.2763  0.2234 -0.0589
  442loPI   C3B 7071   1.682  17.591   8.940 -0.0393 -0.0718 -0.1212
  442loPI   C4B 7072   1.767  17.135   9.062  0.0334 -0.2193  0.0556
  443loPI    C1 7073   5.345   2.197   9.563  0.2464 -0.1885  0.1881
  443loPI    C2 7074   5.551   2.524   9.462  0.0319 -0.1763 -0.2314
  443loPI    C3 7075   5.712   2.255   9.711  0.2111  0.2419  0.1178
  443loPI   PO4 7076   5.321   2.040   9.410  0.1029 -0.4936 -0.1477
  443loPI   GL1 7077   5.495   1.862   9.041 -0.0917  0.1667  0.2435
  443loPI   GL2 7078   5.706   2.139   9.126 -0.2538  0.2294 -0.0136
  443loPI   C1A 7079   5.402   1.828   8.619  0.0060 -0.0524 -0.1447
  443loPI   C2A 7080   5.604   1.843   8.241  0.3959 -0.2279 -0.2573
  443loPI   C3A 7081   5.446   1.868   7.859  0.1119  0.0050 -0.1108
  443loPI   C4A 7082   5.434   1.681   7.451 -0.0466 -0.0016 -0.0093
  443loPI   C5A 7083   5.570   1.627   6.946  0.1979 -0.0168  0.0168
  443loPI   C6A 7084   5.492   1.463   6.409 -0.0410 -0.0944  0.0264
  443loPI   C1B 7085   5.829   2.156   8.765  0.0515  0.0964 -0.0869
  443loPI   C2B 7086   6.045   2.077   8.400 -0.2092 -0.1715 -0.2165
  443loPI   C3B 7087   5.881   2.121   7.979 -0.2644  0.1048 -0.0443
  443loPI   C4B 7088   5.947   2.285   7.525 -0.1268  0.0545 -0.0750
  444loPI    C1 7089  10.644  18.029   9.691 -0.0031  0.0558 -0.0504
  444loPI    C2 7090  10.789  18.135  10.049 -0.1128 -0.1304  0.0506
  444loPI    C3 7091  10.398  18.172   9.971 -0.1144 -0.2374  0.0048
  444loPI   PO4 7092  10.728  17.811   9.668 -0.0739 -0.2751 -0.3942
  444loPI   GL1 7093  10.582  17.559   9.301  0.1198 -0.2706  0.1204
  444loPI   GL2 7094  10.195  17.501   9.225  0.1627  0.0387 -0.1507
  444loPI   C1A 7095  10.683  17.476   8.888  0.2736 -0.3789  0.0814
  444loPI   C2A 7096  10.708  17.177   8.467  0.1489  0.1013 -0.3374
  444loPI   C3A 7097  10.850  17.308   8.133 -0.0479  0.0257  0.1904
  444loPI   C4A 7098  10.740  17.297   7.714  0.0727  0.0982 -0.1888
  444loPI   C5A 7099  10.781  17.467   7.329 -0.0092  0.0464 -0.1545
  444loPI   C6A 7100  11.077  17.762   6.962 -0.1476 -0.2052 -0.3094
  444loPI   C1B 7101  10.260  17.698   8.751  0.0724  0.3425 -0.1568
  444loPI   C2B 7102  10.366  17.507   8.320  0.0546 -0.1677 -0.1215
  444loPI   C3B 7103  10.369  17.488   8.016 -0.3345  0.1137 -0.0168
  444loPI   C4B 7104  10.277  17.506   7.541  0.0346  0.1722 -0.1266
  445loPI    C1 7105   7.580  13.961   9.936 -0.0414  0.0333  0.1001
  445loPI    C2 7106   7.605  13.991  10.334 -0.0146  0.1694  0.0886
  445loPI    C3 7107   7.263  13.874  10.164 -0.0231  0.1013  0.1521
  445loPI   PO4 7108   7.607  14.225   9.771 -0.0961  0.1527  0.1551
  445loPI   GL1 7109   7.593  13.982   9.379  0.1936 -0.1366 -0.0188
  445loPI   GL2 7110   7.529  14.283   9.261 -0.0089  0.0330 -0.0260
  445loPI   C1A 7111   7.448  13.874   8.940 -0.0610  0.0842 -0.0976
  445loPI   C2A 7112   7.306  13.687   8.536  0.1006  0.1100 -0.6289
  445loPI   C3A 7113   7.187  13.829   8.110  0.2164 -0.1611  0.1835
  445loPI   C4A 7114   7.107  13.848   7.617 -0.2200  0.2444  0.0034
  445loPI   C5A 7115   7.060  13.814   7.250  0.0678  0.0907  0.1374
  445loPI   C6A 7116   6.936  13.626   6.849 -0.4569 -0.1669  0.0748
  445loPI   C1B 7117   7.434  14.365   8.849  0.0983  0.1591 -0.0940
  445loPI   C2B 7118   7.567  14.183   8.546  0.1124  0.0034 -0.0405
  445loPI   C3B 7119   7.412  14.345   8.108 -0.4791  0.1326 -0.2825
  445loPI   C4B 7120   7.538  14.146   7.830  0.0273  0.2615 -0.2086
  446loPI    C1 7121  18.217  14.817  10.023  0.0202 -0.0461  0.1587
  446loPI    C2 7122  18.379  14.762  10.385  0.2156  0.1108  0.0971
  446loPI    C3 7123  18.331  15.132  10.242  0.3483  0.0422 -0.1298
  446loPI   PO4 7124  18.000  14.601  10.109 -0.2048  0.0425  0.2878
  446loPI   GL1 7125  17.868  14.396   9.649 -0.0965  0.1414 -0.0406
  446loPI   GL2 7126  18.014  14.655   9.500 -0.1434  0.0034  0.1991
  446loPI   C1A 7127  18.097  14.205   9.322  0.0934  0.0070 -0.1416
  446loPI   C2A 7128  17.979  14.163   8.940 -0.0719  0.1282 -0.0536
  446loPI   C3A 7129  18.057  14.131   8.507  0.0277 -0.2292 -0.2672
  446loPI   C4A 7130  18.069  13.991   8.103 -0.2485 -0.1128  0.0641
  446loPI   C5A 7131  18.000  13.925   7.636 -0.1781 -0.1383  0.1909
  446loPI   C6A 7132  17.830  14.354   7.430  0.1048 -0.1441 -0.1216
  446loPI   C1B 7133  18.240  14.696   9.121 -0.0389  0.0045  0.0531
  446loPI   C2B 7134  18.213  14.591   8.674 -0.1434 -0.0166  0.2304
  446loPI   C3B 7135  18.125  14.583   8.209  0.1482 -0.1691  0.0668
  446loPI   C4B 7136  18.193  14.386   7.807  0.1705  0.3478 -0.3758
  447loPI    C1 7137  13.968   5.032  10.045  0.0783 -0.2259  0.0777
  447loPI    C2 7138  14.355   5.092   9.961  0.0384 -0.1501 -0.0543
  447loPI    C3 7139  14.173   5.319  10.235  0.0625 -0.1203 -0.0628
  447loPI   PO4 7140  13.938   5.022   9.747  0.3935 -0.2090  0.0282
  447loPI   GL1 7141  14.020   4.784   9.374 -0.1500  0.5307 -0.1561
  447loPI   GL2 7142  14.248   5.025   9.428 -0.1790  0.2277  0.2847
  447loPI   C1A 7143  13.815   4.666   8.989  0.1502  0.0152  0.0962
  447loPI   C2A 7144  13.731   4.407   8.665 -0.2972  0.1490 -0.1819
  447loPI   C3A 7145  13.771   4.504   8.295 -0.1383  0.1715  0.0567
  447loPI   C4A 7146  13.727   4.076   8.054 -0.2413  0.0948 -0.0456
  447loPI   C5A 7147  13.434   4.058   7.699 -0.1928  0.3483  0.0489
  447loPI   C6A 7148  13.250   4.435   7.463 -0.1208 -0.0504  0.0477
  447loPI   C1B 7149  14.202   5.030   9.003  0.5191 -0.3328  0.2645
  447loPI   C2B 7150  14.152   4.842   8.624  0.1714 -0.0191  0.1215
  447loPI   C3B 7151  13.986   4.947   8.298  0.0186 -0.1351  0.4010
  447loPI   C4B 7152  13.532   4.914   8.078  0.1762  0.0561  0.1969
  448loPI    C1 7153   3.476   1.123   9.889 -0.0805  0.0183 -0.0736
  448loPI    C2 7154   3.329   1.193  10.255 -0.0401 -0.3702  0.0206
  448loPI    C3 7155   3.491   1.492  10.044 -0.4403 -0.0556  0.1473
  448loPI   PO4 7156   3.642   0.871   9.853  0.2119  0.1424  0.1503
  448loPI   GL1 7157   3.731   0.814   9.400  0.2395 -0.0667 -0.2161
  448loPI   GL2 7158   3.481   1.106   9.339  0.2812  0.0739 -0.0570
  448loPI   C1A 7159   3.567   0.543   9.019 -0.1022  0.4271 -0.2792
  448loPI   C2A 7160   3.604   0.186   8.801  0.1758 -0.3228 -0.1780
  448loPI   C3A 7161   3.590  -0.158   8.719  0.0075  0.0592 -0.3125
  448loPI   C4A 7162   3.410  -0.389   8.441  0.5818  0.0059  0.0256
  448loPI   C5A 7163   3.369  -0.496   8.089  0.1943  0.0258 -0.1212
  448loPI   C6A 7164   3.303  -0.314   7.711  0.0501 -0.0003  0.0152
  448loPI   C1B 7165   3.313   1.070   8.929 -0.2008 -0.2110 -0.4004
  448loPI   C2B 7166   3.374   1.262   8.529 -0.1432 -0.1306 -0.0710
  448loPI   C3B 7167   3.359   1.411   8.093  0.2606  0.1054  0.0692
  448loPI   C4B 7168   3.169   1.739   7.745 -0.0978  0.3122  0.3780
  449loPI    C1 7169  13.491   4.298  10.224  0.0727 -0.1765  0.0010
  449loPI    C2 7170  13.148   4.220  10.413  0.0976  0.0650  0.1502
  449loPI    C3 7171  13.471   3.996  10.485  0.0095 -0.0746  0.1151
  449loPI   PO4 7172  13.380   4.222   9.967  0.2641 -0.1304 -0.1576
  449loPI   GL1 7173  13.384   3.932   9.684 -0.2257 -0.1669 -0.2303
  449loPI   GL2 7174  13.431   4.258   9.479 -0.0673  0.1197 -0.1294
  449loPI   C1A 7175  13.301   3.810   9.239 -0.0152 -0.1197 -0.0631
  449loPI   C2A 7176  13.253   3.501   8.917 -0.0975  0.1121 -0.2580
  449loPI   C3A 7177  13.405   3.435   8.462  0.0201  0.0413  0.1066
  449loPI   C4A 7178  13.608   3.566   8.050  0.1715  0.0386  0.0970
  449loPI   C5A 7179  13.820   3.740   7.690 -0.2778  0.4869 -0.0348
  449loPI   C6A 7180  14.036   4.037   7.509  0.0740  0.0208 -0.2461
  449loPI   C1B 7181  13.393   4.305   9.082  0.1110  0.1749  0.1301
  449loPI   C2B 7182  13.234   4.298   8.646 -0.0388  0.3956  0.0997
  449loPI   C3B 7183  13.273   4.439   8.280 -0.0522  0.0254 -0.2606
  449loPI   C4B 7184  13.337   4.456   7.961  0.7205  0.1048 -0.0904
  450loPI    C1 7185  11.228  15.929  10.026  0.2714 -0.2959  0.0024
  450loPI    C2 7186  11.092  15.553   9.998 -0.1760 -0.1461  0.0836
  450loPI    C3 7187  10.835  15.858  10.028  0.1777  0.1836 -0.1283
  450loPI   PO4 7188  11.431  15.926   9.868  0.0694 -0.3274  0.0407
  450loPI   GL1 7189  11.402  15.753   9.518  0.0022  0.1578 -0.0274
  450loPI   GL2 7190  11.646  15.869   9.316 -0.2434  0.1830  0.0532
  450loPI   C1A 7191  11.187  15.847   9.086  0.2982  0.0265 -0.1973
  450loPI   C2A 7192  11.100  15.886   8.591 -0.1202  0.3401 -0.2155
  450loPI   C3A 7193  11.158  15.879   8.220  0.0774 -0.2462  0.2602
  450loPI   C4A 7194  11.158  15.861   7.795 -0.1282 -0.0473 -0.1487
  450loPI   C5A 7195  10.868  15.795   7.468  0.1963 -0.1728  0.1607
  450loPI   C6A 7196  10.479  16.014   7.451  0.1415  0.0848 -0.0425
  450loPI   C1B 7197  11.614  15.688   8.954 -0.0116  0.2673 -0.1473
  450loPI   C2B 7198  11.408  15.461   8.597  0.0332 -0.1681 -0.1304
  450loPI   C3B 7199  11.504  15.395   8.123  0.0758  0.0405  0.0706
  450loPI   C4B 7200  11.426  15.432   7.614 -0.2617 -0.0996  0.1404
  451loPI    C1 7201   9.636   7.697  10.326 -0.3516 -0.0829 -0.0628
  451loPI    C2 7202   9.746   7.411  10.583  0.4101  0.0577 -0.2086
  451loPI    C3 7203   9.502   7.704  10.703  0.1600 -0.2799  0.1316
  451loPI   PO4 7204   9.886   7.677  10.194 -0.1475 -0.1712  0.0020
  451loPI   GL1 7205  10.163   7.747   9.754 -0.0905  0.1065 -0.1236
  451loPI   GL2 7206  10.323   7.337   9.794 -0.1482  0.4084 -0.2694
  451loPI   C1A 7207   9.995   7.546   9.390  0.1662 -0.1946  0.0123
  451loPI   C2A 7208  10.090   7.306   9.001 -0.1043  0.1699  0.0063
  451loPI   C3A 7209  10.117   7.103   8.559  0.2370  0.2862  0.0537
  451loPI   C4A 7210  10.037   7.251   8.093  0.3986 -0.1281 -0.0161
  451loPI   C5A 7211  10.302   7.359   7.720  0.2677  0.1865 -0.0451
  451loPI   C6A 7212  10.271   7.543   7.385 -0.1205  0.0618 -0.1337
  451loPI   C1B 7213  10.412   7.250   9.385  0.1037 -0.3879 -0.0546
  451loPI   C2B 7214  10.525   7.025   9.080  0.5188  0.1408 -0.0192
  451loPI   C3B 7215  10.632   6.954   8.598  0.3811  0.0920  0.3427
  451loPI   C4B 7216  10.530   7.039   8.188 -0.1503 -0.0220 -0.1312
  452loPI    C1 7217  12.356   6.833  10.293 -0.0111  0.0774 -0.1764
  452loPI    C2 7218  12.632   6.818  10.583 -0.0296 -0.0799 -0.1658
  452loPI    C3 7219  12.255   6.711  10.660 -0.0660  0.0125 -0.2129
  452loPI   PO4 7220  12.504   6.859  10.097  0.0452  0.1242  0.2724
  452loPI   GL1 7221  12.470   7.001   9.772 -0.0863  0.0812  0.2748
  452loPI   GL2 7222  12.602   6.640   9.619  0.0462 -0.3859  0.1361
  452loPI   C1A 7223  12.199   7.339   9.696 -0.0302 -0.0002 -0.0269
  452loPI   C2A 7224  12.039   7.455   9.336 -0.0302  0.4512  0.0918
  452loPI   C3A 7225  11.896   7.529   8.867  0.0471 -0.1029 -0.1242
  452loPI   C4A 7226  12.016   7.360   8.415 -0.0037  0.0138  0.0757
  452loPI   C5A 7227  12.074   7.529   7.974 -0.1160 -0.0884  0.2780
  452loPI   C6A 7228  12.479   7.450   7.749 -0.0380  0.1180  0.1099
  452loPI   C1B 7229  12.262   6.853   9.362 -0.1325  0.0688 -0.0381
  452loPI   C2B 7230  12.221   7.001   8.947  0.2181 -0.0136 -0.0702
  452loPI   C3B 7231  12.171   6.848   8.503  0.0093 -0.0938 -0.1048
  452loPI   C4B 7232  12.097   6.920   8.001 -0.0200  0.1957 -0.1435
  453loPI    C1 7233   6.157   9.852  10.291 -0.2405  0.2333 -0.1408
  453loPI    C2 7234   5.933   9.828  10.622  0.0647  0.3340  0.0769
  453loPI    C3 7235   6.330   9.869  10.651  0.1422 -0.0708 -0.3035
  453loPI   PO4 7236   6.048  10.062  10.189  0.0391  0.1817  0.2672
  453loPI   GL1 7237   5.775  10.303   9.852  0.0026 -0.0023 -0.0834
  453loPI   GL2 7238   6.004  10.463   9.769  0.0025 -0.2351 -0.1189
  453loPI   C1A 7239   5.717  10.128   9.414 -0.1248  0.0376 -0.0511
  453loPI   C2A 7240   5.691  10.053   8.978  0.0371  0.0608  0.3042
  453loPI   C3A 7241   5.612  10.090   8.610 -0.1393 -0.1609 -0.1923
  453loPI   C4A 7242   5.835  10.227   8.256 -0.0095 -0.0958 -0.0684
  453loPI   C5A 7243   5.963  10.164   7.895 -0.1969 -0.1668  0.2568
  453loPI   C6A 7244   6.179  10.396   7.566 -0.0147 -0.1136 -0.0067
  453loPI   C1B 7245   5.981  10.491   9.326 -0.2800  0.2776  0.2976
  453loPI   C2B 7246   5.862  10.532   9.016  0.0039  0.0539 -0.2496
  453loPI   C3B 7247   5.944  10.488   8.640  0.2365 -0.0644 -0.2933
  453loPI   C4B 7248   6.353  10.301   8.426  0.1995  0.0796  0.0813
  454loPI    C1 7249   4.004   3.580   9.609  0.0308 -0.1495  0.0552
  454loPI    C2 7250   4.016   3.974   9.541 -0.1137 -0.1713 -0.1042
  454loPI    C3 7251   4.256   3.811   9.817  0.0131  0.0143 -0.1028
  454loPI   PO4 7252   3.967   3.490   9.381 -0.2452  0.1537 -0.1053
  454loPI   GL1 7253   3.770   3.861   9.011  0.0425  0.0544 -0.0918
  454loPI   GL2 7254   3.988   4.219   9.124 -0.1248 -0.1946  0.3700
  454loPI   C1A 7255   3.650   3.991   8.550 -0.1030  0.1015  0.1859
  454loPI   C2A 7256   3.633   3.859   8.209  0.0840 -0.0846  0.0683
  454loPI   C3A 7257   3.867   3.567   8.040 -0.0969 -0.1127  0.0691
  454loPI   C4A 7258   4.030   3.499   7.542 -0.2383  0.1607 -0.0939
  454loPI   C5A 7259   4.186   3.640   7.121  0.1476  0.0960 -0.3845
  454loPI   C6A 7260   4.304   3.783   6.727  0.0290  0.1829 -0.1256
  454loPI   C1B 7261   4.068   4.183   8.680  0.1051  0.0469 -0.0764
  454loPI   C2B 7262   4.060   4.148   8.186  0.1176  0.0877 -0.5158
  454loPI   C3B 7263   3.959   4.072   7.789 -0.0484 -0.0671 -0.2096
  454loPI   C4B 7264   4.018   3.994   7.435  0.0026  0.4066  0.1532
  455loPI    C1 7265   3.742   5.285   9.242 -0.1469  0.1838  0.1655
  455loPI    C2 7266   3.608   5.591   9.462 -0.0227  0.2874  0.0983
  455loPI    C3 7267   3.389   5.258   9.428 -0.1041  0.3227  0.2681
  455loPI   PO4 7268   3.983   5.173   9.355  0.0119 -0.0469  0.1616
  455loPI   GL1 7269   4.129   4.736   9.157 -0.1651 -0.0165 -0.2820
  455loPI   GL2 7270   4.421   4.855   9.101 -0.1399 -0.0685  0.0456
  455loPI   C1A 7271   3.861   4.968   8.717  0.0290  0.0735  0.2313
  455loPI   C2A 7272   3.567   4.881   8.504  0.0091  0.3332  0.1942
  455loPI   C3A 7273   3.400   4.846   8.118 -0.2793  0.3287 -0.2031
  455loPI   C4A 7274   3.503   4.773   7.705  0.0211 -0.0789 -0.1470
  455loPI   C5A 7275   3.433   4.738   7.335 -0.0440 -0.1233  0.1631
  455loPI   C6A 7276   3.561   5.109   7.132 -0.2303 -0.0820  0.0130
  455loPI   C1B 7277   4.396   4.853   8.611 -0.1505 -0.0821  0.0723
  455loPI   C2B 7278   4.355   4.945   8.153  0.1136  0.0267 -0.0722
  455loPI   C3B 7279   4.302   5.327   7.800  0.0798 -0.2853 -0.0564
  455loPI   C4B 7280   4.335   5.731   7.536  0.2138 -0.0459 -0.0069
  456loPI    C1 7281  10.271  18.345   9.460 -0.1798  0.0798 -0.1528
  456loPI    C2 7282  10.370  18.015   9.257  0.0443  0.0120  0.0618
  456loPI    C3 7283  10.145  18.296   9.083  0.3045 -0.0027 -0.3117
  456loPI   PO4 7284  10.501  18.499   9.467 -0.3055  0.1626 -0.0899
  456loPI   GL1 7285  10.794  18.666   9.131 -0.1726 -0.1449 -0.0904
  456loPI   GL2 7286  10.522  18.619   8.986 -0.2061  0.1508 -0.3289
  456loPI   C1A 7287  10.978  18.368   8.751  0.1804 -0.1572 -0.1254
  456loPI   C2A 7288  10.940  18.319   8.271 -0.1970 -0.0044  0.1170
  456loPI   C3A 7289  10.969  18.261   7.858  0.0370 -0.0132  0.0567
  456loPI   C4A 7290  11.005  18.012   7.455  0.2221 -0.0044 -0.2138
  456loPI   C5A 7291  11.356  17.651   7.341  0.0698  0.0115 -0.3539
  456loPI   C6A 7292  11.653  17.718   7.020 -0.0305  0.2003  0.0767
  456loPI   C1B 7293  10.451  18.619   8.615 -0.2667 -0.0654  0.2024
  456loPI   C2B 7294  10.547  18.541   8.140 -0.2054  0.0054 -0.4349
  456loPI   C3B 7295  10.487  18.264   7.797  0.0932 -0.2689 -0.0247
  456loPI   C4B 7296  10.345  18.044   7.437  0.0326 -0.0190  0.3078
  457loPI    C1 7297  14.297  13.380   9.780 -0.0332 -0.3047 -0.1767
  457loPI    C2 7298  14.313  13.083  10.047 -0.1048  0.0248  0.2043
  457loPI    C3 7299  14.609  13.352  10.029  0.0225 -0.1357 -0.2259
  457loPI   PO4 7300  14.124  13.374   9.637  0.1973  0.0603 -0.1578
  457loPI   GL1 7301  14.143  13.452   9.093 -0.1917 -0.0547  0.0812
  457loPI   GL2 7302  14.047  13.778   9.159 -0.0736  0.1195  0.0120
  457loPI   C1A 7303  14.062  13.506   8.650 -0.0181  0.0494  0.2866
  457loPI   C2A 7304  13.858  13.280   8.385 -0.3776 -0.0732  0.1135
  457loPI   C3A 7305  13.572  13.332   8.055  0.1405  0.3257  0.0843
  457loPI   C4A 7306  13.379  13.315   7.639  0.1407  0.3089  0.1091
  457loPI   C5A 7307  13.326  13.166   7.281 -0.1848  0.0216  0.1792
  457loPI   C6A 7308  13.725  13.136   7.012  0.1775  0.0630  0.1814
  457loPI   C1B 7309  14.462  13.914   8.981  0.2639 -0.1147  0.1506
  457loPI   C2B 7310  14.583  13.945   8.696 -0.0892 -0.1590  0.1234
  457loPI   C3B 7311  14.634  13.898   8.177  0.0723 -0.1284 -0.2801
  457loPI   C4B 7312  14.908  13.843   7.891  0.0955  0.0441 -0.0191
  458loPI    C1 7313   6.414  13.565  10.293  0.1064 -0.0990  0.0602
  458loPI    C2 7314   6.351  13.202  10.450 -0.1644 -0.0088  0.1653
  458loPI    C3 7315   6.445  13.509  10.688  0.1948 -0.0342  0.0628
  458loPI   PO4 7316   6.406  13.527  10.025  0.0106 -0.1475 -0.1371
  458loPI   GL1 7317   6.500  13.388   9.681  0.0542  0.2435  0.1084
  458loPI   GL2 7318   6.843  13.559   9.703  0.0830 -0.1051 -0.0079
  458loPI   C1A 7319   6.339  13.648   9.342  0.0162  0.1395 -0.0106
  458loPI   C2A 7320   6.353  13.670   8.949 -0.2708 -0.0281  0.1684
  458loPI   C3A 7321   6.377  13.467   8.655 -0.0820 -0.0484  0.1142
  458loPI   C4A 7322   6.276  13.249   8.350 -0.1303  0.0696  0.2217
  458loPI   C5A 7323   6.320  13.109   8.003 -0.0394 -0.1010  0.2867
  458loPI   C6A 7324   6.481  13.016   7.617 -0.4001 -0.1243  0.1193
  458loPI   C1B 7325   6.803  13.565   9.215  0.1023 -0.0296  0.2060
  458loPI   C2B 7326   6.796  13.595   8.872 -0.1444  0.1322 -0.0271
  458loPI   C3B 7327   6.793  13.736   8.413  0.3199  0.0413 -0.0820
  458loPI   C4B 7328   6.689  13.495   8.059 -0.2272 -0.2054 -0.0646
  459loPI    C1 7329  13.978  15.682   9.654 -0.0045 -0.2336 -0.2559
  459loPI    C2 7330  14.334  15.513   9.726  0.0781  0.0707  0.0853
  459loPI    C3 7331  14.051  15.512  10.009 -0.1036  0.0556 -0.0935
  459loPI   PO4 7332  13.917  15.656   9.346 -0.4127 -0.0739  0.2990
  459loPI   GL1 7333  14.041  15.895   8.962  0.2396 -0.0269 -0.0839
  459loPI   GL2 7334  14.175  16.237   9.007 -0.3199 -0.0721 -0.1836
  459loPI   C1A 7335  14.048  15.682   8.565 -0.1449 -0.0278 -0.0386
  459loPI   C2A 7336  13.785  15.632   8.229 -0.0339  0.0742  0.0010
  459loPI   C3A 7337  13.658  15.429   7.813  0.0977 -0.4343 -0.0133
  459loPI   C4A 7338  13.828  15.286   7.437  0.0040 -0.2736  0.2167
  459loPI   C5A 7339  14.105  15.117   7.126  0.0957  0.0218  0.0694
  459loPI   C6A 7340  14.226  15.168   6.640  0.0310 -0.2822 -0.2141
  459loPI   C1B 7341  14.156  16.234   8.616 -0.0369 -0.0231 -0.3452
  459loPI   C2B 7342  14.070  16.354   8.356 -0.4314  0.1073  0.2958
  459loPI   C3B 7343  13.814  16.286   7.906  0.0007  0.0412  0.1823
  459loPI   C4B 7344  13.817  16.247   7.457  0.1394  0.2035 -0.0835
  460loPI    C1 7345  12.783  12.920   9.784  0.0587  0.1553 -0.0935
  460loPI    C2 7346  13.030  13.233   9.765  0.0884  0.1474  0.1325
  460loPI    C3 7347  12.687  13.262   9.968  0.0975  0.0293  0.1650
  460loPI   PO4 7348  12.785  12.868   9.512 -0.1509 -0.0581  0.0097
  460loPI   GL1 7349  12.912  12.805   9.046  0.1702 -0.1763  0.0565
  460loPI   GL2 7350  12.785  13.108   9.033 -0.3847 -0.1144 -0.0824
  460loPI   C1A 7351  12.761  12.585   8.651  0.1696 -0.0171 -0.3500
  460loPI   C2A 7352  12.882  12.424   8.283  0.0413  0.3264  0.0168
  460loPI   C3A 7353  12.706  12.386   7.850  0.1351  0.0173 -0.3566
  460loPI   C4A 7354  12.815  12.566   7.477  0.2254 -0.1159 -0.1328
  460loPI   C5A 7355  12.933  12.803   7.135 -0.0153 -0.2768  0.0701
  460loPI   C6A 7356  12.515  12.972   6.950 -0.1396  0.0328 -0.0255
  460loPI   C1B 7357  12.619  13.062   8.650  0.0529 -0.1143  0.4111
  460loPI   C2B 7358  12.447  13.102   8.188 -0.0338 -0.0697 -0.1359
  460loPI   C3B 7359  12.396  13.302   7.738  0.0176  0.5571  0.3034
  460loPI   C4B 7360  12.610  13.406   7.328 -0.0499 -0.1447 -0.0552
  461loPI    C1 7361  17.809   7.191   9.725  0.2436 -0.0262 -0.1439
  461loPI    C2 7362  18.052   7.390   9.973 -0.1278  0.1907  0.0552
  461loPI    C3 7363  17.931   7.020  10.066 -0.0729  0.1780  0.0768
  461loPI   PO4 7364  17.920   7.105   9.483 -0.2293  0.0672 -0.2910
  461loPI   GL1 7365  17.901   6.782   9.052 -0.0286 -0.1681 -0.2451
  461loPI   GL2 7366  18.034   6.508   8.987 -0.2079 -0.3789  0.1433
  461loPI   C1A 7367  17.478   6.882   8.861 -0.0134 -0.1445 -0.3164
  461loPI   C2A 7368  17.344   6.722   8.419  0.0147 -0.2532  0.4099
  461loPI   C3A 7369  17.262   6.454   8.057 -0.2179 -0.0215  0.1585
  461loPI   C4A 7370  17.261   6.419   7.606 -0.0657  0.1868 -0.1897
  461loPI   C5A 7371  17.556   6.393   7.302 -0.2625  0.4367  0.0587
  461loPI   C6A 7372  17.705   6.147   7.047 -0.0753  0.0556  0.2348
  461loPI   C1B 7373  17.734   6.421   8.641  0.1874  0.1448  0.1707
  461loPI   C2B 7374  17.737   6.331   8.157 -0.2576 -0.0916  0.0866
  461loPI   C3B 7375  17.634   6.145   7.778 -0.0929 -0.0762  0.0042
  461loPI   C4B 7376  17.524   5.871   7.418  0.0369 -0.0896  0.2155
  462loPI    C1 7377   1.061  14.982   9.841 -0.1102 -0.2184  0.0034
  462loPI    C2 7378   0.965  14.971  10.229  0.1291 -0.2043  0.0647
  462loPI    C3 7379   0.981  15.321  10.037  0.0095 -0.2113  0.0413
  462loPI   PO4 7380   0.944  14.752   9.707 -0.0639  0.1477 -0.1185
  462loPI   GL1 7381   0.722  14.723   9.391  0.3291 -0.1907  0.0001
  462loPI   GL2 7382   0.660  15.055   9.257  0.0040 -0.1459  0.0272
  462loPI   C1A 7383   1.007  14.738   9.088 -0.3853 -0.0183  0.3817
  462loPI   C2A 7384   0.930  14.812   8.693 -0.0314  0.1894  0.4320
  462loPI   C3A 7385   0.882  14.556   8.298  0.4376  0.2583  0.1531
  462loPI   C4A 7386   1.053  14.637   7.843 -0.1936  0.2404  0.3202
  462loPI   C5A 7387   1.154  14.946   7.511  0.0955  0.1832  0.2325
  462loPI   C6A 7388   1.029  14.961   6.963 -0.1436  0.2311  0.1328
  462loPI   C1B 7389   0.549  15.118   8.851 -0.2590 -0.2060 -0.1438
  462loPI   C2B 7390   0.496  15.145   8.400  0.0189 -0.1975 -0.3963
  462loPI   C3B 7391   0.709  15.011   8.025  0.1003 -0.0153  0.0413
  462loPI   C4B 7392   0.647  14.931   7.637 -0.0216  0.2035  0.2763
  463loPI    C1 7393  13.333  16.644  10.006 -0.1116 -0.0855 -0.1110
  463loPI    C2 7394  13.262  17.024  10.106  0.1617  0.0168 -0.2926
  463loPI    C3 7395  13.359  16.758  10.388 -0.1931  0.0409 -0.1425
  463loPI   PO4 7396  13.169  16.640   9.788 -0.0616 -0.0242 -0.1159
  463loPI   GL1 7397  13.138  16.770   9.363 -0.1246  0.0101  0.1477
  463loPI   GL2 7398  13.451  16.942   9.223 -0.3696  0.0418  0.0592
  463loPI   C1A 7399  12.959  16.970   9.008  0.1662 -0.1028 -0.2246
  463loPI   C2A 7400  12.757  17.156   8.679  0.0315  0.3424 -0.1417
  463loPI   C3A 7401  12.807  17.070   8.156  0.1422 -0.0808 -0.1688
  463loPI   C4A 7402  12.812  17.047   7.681  0.1443 -0.1527 -0.1324
  463loPI   C5A 7403  12.475  17.185   7.448 -0.3186 -0.0609  0.0094
  463loPI   C6A 7404  12.085  17.006   7.511 -0.0727 -0.1710 -0.0295
  463loPI   C1B 7405  13.365  16.907   8.688 -0.0676  0.1664  0.1976
  463loPI   C2B 7406  13.354  16.930   8.150 -0.1355 -0.2054  0.1830
  463loPI   C3B 7407  13.321  16.987   7.710  0.2725 -0.1092  0.1196
  463loPI   C4B 7408  13.520  16.814   7.276 -0.0459  0.0745  0.0808
  464loPI    C1 7409  14.863   8.417   9.837 -0.0388 -0.0776  0.0195
  464loPI    C2 7410  15.202   8.615   9.913  0.1379 -0.3249 -0.1109
  464loPI    C3 7411  15.108   8.290  10.126 -0.2305 -0.0173  0.2108
  464loPI   PO4 7412  14.814   8.326   9.515  0.2754  0.0673 -0.0036
  464loPI   GL1 7413  14.979   8.267   9.188 -0.0747  0.0389  0.3196
  464loPI   GL2 7414  14.941   7.945   9.243  0.0673 -0.1391  0.2657
  464loPI   C1A 7415  14.824   8.253   8.802 -0.3022 -0.2013 -0.0636
  464loPI   C2A 7416  14.749   8.327   8.458  0.0255  0.1007 -0.2021
  464loPI   C3A 7417  14.837   8.178   8.110 -0.1677  0.0044  0.2032
  464loPI   C4A 7418  14.642   8.149   7.665  0.1705 -0.3895 -0.0923
  464loPI   C5A 7419  14.321   8.203   7.420  0.1086  0.0961  0.0791
  464loPI   C6A 7420  13.927   8.355   7.198 -0.0569 -0.1102 -0.0248
  464loPI   C1B 7421  14.938   7.784   8.840 -0.0597 -0.0069 -0.2627
  464loPI   C2B 7422  14.699   7.833   8.501 -0.2444 -0.3666 -0.0293
  464loPI   C3B 7423  14.472   7.896   8.058  0.2026 -0.0165  0.0399
  464loPI   C4B 7424  14.250   7.722   7.656  0.2864  0.0341 -0.0205
  465loPI    C1 7425   8.449   7.891  10.698 -0.1411  0.0133  0.0497
  465loPI    C2 7426   8.733   8.167  10.753 -0.2087  0.0669  0.1328
  465loPI    C3 7427   8.566   7.986  11.068 -0.2292 -0.0033  0.0819
  465loPI   PO4 7428   8.537   7.715  10.525  0.3486  0.2780  0.0973
  465loPI   GL1 7429   8.575   7.632  10.084 -0.0383  0.1204  0.0958
  465loPI   GL2 7430   8.465   7.414  10.062  0.3804 -0.0595 -0.1046
  465loPI   C1A 7431   8.656   7.862   9.767  0.5453  0.1839 -0.0228
  465loPI   C2A 7432   8.510   7.770   9.305  0.3726 -0.0903  0.0424
  465loPI   C3A 7433   8.318   7.651   8.985 -0.3828  0.0598 -0.0469
  465loPI   C4A 7434   8.199   7.484   8.666 -0.1218 -0.2527  0.0805
  465loPI   C5A 7435   8.269   7.634   8.299 -0.1267  0.2015  0.1575
  465loPI   C6A 7436   8.472   7.758   8.049  0.0736  0.0064  0.0390
  465loPI   C1B 7437   8.540   7.340   9.628  0.2906 -0.3231  0.0630
  465loPI   C2B 7438   8.558   6.972   9.439 -0.1457 -0.0644  0.0629
  465loPI   C3B 7439   8.502   6.713   9.211 -0.0159  0.5036  0.2620
  465loPI   C4B 7440   8.521   6.608   8.799 -0.0320  0.3141  0.2368
  466loPI    C1 7441   0.704   5.657   9.498 -0.0133  0.0801  0.0644
  466loPI    C2 7442   1.045   5.864   9.478  0.0054  0.0593  0.1600
  466loPI    C3 7443   1.055   5.467   9.528 -0.0288  0.0232 -0.1017
  466loPI   PO4 7444   0.576   5.886   9.267 -0.0910 -0.0696 -0.0421
  466loPI   GL1 7445   0.697   5.914   8.803  0.3462 -0.3378  0.2834
  466loPI   GL2 7446   1.002   5.821   8.972  0.0631 -0.0437 -0.2520
  466loPI   C1A 7447   0.638   5.882   8.295 -0.1755 -0.1487  0.0174
  466loPI   C2A 7448   0.691   5.866   7.835 -0.1934  0.3085  0.0004
  466loPI   C3A 7449   0.976   5.970   7.427  0.1068  0.3498  0.1036
  466loPI   C4A 7450   0.812   5.931   7.013  0.1648  0.1820 -0.1837
  466loPI   C5A 7451   0.787   5.954   6.586 -0.0856  0.1721 -0.1257
  466loPI   C6A 7452   0.670   6.337   6.429  0.1286 -0.1311 -0.1677
  466loPI   C1B 7453   1.194   5.411   9.031 -0.0981 -0.0950  0.1007
  466loPI   C2B 7454   1.084   5.143   8.820  0.2767 -0.1524  0.0422
  466loPI   C3B 7455   0.983   5.025   8.389 -0.0540  0.1161  0.0561
  466loPI   C4B 7456   0.835   4.894   8.027  0.2185 -0.2036  0.0720
  467loPI    C1 7457   9.501   5.440  10.051  0.1873  0.0045  0.0196
  467loPI    C2 7458   9.194   5.651   9.905  0.1997  0.1527  0.2049
  467loPI    C3 7459   9.187   5.524  10.284  0.2426 -0.0854  0.1271
  467loPI   PO4 7460   9.575   5.351   9.860  0.0336 -0.0374  0.2219
  467loPI   GL1 7461   9.619   4.973   9.683 -0.2275 -0.0014 -0.0989
  467loPI   GL2 7462   9.414   4.566   9.740  0.1226 -0.2415 -0.2081
  467loPI   C1A 7463   9.834   5.244   9.284 -0.2638  0.1284 -0.2263
  467loPI   C2A 7464   9.982   5.282   8.952 -0.1408  0.3359 -0.0912
  467loPI   C3A 7465  10.096   5.102   8.497 -0.0468 -0.2124  0.1968
  467loPI   C4A 7466  10.164   5.170   7.983 -0.3694  0.4768  0.0409
  467loPI   C5A 7467   9.868   5.452   7.731 -0.0756 -0.1903 -0.0246
  467loPI   C6A 7468   9.643   5.376   7.488 -0.1897 -0.0099 -0.0169
  467loPI   C1B 7469   9.257   4.452   9.269  0.6286 -0.1208  0.0542
  467loPI   C2B 7470   9.361   4.375   8.807 -0.2675 -0.2104 -0.3400
  467loPI   C3B 7471   9.241   4.282   8.306 -0.2412  0.0174  0.0243
  467loPI   C4B 7472   9.060   4.271   7.867 -0.0802  0.0620  0.0822
  468loPI    C1 7473   7.676  11.497  10.216 -0.2306 -0.0652  0.0105
  468loPI    C2 7474   7.422  11.781  10.337 -0.1459  0.0471 -0.0732
  468loPI    C3 7475   7.663  11.603  10.601 -0.2575 -0.0064 -0.0064
  468loPI   PO4 7476   7.525  11.324  10.088  0.0518 -0.0977  0.1357
  468loPI   GL1 7477   7.212  11.026   9.793 -0.3176  0.3524  0.3455
  468loPI   GL2 7478   6.940  10.826   9.523 -0.1033  0.0414 -0.1462
  468loPI   C1A 7479   7.353  11.114   9.451  0.1216  0.5223  0.2446
  468loPI   C2A 7480   7.614  11.386   9.207  0.2138 -0.1982  0.0554
  468loPI   C3A 7481   7.878  11.654   8.858  0.2026 -0.3622  0.1346
  468loPI   C4A 7482   8.302  11.998   8.755  0.1866 -0.5026 -0.0789
  468loPI   C5A 7483   8.470  12.304   8.376  0.2695 -0.0871  0.2379
  468loPI   C6A 7484   8.432  12.314   7.955 -0.1601 -0.0444 -0.1057
  468loPI   C1B 7485   6.975  10.734   9.169 -0.0481 -0.0891 -0.0299
  468loPI   C2B 7486   7.189  10.763   8.738 -0.0018  0.2858  0.0858
  468loPI   C3B 7487   6.981  10.963   8.334 -0.0054 -0.1770  0.0368
  468loPI   C4B 7488   6.942  10.892   7.858 -0.0933 -0.3736  0.0978
  469loPI    C1 7489   5.821  15.206  10.516  0.1764  0.0145  0.0739
  469loPI    C2 7490   5.624  15.554  10.528  0.1210 -0.0177  0.1044
  469loPI    C3 7491   5.425  15.210  10.571  0.1690 -0.0556  0.0262
  469loPI   PO4 7492   5.973  15.239  10.262 -0.1675  0.0820 -0.1328
  469loPI   GL1 7493   5.933  15.162   9.786  0.3455 -0.3732  0.3206
  469loPI   GL2 7494   6.208  15.290   9.741  0.0513  0.0212 -0.1148
  469loPI   C1A 7495   5.700  15.375   9.365 -0.2341  0.0235  0.0166
  469loPI   C2A 7496   5.672  15.206   8.967 -0.0269  0.0734 -0.1947
  469loPI   C3A 7497   5.666  15.277   8.617  0.0516 -0.4763  0.0384
  469loPI   C4A 7498   5.530  15.114   8.276  0.2330  0.4287  0.1236
  469loPI   C5A 7499   5.477  15.339   7.893  0.2704 -0.1226 -0.0951
  469loPI   C6A 7500   5.604  15.452   7.481 -0.1516 -0.2645 -0.1036
  469loPI   C1B 7501   6.165  15.409   9.246 -0.0970  0.0931 -0.1584
  469loPI   C2B 7502   5.996  15.585   8.902 -0.0929 -0.1150 -0.0913
  469loPI   C3B 7503   6.158  15.747   8.480  0.2081  0.4121  0.2164
  469loPI   C4B 7504   6.332  15.693   8.047  0.1990  0.3208  0.0271
  470loPI    C1 7505   9.166  18.292  10.056  0.1571  0.0772 -0.0963
  470loPI    C2 7506   8.948  18.578  10.232 -0.1104 -0.0702 -0.1834
  470loPI    C3 7507   9.165  18.327  10.455  0.0476  0.1370 -0.1014
  470loPI   PO4 7508   8.991  18.279   9.813  0.0833 -0.0426 -0.0696
  470loPI   GL1 7509   9.124  18.039   9.362 -0.2567  0.2699  0.3510
  470loPI   GL2 7510   9.429  17.747   9.232  0.0738  0.1359  0.0686
  470loPI   C1A 7511   8.840  17.964   9.080  0.0091  0.0230  0.0747
  470loPI   C2A 7512   8.493  17.863   8.688 -0.0084 -0.0952  0.0416
  470loPI   C3A 7513   8.383  17.798   8.245  0.0863  0.1905  0.2946
  470loPI   C4A 7514   8.149  17.897   7.888  0.0716 -0.1771  0.0855
  470loPI   C5A 7515   7.931  17.875   7.477  0.0214  0.1987 -0.0608
  470loPI   C6A 7516   7.642  17.719   7.153 -0.0892 -0.2107  0.1272
  470loPI   C1B 7517   9.306  17.859   8.898 -0.0608  0.1571 -0.2026
  470loPI   C2B 7518   8.951  17.874   8.535 -0.2990  0.2576  0.0711
  470loPI   C3B 7519   8.833  17.870   8.104 -0.0837  0.2556 -0.1815
  470loPI   C4B 7520   8.683  17.691   7.733 -0.1123  0.2083 -0.0721
  471loPI    C1 7521  14.821   2.734   9.876  0.1915 -0.0716 -0.0323
  471loPI    C2 7522  14.659   2.625  10.225  0.2427 -0.2581 -0.0658
  471loPI    C3 7523  15.050   2.574  10.161  0.2642 -0.0707 -0.0898
  471loPI   PO4 7524  14.682   2.618   9.648 -0.2949  0.0232  0.4070
  471loPI   GL1 7525  14.844   2.623   9.211 -0.0097 -0.1208  0.0359
  471loPI   GL2 7526  14.718   2.856   9.090  0.1290 -0.2404  0.0726
  471loPI   C1A 7527  14.996   2.688   8.701 -0.6227 -0.0515 -0.1747
  471loPI   C2A 7528  15.083   2.765   8.241  0.1736 -0.1428 -0.0769
  471loPI   C3A 7529  15.097   2.828   7.721 -0.3580  0.3763 -0.0940
  471loPI   C4A 7530  14.826   2.618   7.434 -0.0936 -0.1059 -0.2676
  471loPI   C5A 7531  14.437   2.560   7.178 -0.2011  0.0087 -0.1822
  471loPI   C6A 7532  14.497   2.421   6.723 -0.4372 -0.1301 -0.0334
  471loPI   C1B 7533  14.863   3.156   8.698 -0.1656 -0.2293 -0.0139
  471loPI   C2B 7534  14.751   3.122   8.257  0.0040  0.0976 -0.1816
  471loPI   C3B 7535  14.672   3.125   7.842 -0.1684  0.1577 -0.1984
  471loPI   C4B 7536  14.717   3.447   7.509  0.3702 -0.1976 -0.1089
  472loPI    C1 7537  17.906   9.915   9.488  0.1337  0.1656 -0.1828
  472loPI    C2 7538  18.031   9.932   9.867 -0.0128  0.1740 -0.1343
  472loPI    C3 7539  17.676   9.769   9.781  0.1804 -0.1661 -0.3066
  472loPI   PO4 7540  18.034   9.914   9.346 -0.0622 -0.2810 -0.3630
  472loPI   GL1 7541  18.059   9.545   9.146  0.3380  0.1786  0.2088
  472loPI   GL2 7542  17.714   9.423   8.969  0.3547 -0.3375  0.4909
  472loPI   C1A 7543  18.160   9.641   8.667  0.0801 -0.2510 -0.0662
  472loPI   C2A 7544  18.158   9.716   8.286  0.1040  0.1549  0.0430
  472loPI   C3A 7545  18.045   9.831   7.808  0.0570 -0.0310  0.0634
  472loPI   C4A 7546  17.994   9.736   7.344  0.0415  0.3450 -0.0624
  472loPI   C5A 7547  18.030   9.501   6.970  0.1030 -0.2477 -0.3402
  472loPI   C6A 7548  17.981   9.737   6.559 -0.1755 -0.1159  0.1343
  472loPI   C1B 7549  17.764   9.390   8.435  0.1975 -0.0195  0.0298
  472loPI   C2B 7550  17.917   9.312   8.032  0.2421 -0.3324 -0.0098
  472loPI   C3B 7551  17.972   9.324   7.612 -0.2566 -0.2454 -0.1268
  472loPI   C4B 7552  18.144   9.094   7.241  0.0457  0.2112 -0.2027
  473loPI    C1 7553  15.408  14.007   9.425 -0.1618 -0.0132 -0.0980
  473loPI    C2 7554  15.357  14.195   9.775  0.1791  0.2553 -0.1864
  473loPI    C3 7555  15.484  13.816   9.768  0.1472  0.2410 -0.0191
  473loPI   PO4 7556  15.585  14.190   9.318 -0.2393  0.1311 -0.0126
  473loPI   GL1 7557  15.851  14.022   8.994  0.3642 -0.3472 -0.1881
  473loPI   GL2 7558  16.101  14.025   9.012 -0.0782 -0.0519 -0.0825
  473loPI   C1A 7559  15.814  14.085   8.592  0.1020 -0.3192  0.1372
  473loPI   C2A 7560  15.795  14.171   8.131 -0.3913 -0.2701 -0.1211
  473loPI   C3A 7561  15.734  14.124   7.626 -0.1634 -0.1630 -0.2996
  473loPI   C4A 7562  15.413  14.111   7.485  0.3246  0.0662  0.2510
  473loPI   C5A 7563  15.263  13.992   7.151  0.1234  0.2874  0.6190
  473loPI   C6A 7564  15.226  13.655   6.861 -0.1434  0.0589  0.0716
  473loPI   C1B 7565  16.309  14.092   8.688 -0.0499 -0.0442 -0.0256
  473loPI   C2B 7566  16.317  13.983   8.245 -0.3759 -0.0143 -0.0504
  473loPI   C3B 7567  16.217  14.051   7.786  0.4297  0.0956 -0.4931
  473loPI   C4B 7568  16.146  13.991   7.375 -0.1125  0.0995  0.2408
  474loPI    C1 7569   8.898   2.972  10.071  0.1794  0.2448 -0.0367
  474loPI    C2 7570   8.915   3.127  10.440  0.0516 -0.1395  0.1354
  474loPI    C3 7571   8.580   3.162  10.223  0.0009 -0.2257  0.1989
  474loPI   PO4 7572   9.055   3.094   9.972 -0.2182  0.0252 -0.2384
  474loPI   GL1 7573   9.178   3.049   9.612  0.0370 -0.0594  0.0045
  474loPI   GL2 7574   9.535   3.159   9.563 -0.0695 -0.0363 -0.0199
  474loPI   C1A 7575   9.343   2.771   9.287  0.0499 -0.1609  0.0651
  474loPI   C2A 7576   9.319   2.910   8.870  0.2851 -0.0111  0.1004
  474loPI   C3A 7577   9.392   2.791   8.354 -0.2338  0.1796  0.1697
  474loPI   C4A 7578   9.347   2.771   7.919 -0.0177 -0.0556 -0.2473
  474loPI   C5A 7579   9.453   3.116   7.685  0.0454 -0.0045  0.0048
  474loPI   C6A 7580   9.335   3.387   7.262  0.1257  0.1342  0.1877
  474loPI   C1B 7581   9.588   3.355   9.232 -0.0927 -0.4446  0.0215
  474loPI   C2B 7582   9.646   3.492   8.720 -0.1901 -0.3971 -0.2359
  474loPI   C3B 7583   9.765   3.375   8.379  0.1845  0.1425 -0.1766
  474loPI   C4B 7584   9.700   3.473   7.945 -0.1136  0.1507  0.0501
  475loPI    C1 7585   8.825  10.216   9.979  0.0653  0.1540  0.1567
  475loPI    C2 7586   9.164  10.382  10.113  0.1663  0.1031 -0.0325
  475loPI    C3 7587   8.822  10.589  10.124  0.2729  0.2908 -0.1769
  475loPI   PO4 7588   8.902  10.069   9.800  0.0641  0.1483 -0.0140
  475loPI   GL1 7589   8.905  10.083   9.383  0.1274  0.1816  0.0911
  475loPI   GL2 7590   8.551   9.839   9.326 -0.1152 -0.1209  0.1545
  475loPI   C1A 7591   8.926  10.108   9.025  0.1727 -0.1077 -0.2208
  475loPI   C2A 7592   8.845  10.107   8.663 -0.3320  0.0615 -0.0807
  475loPI   C3A 7593   9.080  10.149   8.259  0.0481 -0.0028 -0.2932
  475loPI   C4A 7594   9.058  10.361   7.977  0.2148  0.0877 -0.3619
  475loPI   C5A 7595   9.022  10.578   7.627 -0.2659  0.5479 -0.3002
  475loPI   C6A 7596   9.003  10.814   7.323  0.2100 -0.0447 -0.1440
  475loPI   C1B 7597   8.412   9.793   8.929  0.1725 -0.2694 -0.1353
  475loPI   C2B 7598   8.473   9.714   8.514 -0.4686 -0.0895 -0.2329
  475loPI   C3B 7599   8.699   9.789   8.110  0.1321 -0.1087 -0.1284
  475loPI   C4B 7600   8.951   9.737   7.807 -0.1298  0.3358 -0.0602
  476loPI    C1 7601   8.341  12.930   9.996  0.1313  0.1175  0.0473
  476loPI    C2 7602   8.144  13.060  10.319 -0.1170  0.0354 -0.0683
  476loPI    C3 7603   8.298  12.691  10.314  0.1509  0.1422  0.0686
  476loPI   PO4 7604   8.245  13.112   9.824  0.0235  0.0024  0.1883
  476loPI   GL1 7605   7.870  13.056   9.621 -0.3878 -0.4074 -0.2136
  476loPI   GL2 7606   7.486  13.051   9.532 -0.1778 -0.0454 -0.3038
  476loPI   C1A 7607   7.920  12.932   9.255 -0.3031  0.0137  0.0635
  476loPI   C2A 7608   7.800  12.971   8.833 -0.0018  0.1988  0.0420
  476loPI   C3A 7609   7.715  13.205   8.399 -0.1328  0.1146 -0.2327
  476loPI   C4A 7610   7.684  13.192   7.904 -0.0762 -0.2467 -0.0089
  476loPI   C5A 7611   7.782  13.085   7.565  0.1874  0.0516  0.0689
  476loPI   C6A 7612   8.115  12.999   7.266  0.2390  0.0750  0.1257
  476loPI   C1B 7613   7.402  12.853   9.218  0.0073  0.2790  0.0560
  476loPI   C2B 7614   7.341  12.541   8.968 -0.3568 -0.2400  0.0741
  476loPI   C3B 7615   7.117  12.282   8.542  0.2299  0.0864 -0.0074
  476loPI   C4B 7616   6.863  12.419   8.232 -0.1849  0.1747 -0.0044
  477loPI    C1 7617   8.799  12.761  10.236 -0.5112 -0.3223 -0.0114
  477loPI    C2 7618   8.696  13.138  10.322  0.3504  0.0022 -0.2938
  477loPI    C3 7619   8.896  12.919  10.590 -0.1353 -0.2641 -0.1360
  477loPI   PO4 7620   8.935  12.767  10.029 -0.2042 -0.0662  0.1363
  477loPI   GL1 7621   9.017  12.970   9.766 -0.0042  0.0572 -0.0970
  477loPI   GL2 7622   8.739  13.002   9.633  0.1289  0.2057 -0.3479
  477loPI   C1A 7623   9.035  12.923   9.201 -0.2074 -0.1657 -0.1591
  477loPI   C2A 7624   9.099  12.991   8.929 -0.2854  0.0437  0.1192
  477loPI   C3A 7625   9.054  12.882   8.513  0.2230  0.0511 -0.0149
  477loPI   C4A 7626   8.835  13.091   8.045  0.1276  0.2094  0.3838
  477loPI   C5A 7627   8.922  13.190   7.635  0.0139 -0.4442 -0.3791
  477loPI   C6A 7628   9.210  13.535   7.608  0.0984  0.0618 -0.0435
  477loPI   C1B 7629   8.785  13.319   9.221  0.2252 -0.0530 -0.2792
  477loPI   C2B 7630   8.882  13.345   8.720 -0.1262  0.0571  0.4448
  477loPI   C3B 7631   8.795  13.575   8.262  0.0460  0.0361  0.0671
  477loPI   C4B 7632   8.704  13.656   7.778  0.2915  0.3611 -0.0328
  478loPI    C1 7633   1.687  11.522   9.566 -0.1428  0.0741  0.0578
  478loPI    C2 7634   1.436  11.211   9.587 -0.1998  0.1273  0.1756
  478loPI    C3 7635   1.519  11.423   9.915  0.0013  0.1095  0.1377
  478loPI   PO4 7636   1.823  11.444   9.365 -0.0028  0.0593  0.0339
  478loPI   GL1 7637   1.929  11.235   9.051  0.4424 -0.0091  0.0924
  478loPI   GL2 7638   1.530  11.233   9.033  0.0854  0.0948 -0.2162
  478loPI   C1A 7639   2.268  11.243   8.735 -0.1339 -0.1847  0.0802
  478loPI   C2A 7640   2.324  11.110   8.274 -0.1269  0.1251 -0.1329
  478loPI   C3A 7641   2.351  11.152   7.844 -0.1126  0.2282 -0.1178
  478loPI   C4A 7642   2.299  11.030   7.404  0.0120  0.2829 -0.0501
  478loPI   C5A 7643   2.226  10.967   7.021  0.4756  0.0535 -0.0651
  478loPI   C6A 7644   2.328  10.579   6.708  0.0872 -0.1635  0.2982
  478loPI   C1B 7645   1.500  10.987   8.763 -0.3021  0.0765  0.3629
  478loPI   C2B 7646   1.494  11.015   8.389  0.1485 -0.0273  0.1474
  478loPI   C3B 7647   1.458  11.049   8.067 -0.1161  0.0181 -0.2909
  478loPI   C4B 7648   1.436  11.064   7.643  0.0945  0.0522  0.1161
  479loPI    C1 7649   0.418   1.861  10.232 -0.1669 -0.2159  0.1924
  479loPI    C2 7650   0.812   1.827  10.170 -0.1483  0.2471  0.0130
  479loPI    C3 7651   0.670   1.857  10.543 -0.0188  0.0602  0.0792
  479loPI   PO4 7652   0.304   1.764   9.966 -0.2227  0.2145  0.0947
  479loPI   GL1 7653   0.091   1.869   9.496 -0.2678  0.4015  0.0090
  479loPI   GL2 7654   0.341   1.678   9.472  0.3384  0.0642 -0.1619
  479loPI   C1A 7655   0.012   1.912   9.144  0.1087  0.2005  0.0299
  479loPI   C2A 7656  -0.085   1.994   8.780  0.0790 -0.0414  0.1334
  479loPI   C3A 7657  -0.023   1.923   8.362 -0.3011  0.5309 -0.1429
  479loPI   C4A 7658   0.030   1.875   7.899 -0.0350  0.5209 -0.1554
  479loPI   C5A 7659   0.175   1.791   7.495  0.0549  0.2505  0.2644
  479loPI   C6A 7660   0.222   1.935   7.036 -0.0286  0.2048 -0.0804
  479loPI   C1B 7661   0.421   1.592   9.011 -0.1747 -0.3017 -0.0564
  479loPI   C2B 7662   0.764   1.521   8.755  0.0336  0.1981 -0.0735
  479loPI   C3B 7663   0.891   1.545   8.299  0.0015 -0.2811  0.1931
  479loPI   C4B 7664   0.922   1.522   7.844  0.3751 -0.2336 -0.0063
  480loPI    C1 7665   9.391   3.962  10.114 -0.2629 -0.0950  0.2933
  480loPI    C2 7666   9.663   3.691  10.226 -0.1911 -0.2214 -0.1654
  480loPI    C3 7667   9.535   3.966  10.487  0.2497 -0.2648  0.1063
  480loPI   PO4 7668   9.491   4.066   9.875 -0.0135  0.0486 -0.0315
  480loPI   GL1 7669   9.472   4.090   9.524  0.0404  0.0327  0.0894
  480loPI   GL2 7670   9.379   3.768   9.404 -0.1377 -0.0896  0.0319
  480loPI   C1A 7671   9.742   4.227   9.165 -0.0556  0.1148 -0.2336
  480loPI   C2A 7672   9.838   4.248   8.743 -0.3784  0.0026 -0.1113
  480loPI   C3A 7673   9.745   4.250   8.226 -0.0722 -0.2117  0.1859
  480loPI   C4A 7674   9.704   4.487   7.900  0.1374  0.0298 -0.3491
  480loPI   C5A 7675   9.846   4.870   7.757  0.3184 -0.1160 -0.1487
  480loPI   C6A 7676   9.961   4.957   7.282  0.0688  0.1602 -0.1169
  480loPI   C1B 7677   9.365   3.904   8.944 -0.1898 -0.0586  0.0918
  480loPI   C2B 7678   9.523   3.972   8.560 -0.2351  0.0848  0.2249
  480loPI   C3B 7679   9.527   3.808   8.305  0.0220  0.0601 -0.1442
  480loPI   C4B 7680   9.444   3.966   7.860 -0.3513 -0.0058  0.1526
  481loPI    C1 7681  14.844   0.315   9.949 -0.0506  0.1234 -0.0386
  481loPI    C2 7682  14.861  -0.049  10.112  0.1184  0.1504  0.0060
  481loPI    C3 7683  14.531   0.173  10.152  0.0039 -0.0089 -0.0464
  481loPI   PO4 7684  14.967   0.271   9.679 -0.3234 -0.1602  0.1858
  481loPI   GL1 7685  15.164   0.395   9.339  0.1524  0.1184  0.0793
  481loPI   GL2 7686  15.409   0.424   9.582  0.2005 -0.5299  0.1105
  481loPI   C1A 7687  15.290   0.555   8.965 -0.3646 -0.0845  0.0546
  481loPI   C2A 7688  15.406   0.776   8.629  0.1856 -0.2117  0.1973
  481loPI   C3A 7689  15.491   0.907   8.199 -0.0526 -0.1395 -0.4419
  481loPI   C4A 7690  15.488   0.903   7.795 -0.0136 -0.0329 -0.1153
  481loPI   C5A 7691  15.261   0.856   7.402  0.4275  0.0222 -0.0538
  481loPI   C6A 7692  14.846   1.009   7.276  0.2205 -0.0998 -0.1597
  481loPI   C1B 7693  15.659   0.294   9.214 -0.1468  0.1547  0.1653
  481loPI   C2B 7694  15.753   0.326   8.738 -0.0748  0.0083 -0.0913
  481loPI   C3B 7695  15.525   0.334   8.401  0.0282  0.2924  0.0458
  481loPI   C4B 7696  15.396   0.051   7.976  0.0450  0.2169 -0.4557
  482loPI    C1 7697  17.486  12.414   9.788  0.1576 -0.1217  0.0696
  482loPI    C2 7698  17.353  12.413  10.165 -0.2938 -0.2618 -0.0840
  482loPI    C3 7699  17.673  12.195  10.066  0.0476  0.0561  0.2863
  482loPI   PO4 7700  17.195  12.426   9.643 -0.0589 -0.1469 -0.1961
  482loPI   GL1 7701  16.911  12.584   9.289  0.0921 -0.1100  0.0196
  482loPI   GL2 7702  17.146  12.407   9.133 -0.1662 -0.2718  0.1246
  482loPI   C1A 7703  16.765  12.702   8.780  0.0498  0.0038  0.0563
  482loPI   C2A 7704  16.723  12.868   8.369 -0.0764  0.2322 -0.0301
  482loPI   C3A 7705  16.589  12.796   7.946  0.0551 -0.1085 -0.0865
  482loPI   C4A 7706  16.661  12.865   7.447  0.1848 -0.0768  0.1356
  482loPI   C5A 7707  16.571  12.650   7.114  0.1512  0.1884  0.0616
  482loPI   C6A 7708  16.690  12.454   6.714  0.1693 -0.4300 -0.1357
  482loPI   C1B 7709  17.192  12.429   8.662 -0.2823  0.1863 -0.0102
  482loPI   C2B 7710  17.017  12.397   8.265  0.2093  0.2534 -0.2116
  482loPI   C3B 7711  16.983  12.423   7.913 -0.2297 -0.4240 -0.0242
  482loPI   C4B 7712  16.974  12.372   7.453  0.0959  0.0945 -0.2386
  483loPI    C1 7713   8.586  17.692  10.289  0.1421 -0.0693 -0.1781
  483loPI    C2 7714   8.665  18.068  10.179  0.2719 -0.0902 -0.1571
  483loPI    C3 7715   8.874  17.898  10.474 -0.0496 -0.0470  0.1013
  483loPI   PO4 7716   8.513  17.574   9.939 -0.0985  0.4090 -0.2358
  483loPI   GL1 7717   8.373  17.509   9.515  0.1331  0.0237 -0.3625
  483loPI   GL2 7718   8.015  17.484   9.506  0.1898  0.4417  0.0833
  483loPI   C1A 7719   8.291  17.746   9.147 -0.0009  0.0983 -0.1511
  483loPI   C2A 7720   7.996  17.753   8.858  0.1486 -0.0354 -0.0700
  483loPI   C3A 7721   7.738  17.518   8.714  0.3395 -0.0862  0.2487
  483loPI   C4A 7722   7.504  17.396   8.305 -0.1409 -0.2347  0.0271
  483loPI   C5A 7723   7.242  17.152   7.974  0.2579  0.0185  0.4497
  483loPI   C6A 7724   6.934  16.968   7.733 -0.0454 -0.0103  0.1536
  483loPI   C1B 7725   7.600  17.685   9.328 -0.1215 -0.0499 -0.0245
  483loPI   C2B 7726   7.389  17.673   9.000 -0.0007  0.0801  0.1529
  483loPI   C3B 7727   7.107  17.505   8.642  0.1665  0.1070  0.4832
  483loPI   C4B 7728   6.990  17.534   8.257  0.2668 -0.2210  0.3372
  484loPI    C1 7729  14.128  17.978   9.961 -0.2060  0.3264 -0.1754
  484loPI    C2 7730  13.985  18.146  10.294 -0.1248  0.1351 -0.0422
  484loPI    C3 7731  14.368  18.198  10.194 -0.0886 -0.0042  0.0222
  484loPI   PO4 7732  13.974  18.014   9.744  0.0923 -0.1843  0.0022
  484loPI   GL1 7733  13.958  17.915   9.331  0.0006 -0.2585  0.1883
  484loPI   GL2 7734  14.143  17.670   9.471 -0.0726 -0.1881  0.1556
  484loPI   C1A 7735  14.193  17.947   8.930  0.0063 -0.1329 -0.0633
  484loPI   C2A 7736  14.228  17.743   8.616  0.2988 -0.1577  0.0514
  484loPI   C3A 7737  14.481  17.489   8.306 -0.1211 -0.2857  0.1729
  484loPI   C4A 7738  14.744  17.253   8.039 -0.4761 -0.0336  0.0572
  484loPI   C5A 7739  14.702  16.814   7.779 -0.0216 -0.0491 -0.2533
  484loPI   C6A 7740  14.972  16.463   7.564 -0.0514 -0.3135 -0.0033
  484loPI   C1B 7741  14.455  17.538   9.215 -0.2519  0.1109  0.4496
  484loPI   C2B 7742  14.420  17.300   8.829 -0.0041  0.2266 -0.1994
  484loPI   C3B 7743  14.722  17.060   8.558 -0.1510  0.3355  0.0301
  484loPI   C4B 7744  14.876  16.831   8.292  0.1365 -0.2435  0.0526
  485loPI    C1 7745   9.839  13.843   9.957  0.1511  0.1211 -0.3441
  485loPI    C2 7746   9.906  13.484   9.795 -0.0997 -0.1803  0.1911
  485loPI    C3 7747  10.153  13.626  10.076  0.0819  0.1402 -0.1214
  485loPI   PO4 7748   9.842  14.006   9.782  0.1296 -0.4702  0.1605
  485loPI   GL1 7749   9.666  13.972   9.370 -0.0248 -0.2650  0.2035
  485loPI   GL2 7750   9.362  13.953   9.269  0.1554  0.4106  0.0200
  485loPI   C1A 7751   9.740  13.806   8.916  0.0933 -0.0086  0.0788
  485loPI   C2A 7752   9.681  13.847   8.494 -0.1480  0.2906 -0.0403
  485loPI   C3A 7753   9.694  13.640   8.143 -0.2257 -0.1666  0.2018
  485loPI   C4A 7754   9.725  13.551   7.772  0.2140  0.2376 -0.0077
  485loPI   C5A 7755   9.994  13.167   7.699  0.0137  0.1638 -0.3617
  485loPI   C6A 7756  10.022  12.898   7.352 -0.0254  0.0225  0.1184
  485loPI   C1B 7757   9.315  14.076   8.869  0.1236  0.2591 -0.0569
  485loPI   C2B 7758   9.395  14.194   8.405  0.0153  0.2363  0.1598
  485loPI   C3B 7759   9.629  14.352   8.036  0.2883  0.2954  0.0339
  485loPI   C4B 7760   9.775  14.298   7.736  0.2974 -0.1783 -0.1170
  486loPI    C1 7761  12.129  14.562  10.265 -0.0407 -0.1144  0.1020
  486loPI    C2 7762  11.909  14.411  10.564  0.1048  0.0689  0.3045
  486loPI    C3 7763  12.149  14.724  10.630  0.0579  0.1798 -0.0315
  486loPI   PO4 7764  12.033  14.419   9.978  0.0250  0.0626 -0.2052
  486loPI   GL1 7765  11.915  14.451   9.586  0.0143  0.1222 -0.0093
  486loPI   GL2 7766  12.009  14.575   9.273  0.1895 -0.3055  0.1774
  486loPI   C1A 7767  11.661  14.217   9.222  0.1646 -0.4850 -0.1535
  486loPI   C2A 7768  11.623  14.153   8.790  0.0346 -0.2025 -0.2386
  486loPI   C3A 7769  11.595  13.940   8.465 -0.0984  0.0209 -0.6078
  486loPI   C4A 7770  11.342  13.831   8.079  0.1511  0.2036 -0.0674
  486loPI   C5A 7771  11.325  13.601   7.753  0.2558 -0.2122  0.0250
  486loPI   C6A 7772  10.938  13.606   7.625 -0.1605  0.1875  0.2640
  486loPI   C1B 7773  11.928  14.542   8.913  0.0313 -0.2934  0.2077
  486loPI   C2B 7774  11.858  14.443   8.460 -0.1193  0.1788 -0.0185
  486loPI   C3B 7775  11.682  14.225   8.009 -0.3243  0.1094  0.1941
  486loPI   C4B 7776  11.623  13.989   7.621  0.3528  0.4263 -0.2781
  487loPI    C1 7777   5.657  17.768  10.215 -0.0929 -0.1713 -0.1000
  487loPI    C2 7778   5.593  17.385  10.309  0.1665 -0.1814  0.0443
  487loPI    C3 7779   5.654  17.654  10.598  0.1163 -0.0547 -0.0620
  487loPI   PO4 7780   5.454  17.735   9.977  0.0002  0.1589 -0.1696
  487loPI   GL1 7781   5.434  17.575   9.510 -0.3381  0.2474 -0.0995
  487loPI   GL2 7782   5.789  17.498   9.404 -0.2207 -0.0865 -0.0243
  487loPI   C1A 7783   5.104  17.598   9.230 -0.1589 -0.2617  0.0164
  487loPI   C2A 7784   5.070  17.659   8.805 -0.2389  0.0568  0.0277
  487loPI   C3A 7785   5.035  17.481   8.478 -0.2598 -0.0537  0.0984
  487loPI   C4A 7786   5.102  17.172   8.274 -0.0783  0.2827 -0.3134
  487loPI   C5A 7787   5.188  17.157   7.813 -0.1355  0.0189  0.0386
  487loPI   C6A 7788   5.122  16.947   7.442  0.1130  0.0595 -0.2614
  487loPI   C1B 7789   5.993  17.466   9.011 -0.0117  0.0232 -0.0613
  487loPI   C2B 7790   5.989  17.467   8.573  0.0216 -0.4813  0.0164
  487loPI   C3B 7791   6.119  17.540   8.075 -0.0902  0.7233  0.0730
  487loPI   C4B 7792   6.271  17.732   7.677  0.1507  0.3759  0.1191
  488loPI    C1 7793   1.588  12.055   9.812  0.0225  0.0628 -0.0568
  488loPI    C2 7794   1.823  11.823  10.039 -0.1095 -0.2454 -0.2280
  488loPI    C3 7795   1.555  12.067  10.210  0.0839 -0.1597 -0.0434
  488loPI   PO4 7796   1.532  11.997   9.575 -0.0427  0.1519  0.0402
  488loPI   GL1 7797   1.587  12.143   9.129 -0.3179  0.4066 -0.0225
  488loPI   GL2 7798   1.625  12.416   9.118 -0.3089  0.0144 -0.0020
  488loPI   C1A 7799   1.921  12.116   8.800  0.1148 -0.2495  0.0385
  488loPI   C2A 7800   1.948  12.046   8.376  0.0324 -0.1329  0.0771
  488loPI   C3A 7801   1.981  12.035   7.925 -0.1087 -0.0653  0.0499
  488loPI   C4A 7802   1.854  11.982   7.561 -0.0077 -0.1823 -0.1846
  488loPI   C5A 7803   1.679  12.341   7.286  0.1758  0.0131 -0.1231
  488loPI   C6A 7804   1.434  12.675   7.308  0.0624 -0.0729 -0.0817
  488loPI   C1B 7805   1.508  12.405   8.664  0.1606  0.0749  0.0704
  488loPI   C2B 7806   1.403  12.322   8.217  0.1356 -0.0279  0.2207
  488loPI   C3B 7807   1.380  12.287   7.718 -0.0567  0.0840 -0.1465
  488loPI   C4B 7808   1.083  12.407   7.504 -0.0404  0.0108 -0.1988
  489loPI    C1 7809   0.756  11.834   9.828  0.1459  0.0130 -0.1041
  489loPI    C2 7810   0.637  11.452   9.836 -0.0526  0.0764  0.0596
  489loPI    C3 7811   0.571  11.689  10.152  0.0725  0.2459 -0.0396
  489loPI   PO4 7812   0.691  11.930   9.577 -0.0761 -0.0609 -0.0383
  489loPI   GL1 7813   0.911  11.975   9.281 -0.2432  0.1286 -0.0760
  489loPI   GL2 7814   0.591  12.102   9.118 -0.4377 -0.3234 -0.1374
  489loPI   C1A 7815   1.212  11.851   8.903  0.2117 -0.1324 -0.1524
  489loPI   C2A 7816   1.443  11.909   8.481 -0.0036  0.0398 -0.3061
  489loPI   C3A 7817   1.586  11.813   8.018  0.0930 -0.0914  0.2154
  489loPI   C4A 7818   1.453  11.657   7.558 -0.0104  0.0422 -0.2726
  489loPI   C5A 7819   1.724  11.591   7.242  0.0371 -0.3202 -0.2145
  489loPI   C6A 7820   2.172  11.460   7.081 -0.1011  0.2929 -0.6097
  489loPI   C1B 7821   0.493  12.151   8.733 -0.0937 -0.3351  0.2408
  489loPI   C2B 7822   0.602  12.266   8.315 -0.1249  0.1160 -0.1940
  489loPI   C3B 7823   0.594  12.528   7.920  0.1140 -0.0583 -0.1426
  489loPI   C4B 7824   0.540  12.634   7.546 -0.1078  0.2642 -0.1256
  490loPI    C1 7825   7.693   9.053  10.135 -0.1432 -0.2448  0.0637
  490loPI    C2 7826   7.617   8.706   9.949  0.3292 -0.1802 -0.2683
  490loPI    C3 7827   7.884   8.720  10.247 -0.0412 -0.1842  0.0714
  490loPI   PO4 7828   7.369   9.250  10.077  0.1319 -0.2521  0.0023
  490loPI   GL1 7829   7.428   9.275   9.626 -0.0740 -0.0135 -0.2788
  490loPI   GL2 7830   7.349   8.977   9.671  0.2176 -0.0460 -0.0220
  490loPI   C1A 7831   7.580   9.441   9.305 -0.1934  0.1195  0.1891
  490loPI   C2A 7832   7.537   9.341   8.877 -0.3051  0.1329 -0.3430
  490loPI   C3A 7833   7.525   9.301   8.473 -0.0052 -0.0127 -0.3111
  490loPI   C4A 7834   7.448   9.061   8.099 -0.4191  0.4912  0.1306
  490loPI   C5A 7835   7.506   9.075   7.623  0.3714  0.3127  0.3781
  490loPI   C6A 7836   7.613   9.212   7.208 -0.1713 -0.0410 -0.1384
  490loPI   C1B 7837   7.546   8.778   9.362 -0.0017  0.2318 -0.2555
  490loPI   C2B 7838   7.556   8.785   8.909 -0.0081  0.0633 -0.0476
  490loPI   C3B 7839   7.497   8.816   8.537 -0.1345 -0.1091 -0.2191
  490loPI   C4B 7840   7.645   8.616   8.104  0.2225  0.2151  0.0652
  491loPI    C1 7841   6.773  13.922  10.505 -0.1494  0.1353 -0.2679
  491loPI    C2 7842   6.448  14.030  10.712 -0.0032  0.1793 -0.0581
  491loPI    C3 7843   6.752  13.847  10.897 -0.0619 -0.1988 -0.3242
  491loPI   PO4 7844   6.775  14.076  10.306 -0.1053  0.0806 -0.5263
  491loPI   GL1 7845   6.789  13.966   9.993  0.2022  0.5863  0.0732
  491loPI   GL2 7846   7.059  13.985   9.649  0.1128 -0.1082  0.2596
  491loPI   C1A 7847   6.611  14.046   9.496  0.3656  0.0922 -0.2733
  491loPI   C2A 7848   6.590  14.063   9.070  0.1449  0.0521 -0.0850
  491loPI   C3A 7849   6.583  14.218   8.757 -0.1713  0.0524  0.0399
  491loPI   C4A 7850   6.501  14.158   8.437  0.0569 -0.0328  0.3765
  491loPI   C5A 7851   6.728  14.135   8.094  0.3267 -0.0613 -0.2093
  491loPI   C6A 7852   6.782  14.205   7.582 -0.2251 -0.3302  0.0014
  491loPI   C1B 7853   7.079  14.089   9.279  0.1749 -0.0619 -0.0301
  491loPI   C2B 7854   7.019  14.039   8.802  0.0292 -0.0095  0.2416
  491loPI   C3B 7855   7.073  14.339   8.513 -0.1592  0.0617 -0.0531
  491loPI   C4B 7856   6.935  14.665   8.189  0.1613  0.1237  0.1548
  492loPI    C1 7857   0.336   6.268   9.507  0.2437  0.1052 -0.0406
  492loPI    C2 7858   0.487   6.031   9.791 -0.0705  0.1839  0.1981
  492loPI    C3 7859   0.236   6.326   9.890 -0.1023  0.2786 -0.1527
  492loPI   PO4 7860   0.463   6.471   9.421  0.3803 -0.1085 -0.2137
  492loPI   GL1 7861   0.525   6.586   9.006  0.3113 -0.0340 -0.0454
  492loPI   GL2 7862   0.274   6.682   8.843 -0.1088  0.0722 -0.0937
  492loPI   C1A 7863   0.716   6.849   8.820 -0.0208  0.1181 -0.3788
  492loPI   C2A 7864   0.540   6.892   8.471  0.1836 -0.2465  0.3702
  492loPI   C3A 7865   0.366   6.758   8.050 -0.4192 -0.0211  0.1246
  492loPI   C4A 7866   0.424   6.473   7.771  0.2133  0.1974  0.0311
  492loPI   C5A 7867   0.506   6.190   7.484 -0.0717  0.0523 -0.0463
  492loPI   C6A 7868   0.543   5.735   7.330  0.2411 -0.0738 -0.0969
  492loPI   C1B 7869   0.014   6.674   8.417  0.3215 -0.0044 -0.2601
  492loPI   C2B 7870  -0.119   6.652   7.957  0.0829  0.3023  0.0701
  492loPI   C3B 7871  -0.106   6.745   7.536 -0.1022 -0.0072 -0.3258
  492loPI   C4B 7872   0.187   6.533   7.283  0.0877 -0.0270 -0.2079
  493loPI    C1 7873  16.927  16.161   9.949 -0.1030 -0.2116 -0.1507
  493loPI    C2 7874  16.789  15.961  10.267  0.2051 -0.2615 -0.0446
  493loPI    C3 7875  17.107  16.200  10.304 -0.0624  0.1307 -0.2052
  493loPI   PO4 7876  16.863  16.078   9.754 -0.1974  0.0758 -0.0831
  493loPI   GL1 7877  16.975  15.896   9.418 -0.0827  0.3240  0.0121
  493loPI   GL2 7878  16.703  15.678   9.478  0.0183 -0.1905 -0.0269
  493loPI   C1A 7879  16.810  15.821   8.974 -0.1011 -0.0031 -0.1407
  493loPI   C2A 7880  16.885  15.803   8.616 -0.1716  0.1489 -0.0734
  493loPI   C3A 7881  16.816  15.950   8.135  0.0980  0.1864  0.0352
  493loPI   C4A 7882  16.846  15.967   7.729 -0.2018  0.0667 -0.0160
  493loPI   C5A 7883  16.779  16.188   7.419  0.0278  0.0080 -0.1941
  493loPI   C6A 7884  16.935  16.331   7.064 -0.0504  0.2407  0.3007
  493loPI   C1B 7885  16.438  15.926   9.303  0.2960 -0.1249  0.1875
  493loPI   C2B 7886  16.208  16.000   8.978  0.1775  0.0840 -0.1338
  493loPI   C3B 7887  16.234  15.962   8.516  0.2050 -0.0180 -0.3210
  493loPI   C4B 7888  16.343  15.930   8.049  0.0616  0.0093  0.1120
  494loPI    C1 7889   4.553   0.453   9.976 -0.0592  0.1142  0.1057
  494loPI    C2 7890   4.893   0.514  10.176  0.1822  0.1185 -0.2953
  494loPI    C3 7891   4.577   0.750  10.242  0.1710 -0.0372  0.2569
  494loPI   PO4 7892   4.604   0.429   9.772 -0.0982 -0.0290 -0.0376
  494loPI   GL1 7893   4.659   0.373   9.273  0.2998 -0.0379  0.0839
  494loPI   GL2 7894   4.986   0.306   9.101  0.0109 -0.4942  0.0968
  494loPI   C1A 7895   4.587   0.574   8.879  0.2592  0.2709  0.1387
  494loPI   C2A 7896   4.437   0.407   8.482  0.0685 -0.0287  0.3786
  494loPI   C3A 7897   4.300   0.380   8.071 -0.1204  0.0357  0.3183
  494loPI   C4A 7898   4.277   0.351   7.599  0.2210  0.0814 -0.1502
  494loPI   C5A 7899   4.344   0.475   7.172 -0.1398  0.0790 -0.1005
  494loPI   C6A 7900   3.946   0.784   7.069 -0.0773  0.0031 -0.2008
  494loPI   C1B 7901   4.800   0.093   8.645 -0.0267  0.1874  0.2366
  494loPI   C2B 7902   4.680  -0.032   8.272 -0.1091  0.0569 -0.0726
  494loPI   C3B 7903   4.689   0.121   7.897  0.1598  0.0520  0.0385
  494loPI   C4B 7904   4.859  -0.082   7.522 -0.0112 -0.0666 -0.0373
  495loPI    C1 7905   8.901  15.905   9.686 -0.2400 -0.1379  0.0465
  495loPI    C2 7906   8.701  15.864  10.031 -0.1791 -0.0509  0.0925
  495loPI    C3 7907   8.733  16.224   9.859  0.0487 -0.0404  0.1531
  495loPI   PO4 7908   8.826  15.639   9.536  0.0215  0.3237  0.4312
  495loPI   GL1 7909   8.870  15.493   9.144 -0.0845 -0.3212  0.2880
  495loPI   GL2 7910   9.149  15.331   9.218 -0.0249  0.1984  0.0648
  495loPI   C1A 7911   8.740  15.569   8.770  0.1434 -0.0068  0.0259
  495loPI   C2A 7912   8.608  15.566   8.251 -0.5937  0.1142  0.1440
  495loPI   C3A 7913   8.294  15.727   7.976  0.1132 -0.1210 -0.0377
  495loPI   C4A 7914   8.112  15.648   7.555 -0.3389  0.0837 -0.2200
  495loPI   C5A 7915   7.931  15.296   7.372  0.0641  0.1692  0.0219
  495loPI   C6A 7916   7.812  14.904   7.417 -0.1380  0.3970 -0.0779
  495loPI   C1B 7917   9.175  15.333   8.724 -0.2434  0.0779  0.0517
  495loPI   C2B 7918   9.188  15.375   8.267  0.1176  0.0792  0.0451
  495loPI   C3B 7919   9.109  15.609   7.859  0.2004 -0.1149  0.0867
  495loPI   C4B 7920   8.996  15.543   7.462 -0.2613  0.2285 -0.1812
  496loPI    C1 7921  14.636   9.494  10.088 -0.0119  0.1431  0.0266
  496loPI    C2 7922  14.978   9.583  10.276  0.0470  0.0444 -0.0332
  496loPI    C3 7923  14.646   9.791  10.356  0.1028  0.0903  0.0815
  496loPI   PO4 7924  14.674   9.430   9.826 -0.0860 -0.5002 -0.2504
  496loPI   GL1 7925  14.538   9.177   9.480 -0.0494  0.0235  0.2113
  496loPI   GL2 7926  14.725   9.296   9.318 -0.2733 -0.2674 -0.0071
  496loPI   C1A 7927  14.331   8.996   9.091 -0.2065 -0.1087 -0.1017
  496loPI   C2A 7928  14.234   9.085   8.649 -0.3761 -0.0238  0.0021
  496loPI   C3A 7929  14.233   9.251   8.178 -0.0974  0.2655 -0.0868
  496loPI   C4A 7930  14.121   9.340   7.775 -0.1313  0.1622 -0.1005
  496loPI   C5A 7931  14.054   9.214   7.378  0.1407  0.2054  0.1416
  496loPI   C6A 7932  13.942   9.474   6.969 -0.0440  0.1342  0.0208
  496loPI   C1B 7933  14.731   9.145   8.896  0.5520 -0.2697  0.0721
  496loPI   C2B 7934  14.706   9.112   8.459 -0.0687 -0.1102  0.0803
  496loPI   C3B 7935  14.878   9.095   8.067 -0.2606  0.2124  0.2275
  496loPI   C4B 7936  14.956   9.266   7.647 -0.1410 -0.0806  0.2021
  497loPI    C1 7937  12.179  13.921   9.983  0.1026  0.1627 -0.0505
  497loPI    C2 7938  12.085  13.996  10.365 -0.0672 -0.1435 -0.0291
  497loPI    C3 7939  12.413  14.159  10.205 -0.1358  0.1996  0.1672
  497loPI   PO4 7940  12.027  13.921   9.872  0.1783 -0.0403  0.1893
  497loPI   GL1 7941  12.069  14.014   9.386 -0.0026 -0.0115  0.2146
  497loPI   GL2 7942  12.194  13.733   9.409 -0.0544  0.1295  0.0999
  497loPI   C1A 7943  12.199  14.023   8.967 -0.1813 -0.0614 -0.1127
  497loPI   C2A 7944  12.095  13.922   8.621 -0.1421 -0.1363  0.0835
  497loPI   C3A 7945  12.299  14.053   8.301 -0.0281 -0.0818 -0.1104
  497loPI   C4A 7946  12.199  14.142   7.975  0.2777 -0.1056  0.1778
  497loPI   C5A 7947  12.060  14.141   7.543  0.1721  0.0499 -0.2912
  497loPI   C6A 7948  11.811  14.402   7.306 -0.0274  0.1512 -0.0915
  497loPI   C1B 7949  12.103  13.376   9.135  0.0030 -0.0256  0.1814
  497loPI   C2B 7950  12.139  13.289   8.644  0.3277 -0.0730  0.1450
  497loPI   C3B 7951  12.087  13.416   8.316 -0.1820 -0.3276  0.2874
  497loPI   C4B 7952  11.826  13.708   8.113 -0.0392  0.2757  0.2989
  498loPI    C1 7953  18.730  15.964   9.966 -0.0155  0.0972  0.0486
  498loPI    C2 7954  18.969  16.259   9.840  0.0823  0.0955  0.2283
  498loPI    C3 7955  19.065  16.050  10.167  0.0828 -0.2245  0.0276
  498loPI   PO4 7956  18.629  15.815   9.760 -0.1950 -0.0937  0.1129
  498loPI   GL1 7957  18.759  15.768   9.328 -0.2863  0.1140 -0.0459
  498loPI   GL2 7958  18.763  16.157   9.365  0.2754 -0.3069 -0.0294
  498loPI   C1A 7959  18.805  15.449   9.053  0.0666 -0.1752 -0.0341
  498loPI   C2A 7960  18.761  15.261   8.625 -0.0663  0.3396 -0.2097
  498loPI   C3A 7961  18.775  15.233   8.270 -0.2748 -0.0827  0.1115
  498loPI   C4A 7962  18.861  15.031   7.943  0.1314 -0.0079 -0.1245
  498loPI   C5A 7963  18.891  15.129   7.510  0.2722  0.1679  0.2444
  498loPI   C6A 7964  18.740  15.135   7.095  0.4790  0.0297 -0.1495
  498loPI   C1B 7965  18.590  16.209   9.007 -0.1488 -0.2990 -0.1962
  498loPI   C2B 7966  18.494  16.109   8.591  0.2769 -0.1363  0.0336
  498loPI   C3B 7967  18.338  16.158   8.181 -0.2002 -0.0786 -0.2925
  498loPI   C4B 7968  18.349  16.153   7.797 -0.2180  0.0665 -0.1004
  499loPI    C1 7969   9.087   0.708   9.635  0.0922  0.1803 -0.0875
  499loPI    C2 7970   8.946   0.818   9.992 -0.0157  0.0876 -0.1008
  499loPI    C3 7971   9.192   0.504   9.962  0.2172  0.2640 -0.0746
  499loPI   PO4 7972   9.274   0.860   9.453 -0.1632 -0.0774 -0.1890
  499loPI   GL1 7973   9.146   1.022   9.044 -0.1544  0.2756 -0.1028
  499loPI   GL2 7974   9.105   0.731   8.994 -0.0705  0.3659 -0.0983
  499loPI   C1A 7975   9.164   1.079   8.567 -0.2908  0.2272  0.0224
  499loPI   C2A 7976   9.222   1.222   8.163  0.2825 -0.0131 -0.0551
  499loPI   C3A 7977   9.419   1.217   7.754 -0.0090 -0.0358  0.0795
  499loPI   C4A 7978   9.471   1.347   7.309  0.0390 -0.0465  0.0119
  499loPI   C5A 7979   9.440   1.183   6.797  0.2977 -0.1940  0.1892
  499loPI   C6A 7980   9.403   1.469   6.560 -0.0420 -0.0648  0.0324
  499loPI   C1B 7981   9.410   0.579   8.677  0.0325 -0.3450 -0.0004
  499loPI   C2B 7982   9.384   0.742   8.181 -0.0251 -0.1870 -0.2082
  499loPI   C3B 7983   9.536   0.727   7.829  0.0850 -0.0110 -0.1843
  499loPI   C4B 7984   9.470   0.799   7.356  0.1758 -0.0602 -0.1673
  500loPI    C1 7985   5.127  13.710  10.276  0.2111 -0.1904 -0.0273
  500loPI    C2 7986   5.457  13.887  10.417 -0.1493  0.1910  0.3700
  500loPI    C3 7987   5.317  13.557  10.593  0.2215 -0.1987 -0.0375
  500loPI   PO4 7988   5.152  13.644   9.974  0.0256 -0.1233 -0.2790
  500loPI   GL1 7989   5.068  13.622   9.559 -0.1247 -0.1818 -0.1108
  500loPI   GL2 7990   5.184  13.466   9.479 -0.0702  0.1695  0.0649
  500loPI   C1A 7991   4.967  13.906   9.271  0.1032 -0.1612  0.0422
  500loPI   C2A 7992   5.038  13.845   8.808  0.0088  0.1411  0.0155
  500loPI   C3A 7993   5.122  13.895   8.350  0.0542 -0.0100 -0.1155
  500loPI   C4A 7994   5.293  13.940   7.981 -0.0493 -0.0230 -0.0391
  500loPI   C5A 7995   5.271  14.012   7.478 -0.0736  0.0024 -0.0048
  500loPI   C6A 7996   5.429  13.910   7.138  0.2449  0.1113 -0.0754
  500loPI   C1B 7997   5.301  13.338   9.245 -0.2760 -0.1875  0.2312
  500loPI   C2B 7998   5.295  13.445   8.802 -0.3666 -0.2036 -0.3148
  500loPI   C3B 7999   5.307  13.372   8.301 -0.1700  0.1023 -0.5959
  500loPI   C4B 8000   5.455  13.452   7.928  0.1848  0.4171  0.3175
  501loPI    C1 8001   3.066  17.033   9.759  0.1959  0.0588 -0.0757
  501loPI    C2 8002   3.195  16.783  10.043 -0.0166 -0.0163 -0.0432
  501loPI    C3 8003   2.913  17.055  10.128  0.1479  0.1751 -0.1022
  501loPI   PO4 8004   3.058  16.878   9.586 -0.0292  0.0438 -0.1848
  501loPI   GL1 8005   3.280  16.647   9.195 -0.1440 -0.0498 -0.1405
  501loPI   GL2 8006   3.564  16.677   9.096  0.1216 -0.1216  0.1158
  501loPI   C1A 8007   2.910  16.687   8.861  0.0850  0.1003  0.2373
  501loPI   C2A 8008   2.911  16.692   8.443  0.1039 -0.1340 -0.1302
  501loPI   C3A 8009   2.817  16.711   8.025 -0.2590  0.0253  0.1103
  501loPI   C4A 8010   2.778  17.025   7.782 -0.1140  0.0044 -0.2532
  501loPI   C5A 8011   2.887  16.935   7.432  0.2606 -0.1440 -0.0678
  501loPI   C6A 8012   3.127  16.691   7.258  0.1332  0.1443 -0.1009
  501loPI   C1B 8013   3.402  16.804   8.718  0.0898  0.1062 -0.1569
  501loPI   C2B 8014   3.370  16.767   8.275  0.0659  0.3134  0.0537
  501loPI   C3B 8015   3.304  16.824   7.794 -0.1030  0.0945 -0.1340
  501loPI   C4B 8016   3.619  16.600   7.486  0.2111 -0.1018  0.0164
  502loPI    C1 8017  15.033   7.963   9.736 -0.0351  0.1971 -0.2007
  502loPI    C2 8018  15.230   7.675   9.540 -0.1874  0.0753 -0.1769
  502loPI    C3 8019  15.409   7.873   9.838 -0.0273  0.1164 -0.2987
  502loPI   PO4 8020  14.707   7.754   9.698  0.1539  0.0722 -0.1156
  502loPI   GL1 8021  14.593   7.537   9.266  0.1731  0.0761 -0.0594
  502loPI   GL2 8022  14.316   7.298   9.268  0.1484 -0.1711  0.0371
  502loPI   C1A 8023  14.754   7.309   8.882  0.2675  0.1152 -0.2458
  502loPI   C2A 8024  14.721   7.314   8.467 -0.1525 -0.5067  0.0027
  502loPI   C3A 8025  14.937   7.637   8.157  0.1904 -0.1198 -0.3565
  502loPI   C4A 8026  14.743   7.598   7.761  0.0800  0.0332  0.0940
  502loPI   C5A 8027  14.696   7.693   7.364  0.0533 -0.2013 -0.1445
  502loPI   C6A 8028  14.616   7.844   7.065  0.1229  0.0602  0.0307
  502loPI   C1B 8029  14.282   7.464   8.847  0.0947 -0.1847  0.0090
  502loPI   C2B 8030  14.305   7.557   8.458  0.3371 -0.5210  0.0188
  502loPI   C3B 8031  14.321   7.391   7.996 -0.0340  0.2038  0.1341
  502loPI   C4B 8032  14.415   7.128   7.588 -0.2639 -0.0677 -0.0154
  503loPI    C1 8033  14.070  15.025   9.854  0.3675 -0.2556  0.2763
  503loPI    C2 8034  13.798  14.775  10.006  0.0113 -0.0459  0.0007
  503loPI    C3 8035  13.904  15.103  10.209 -0.2638  0.0947 -0.0778
  503loPI   PO4 8036  14.356  14.973   9.687  0.0664 -0.4529 -0.1216
  503loPI   GL1 8037  14.378  15.212   9.265  0.0739 -0.2550 -0.5545
  503loPI   GL2 8038  14.625  15.049   9.171  0.0429 -0.0645 -0.2207
  503loPI   C1A 8039  14.331  15.361   8.848  0.1401  0.0014  0.1000
  503loPI   C2A 8040  14.291  15.378   8.282 -0.2078 -0.3544 -0.1079
  503loPI   C3A 8041  14.507  15.590   7.939  0.0349  0.0121  0.1066
  503loPI   C4A 8042  14.415  15.570   7.477 -0.0902 -0.2834  0.5080
  503loPI   C5A 8043  14.448  15.600   7.150 -0.1533 -0.1950 -0.2642
  503loPI   C6A 8044  14.223  15.639   6.893  0.1144 -0.0402  0.2677
  503loPI   C1B 8045  14.537  14.906   8.798 -0.1469  0.0837 -0.1737
  503loPI   C2B 8046  14.627  14.821   8.345 -0.0392  0.1899  0.1751
  503loPI   C3B 8047  14.553  14.966   7.878  0.0611 -0.0764  0.1309
  503loPI   C4B 8048  14.290  15.191   7.739 -0.0130  0.0697 -0.1408
  504loPI    C1 8049  13.145   1.258  10.105  0.0055 -0.0158  0.0436
  504loPI    C2 8050  12.989   1.620  10.039 -0.2748 -0.1618 -0.1111
  504loPI    C3 8051  12.837   1.385  10.325 -0.1575 -0.1967 -0.0767
  504loPI   PO4 8052  13.169   1.137   9.841  0.0612 -0.2998 -0.0822
  504loPI   GL1 8053  13.101   1.446   9.535 -0.2139 -0.0938  0.1134
  504loPI   GL2 8054  13.279   1.237   9.377 -0.0457 -0.1089 -0.2584
  504loPI   C1A 8055  13.193   1.703   9.131  0.2562 -0.2056  0.1496
  504loPI   C2A 8056  13.295   1.853   8.595  0.0619  0.0055 -0.1260
  504loPI   C3A 8057  13.267   1.944   8.165 -0.1193  0.0727 -0.0041
  504loPI   C4A 8058  13.469   2.069   7.769  0.0950 -0.1759  0.0197
  504loPI   C5A 8059  13.400   1.931   7.465 -0.1290 -0.1320  0.0357
  504loPI   C6A 8060  13.666   1.882   7.176 -0.0625  0.1459  0.1686
  504loPI   C1B 8061  13.437   1.307   9.055 -0.1180  0.1294 -0.3556
  504loPI   C2B 8062  13.427   1.389   8.647  0.4196  0.1812  0.0098
  504loPI   C3B 8063  13.548   1.483   8.254  0.0154  0.0179 -0.2917
  504loPI   C4B 8064  13.569   1.633   7.875 -0.0997  0.3371 -0.1176
  505loPI    C1 8065   6.816   2.896   9.598  0.0439  0.0534 -0.1908
  505loPI    C2 8066   6.652   3.086   9.286 -0.1497 -0.0529 -0.1555
  505loPI    C3 8067   6.631   3.246   9.652  0.0682  0.0667 -0.1936
  505loPI   PO4 8068   7.001   2.819   9.556 -0.1137 -0.0406  0.1128
  505loPI   GL1 8069   7.210   2.792   9.201  0.1010  0.0923 -0.0075
  505loPI   GL2 8070   7.163   2.512   8.892 -0.0960 -0.2942 -0.0470
  505loPI   C1A 8071   7.281   3.096   8.896  0.3471 -0.2603  0.3967
  505loPI   C2A 8072   7.301   3.193   8.582 -0.2464  0.3999  0.1027
  505loPI   C3A 8073   7.231   3.367   8.233  0.0534  0.0955  0.0309
  505loPI   C4A 8074   7.265   3.408   7.719  0.1750 -0.3534 -0.1522
  505loPI   C5A 8075   7.136   3.628   7.376 -0.1273  0.0323  0.1369
  505loPI   C6A 8076   7.126   4.014   7.369  0.1938 -0.1442 -0.0101
  505loPI   C1B 8077   7.184   2.713   8.426  0.2808 -0.3171 -0.1484
  505loPI   C2B 8078   7.056   2.670   8.016 -0.0614 -0.0215 -0.1773
  505loPI   C3B 8079   7.219   2.907   7.621  0.1097  0.0490  0.2012
  505loPI   C4B 8080   7.208   3.132   7.297 -0.1647 -0.0228 -0.2711
  506loPI    C1 8081   3.640  17.687   9.860  0.0479 -0.1290 -0.1129
  506loPI    C2 8082   3.520  17.840  10.209  0.0113  0.0010 -0.1816
  506loPI    C3 8083   3.776  17.533  10.203 -0.0904 -0.0882 -0.0388
  506loPI   PO4 8084   3.685  18.002   9.694  0.3234 -0.4094  0.4008
  506loPI   GL1 8085   3.526  18.174   9.286 -0.0359  0.2367  0.1473
  506loPI   GL2 8086   3.800  18.123   9.110 -0.0957 -0.2836 -0.0657
  506loPI   C1A 8087   3.297  17.971   8.889  0.0751  0.1282  0.0358
  506loPI   C2A 8088   3.264  17.835   8.494  0.0442 -0.1671  0.3077
  506loPI   C3A 8089   3.177  17.833   8.141  0.0156  0.1403 -0.0422
  506loPI   C4A 8090   3.165  17.898   7.763  0.0114  0.1834  0.0318
  506loPI   C5A 8091   2.898  18.000   7.398  0.0584 -0.1829  0.1512
  506loPI   C6A 8092   2.613  18.368   7.344  0.2763  0.1190 -0.0720
  506loPI   C1B 8093   3.790  17.943   8.672  0.0094 -0.0626  0.0592
  506loPI   C2B 8094   3.714  17.770   8.230  0.4131 -0.0049 -0.2647
  506loPI   C3B 8095   3.611  17.605   7.837  0.1021  0.3275  0.0754
  506loPI   C4B 8096   3.659  17.838   7.588 -0.1918  0.0230 -0.1111
  507loPI    C1 8097   8.122   8.608  10.602  0.0528  0.2755  0.1013
  507loPI    C2 8098   8.065   8.275  10.815  0.0207  0.0164 -0.3004
  507loPI    C3 8099   7.760   8.436  10.613  0.0245  0.3222 -0.0694
  507loPI   PO4 8100   8.424   8.537  10.489 -0.4033 -0.0420  0.0203
  507loPI   GL1 8101   8.266   8.487  10.038  0.1110  0.2589  0.0331
  507loPI   GL2 8102   8.530   8.229  10.081 -0.0078 -0.1843 -0.0849
  507loPI   C1A 8103   8.003   8.545   9.687  0.1986 -0.0205  0.2278
  507loPI   C2A 8104   8.002   8.480   9.240 -0.0845 -0.0299 -0.1324
  507loPI   C3A 8105   8.035   8.538   8.834  0.2537 -0.4984  0.2986
  507loPI   C4A 8106   7.843   8.279   8.418 -0.0216  0.0392 -0.1186
  507loPI   C5A 8107   7.986   7.965   8.072  0.0740 -0.0360  0.4201
  507loPI   C6A 8108   8.044   7.614   7.833  0.1017 -0.1784  0.1010
  507loPI   C1B 8109   8.566   8.338   9.615  0.0505  0.1226  0.1677
  507loPI   C2B 8110   8.808   8.558   9.169 -0.1751  0.3194 -0.0885
  507loPI   C3B 8111   9.095   8.427   8.779  0.0750 -0.1879  0.1256
  507loPI   C4B 8112   9.052   8.400   8.252  0.1299  0.0858 -0.0333
  508loPI    C1 8113   8.898  11.340  10.356  0.3574  0.1022  0.2056
  508loPI    C2 8114   9.006  11.097  10.655  0.2190 -0.0479  0.1351
  508loPI    C3 8115   8.714  10.988  10.404  0.1029  0.2248  0.1477
  508loPI   PO4 8116   9.130  11.553  10.278 -0.2810  0.2755  0.3467
  508loPI   GL1 8117   9.108  11.544   9.803  0.1229 -0.0712 -0.0033
  508loPI   GL2 8118   8.955  11.854   9.866  0.0264 -0.0862 -0.2771
  508loPI   C1A 8119   9.079  11.340   9.499  0.0007  0.0309  0.3480
  508loPI   C2A 8120   8.865  11.254   9.086 -0.3450  0.3075  0.1221
  508loPI   C3A 8121   9.042  11.398   8.683 -0.1846  0.0353  0.3172
  508loPI   C4A 8122   9.083  11.463   8.234  0.2085 -0.2212  0.0986
  508loPI   C5A 8123   8.949  11.387   7.846  0.0018 -0.2365 -0.1560
  508loPI   C6A 8124   9.127  11.309   7.520  0.0377  0.1685  0.1501
  508loPI   C1B 8125   9.019  11.897   9.476  0.2314 -0.4937 -0.0568
  508loPI   C2B 8126   9.023  11.709   9.160 -0.1367  0.1177 -0.4364
  508loPI   C3B 8127   9.281  11.800   8.879 -0.1259 -0.1615  0.1082
  508loPI   C4B 8128   9.413  11.933   8.479  0.0372 -0.6944 -0.0354
  509loPI    C1 8129  11.322   9.612  10.293  0.1092  0.0309  0.1931
  509loPI    C2 8130  11.642   9.373  10.274 -0.0745 -0.1907 -0.2902
  509loPI    C3 8131  11.394   9.350  10.587  0.1913 -0.2605 -0.0808
  509loPI   PO4 8132  11.110   9.549  10.087  0.1168  0.1815 -0.0019
  509loPI   GL1 8133  11.168   9.611   9.611  0.1112 -0.2825  0.2737
  509loPI   GL2 8134  10.849   9.486   9.617  0.0472  0.0323  0.2636
  509loPI   C1A 8135  11.068   9.510   9.164  0.0875  0.0038  0.0014
  509loPI   C2A 8136  10.984   9.344   8.731  0.2585  0.1697  0.1606
  509loPI   C3A 8137  10.728   9.198   8.393 -0.0853  0.2835 -0.0678
  509loPI   C4A 8138  10.485   9.030   8.057 -0.0985 -0.1837  0.0678
  509loPI   C5A 8139  10.151   8.598   7.942 -0.1771 -0.3142  0.0159
  509loPI   C6A 8140   9.675   8.493   7.897  0.3551 -0.1596 -0.0523
  509loPI   C1B 8141  10.890   9.117   9.428 -0.0882  0.1471 -0.0098
  509loPI   C2B 8142  10.925   8.687   9.099  0.2872  0.2041  0.0083
  509loPI   C3B 8143  10.852   8.406   8.771  0.3271  0.0668 -0.0449
  509loPI   C4B 8144  10.920   8.182   8.379  0.0644 -0.0686 -0.1947
  510loPI    C1 8145  13.461   8.968   9.950  0.0430  0.2618 -0.0457
  510loPI    C2 8146  13.818   9.035  10.116  0.1935 -0.1135 -0.2076
  510loPI    C3 8147  13.493   9.003  10.347  0.2947  0.0291 -0.0428
  510loPI   PO4 8148  13.520   8.871   9.788 -0.1496 -0.2609  0.0530
  510loPI   GL1 8149  13.541   9.152   9.379 -0.1283 -0.1036 -0.1622
  510loPI   GL2 8150  13.308   8.970   9.251  0.2772 -0.1361 -0.0083
  510loPI   C1A 8151  13.752   9.011   9.033 -0.3366  0.4319  0.4854
  510loPI   C2A 8152  13.794   9.106   8.551  0.1294  0.2016  0.0354
  510loPI   C3A 8153  13.736   9.212   8.157  0.1462 -0.1641  0.0055
  510loPI   C4A 8154  13.657   9.490   7.731  0.0451  0.1817  0.3663
  510loPI   C5A 8155  13.548   9.405   7.292 -0.0058  0.1831 -0.1663
  510loPI   C6A 8156  13.251   9.461   7.054  0.2627  0.1294 -0.1665
  510loPI   C1B 8157  13.359   9.132   8.780  0.1771 -0.3655 -0.2896
  510loPI   C2B 8158  13.257   9.127   8.323  0.1928  0.0203 -0.0279
  510loPI   C3B 8159  13.203   9.217   7.909  0.1417 -0.0592  0.0543
  510loPI   C4B 8160  13.076   9.206   7.518 -0.1384 -0.4970 -0.0670
  511loPI    C1 8161   1.798   5.116   9.717 -0.2022 -0.0790  0.0605
  511loPI    C2 8162   1.919   5.181  10.093 -0.0580  0.1366 -0.0211
  511loPI    C3 8163   1.694   4.862  10.007 -0.0414  0.0535  0.2371
  511loPI   PO4 8164   1.913   5.373   9.534 -0.1276  0.4316 -0.1847
  511loPI   GL1 8165   2.003   5.579   9.117 -0.0293 -0.1671 -0.0998
  511loPI   GL2 8166   1.667   5.641   9.164 -0.1337 -0.1786  0.3002
  511loPI   C1A 8167   1.881   5.549   8.685  0.1001 -0.2132 -0.1318
  511loPI   C2A 8168   1.709   5.790   8.376  0.3535  0.2071 -0.3369
  511loPI   C3A 8169   1.819   5.898   8.057 -0.0540 -0.1141  0.2023
  511loPI   C4A 8170   2.023   6.149   7.672  0.1796  0.0574  0.0577
  511loPI   C5A 8171   2.277   6.372   7.568 -0.0973  0.0976 -0.2713
  511loPI   C6A 8172   2.666   6.441   7.359  0.1700  0.0845  0.0834
  511loPI   C1B 8173   1.888   6.057   8.933 -0.5657 -0.0202  0.4447
  511loPI   C2B 8174   2.328   6.264   8.754 -0.3865  0.1316  0.3471
  511loPI   C3B 8175   2.307   6.600   8.390  0.1730  0.1871 -0.0131
  511loPI   C4B 8176   2.503   6.622   7.999  0.0068  0.3015 -0.0096
  512loPI    C1 8177  14.945  14.318   9.501  0.1295  0.1660  0.0587
  512loPI    C2 8178  14.568  14.184   9.497  0.2094 -0.0618  0.0267
  512loPI    C3 8179  14.684  14.445   9.777  0.0193  0.0377  0.0146
  512loPI   PO4 8180  15.037  14.264   9.150 -0.1072 -0.0421  0.2425
  512loPI   GL1 8181  15.369  14.176   8.826 -0.0202  0.5559 -0.0730
  512loPI   GL2 8182  15.529  14.435   8.912  0.2367 -0.0006 -0.0859
  512loPI   C1A 8183  15.309  14.023   8.366  0.1479  0.1167 -0.1706
  512loPI   C2A 8184  15.396  13.874   7.953  0.1279  0.0309 -0.1695
  512loPI   C3A 8185  15.227  13.571   7.603 -0.0587  0.0119  0.0981
  512loPI   C4A 8186  15.194  13.314   7.228  0.0773 -0.2185 -0.0299
  512loPI   C5A 8187  15.193  12.884   7.012  0.0592 -0.1880  0.3175
  512loPI   C6A 8188  15.122  12.657   6.803 -0.0814 -0.1486  0.0841
  512loPI   C1B 8189  15.523  14.511   8.504 -0.0847  0.3956  0.3835
  512loPI   C2B 8190  15.707  14.676   8.077  0.1436 -0.3885  0.2238
  512loPI   C3B 8191  15.989  14.564   7.721 -0.1795 -0.0936 -0.0252
  512loPI   C4B 8192  16.419  14.620   7.511  0.0567 -0.0935  0.0159
  513loPI    C1 8193   6.594   6.629  10.157  0.2736  0.2844  0.1832
  513loPI    C2 8194   6.471   6.343  10.408 -0.0886  0.0908 -0.2030
  513loPI    C3 8195   6.849   6.346  10.279 -0.0413 -0.1215 -0.0748
  513loPI   PO4 8196   6.323   6.658   9.960 -0.0005  0.1299 -0.0741
  513loPI   GL1 8197   6.341   6.710   9.513 -0.3035  0.0859  0.2988
  513loPI   GL2 8198   6.408   6.270   9.440 -0.2143 -0.4879  0.1693
  513loPI   C1A 8199   6.494   7.077   9.197  0.2825 -0.0531 -0.0500
  513loPI   C2A 8200   6.587   7.077   8.801  0.2279 -0.2781  0.0552
  513loPI   C3A 8201   6.711   7.166   8.394  0.0322  0.1657  0.0820
  513loPI   C4A 8202   6.985   7.111   8.115  0.3154 -0.0689  0.1249
  513loPI   C5A 8203   6.927   6.991   7.705  0.0753 -0.3036 -0.2076
  513loPI   C6A 8204   7.029   7.261   7.357 -0.1246 -0.0010 -0.2863
  513loPI   C1B 8205   6.728   6.519   9.332 -0.0749  0.0462 -0.1516
  513loPI   C2B 8206   6.843   6.580   8.906 -0.3604  0.1401  0.3112
  513loPI   C3B 8207   6.930   6.657   8.462  0.1712  0.2156 -0.0989
  513loPI   C4B 8208   7.186   6.692   8.029 -0.2722  0.1213 -0.2530
  514loPI    C1 8209   4.422   2.679   9.774  0.1239 -0.0805 -0.0877
  514loPI    C2 8210   4.675   2.500  10.027  0.2488  0.0505 -0.1183
  514loPI    C3 8211   4.410   2.766  10.164  0.0513 -0.1676 -0.0702
  514loPI   PO4 8212   4.552   2.847   9.622 -0.1425  0.0566  0.1428
  514loPI   GL1 8213   4.749   2.860   9.206 -0.1388  0.1559  0.2258
  514loPI   GL2 8214   4.770   3.165   9.029  0.0488  0.1369  0.1405
  514loPI   C1A 8215   4.931   2.709   8.796 -0.1397  0.1604  0.5002
  514loPI   C2A 8216   5.048   2.783   8.396  0.0795 -0.2940  0.1750
  514loPI   C3A 8217   5.171   2.766   8.013  0.2579 -0.1584 -0.0012
  514loPI   C4A 8218   5.151   2.752   7.648 -0.1734  0.3073 -0.2049
  514loPI   C5A 8219   4.989   2.955   7.296  0.1401 -0.0855  0.0193
  514loPI   C6A 8220   5.003   3.282   7.100  0.0047  0.1224  0.4669
  514loPI   C1B 8221   5.019   3.265   8.638 -0.0241  0.1509  0.1324
  514loPI   C2B 8222   5.117   3.280   8.245  0.0448 -0.2116  0.1474
  514loPI   C3B 8223   5.237   3.267   7.851  0.1791  0.0372  0.0820
  514loPI   C4B 8224   5.367   3.136   7.478  0.1550 -0.0690 -0.2082
  515loPI    C1 8225   3.707  11.024   9.874  0.0808  0.0079  0.0535
  515loPI    C2 8226   3.651  11.292  10.166 -0.3834 -0.0965  0.0682
  515loPI    C3 8227   3.688  10.904  10.255 -0.1533 -0.0892  0.0126
  515loPI   PO4 8228   3.968  11.097   9.756  0.5896  0.1815 -0.0786
  515loPI   GL1 8229   3.953  11.344   9.369 -0.0113 -0.3722 -0.0803
  515loPI   GL2 8230   3.992  11.087   9.280  0.0895 -0.1239 -0.3161
  515loPI   C1A 8231   4.134  11.441   8.932  0.0596  0.0007  0.5455
  515loPI   C2A 8232   4.121  11.262   8.688  0.2332  0.2816 -0.0981
  515loPI   C3A 8233   4.040  11.215   8.303 -0.1343  0.2061  0.2939
  515loPI   C4A 8234   4.101  11.243   7.959 -0.0224  0.3118  0.0474
  515loPI   C5A 8235   4.074  11.359   7.529 -0.4247  0.1132 -0.0333
  515loPI   C6A 8236   4.275  11.529   7.175 -0.1469  0.1580 -0.1378
  515loPI   C1B 8237   4.198  10.838   8.863  0.3113 -0.0450  0.0286
  515loPI   C2B 8238   4.342  10.799   8.481 -0.1292  0.4010 -0.1732
  515loPI   C3B 8239   4.464  10.845   8.031  0.4580 -0.0737  0.0753
  515loPI   C4B 8240   4.340  10.925   7.596 -0.0302 -0.4506 -0.3426
  516loPI    C1 8241   2.176   4.742   9.898  0.1513  0.1692  0.0155
  516loPI    C2 8242   2.001   4.434  10.084  0.1877 -0.0323 -0.2767
  516loPI    C3 8243   2.372   4.546  10.186 -0.0366  0.2865  0.2259
  516loPI   PO4 8244   2.116   4.694   9.689  0.4525 -0.3629 -0.1833
  516loPI   GL1 8245   2.129   4.943   9.328 -0.0192 -0.0945  0.1199
  516loPI   GL2 8246   2.360   5.256   9.206 -0.0588 -0.2458 -0.4858
  516loPI   C1A 8247   2.094   4.817   8.877 -0.1158  0.2155  0.0866
  516loPI   C2A 8248   2.049   4.973   8.422 -0.1776  0.2632  0.1375
  516loPI   C3A 8249   1.806   5.182   8.242 -0.2091  0.2422  0.0574
  516loPI   C4A 8250   1.752   4.958   7.760  0.1907 -0.3398  0.1500
  516loPI   C5A 8251   1.988   4.780   7.416  0.3364 -0.4382  0.2602
  516loPI   C6A 8252   2.236   4.709   7.108  0.1239 -0.0417 -0.1982
  516loPI   C1B 8253   2.586   4.988   8.927  0.1296 -0.4050 -0.0276
  516loPI   C2B 8254   2.558   4.711   8.614  0.0819 -0.2742  0.0003
  516loPI   C3B 8255   2.497   4.792   8.154  0.0653  0.0702  0.4350
  516loPI   C4B 8256   2.237   4.855   7.847  0.0328 -0.1494 -0.4093
  517loPI    C1 8257  13.503  15.881   9.619  0.2240 -0.0455 -0.0143
  517loPI    C2 8258  13.479  15.757   9.999 -0.1923  0.1118  0.0167
  517loPI    C3 8259  13.379  16.132   9.905  0.0289  0.1115 -0.2332
  517loPI   PO4 8260  13.402  15.629   9.475 -0.1952  0.3477  0.1887
  517loPI   GL1 8261  13.493  15.421   9.134 -0.3911  0.2152 -0.1458
  517loPI   GL2 8262  13.755  15.434   8.912 -0.1700  0.0039 -0.1961
  517loPI   C1A 8263  13.235  15.549   8.800  0.1099 -0.1445 -0.2086
  517loPI   C2A 8264  13.121  15.613   8.357 -0.0117  0.1101 -0.3207
  517loPI   C3A 8265  13.107  15.580   7.923  0.1665  0.2392 -0.0975
  517loPI   C4A 8266  13.299  15.415   7.497  0.0820 -0.0440  0.1716
  517loPI   C5A 8267  13.404  15.090   7.197  0.1589  0.0635  0.0644
  517loPI   C6A 8268  13.379  14.620   7.269  0.1148 -0.1268  0.0979
  517loPI   C1B 8269  13.592  15.273   8.582 -0.0560 -0.3348  0.1292
  517loPI   C2B 8270  13.404  15.237   8.165  0.4136  0.0136 -0.1596
  517loPI   C3B 8271  13.295  15.035   7.776 -0.2028 -0.0584  0.0088
  517loPI   C4B 8272  13.007  14.929   7.481 -0.1930  0.2002 -0.1903
  518loPI    C1 8273   7.074  18.700  10.274  0.0381 -0.3882 -0.2368
  518loPI    C2 8274   6.728  18.776  10.459  0.0765  0.0490 -0.3338
  518loPI    C3 8275   6.978  18.502  10.608 -0.0063  0.2129  0.1212
  518loPI   PO4 8276   7.049  18.628  10.005 -0.0022 -0.0255  0.0808
  518loPI   GL1 8277   7.163  18.723   9.645 -0.2013 -0.0598 -0.4611
  518loPI   GL2 8278   7.237  18.971   9.593 -0.0421  0.2621 -0.1129
  518loPI   C1A 8279   7.048  18.457   9.273  0.0117 -0.1162  0.3346
  518loPI   C2A 8280   7.156  18.331   8.882 -0.1252  0.1286  0.2263
  518loPI   C3A 8281   7.169  18.154   8.503 -0.2714 -0.0282  0.2052
  518loPI   C4A 8282   7.217  17.948   8.114  0.0841 -0.1690  0.3103
  518loPI   C5A 8283   6.980  17.615   7.748  0.1194 -0.0836 -0.3557
  518loPI   C6A 8284   6.661  17.623   7.453  0.2909 -0.3469  0.3767
  518loPI   C1B 8285   7.098  19.017   9.152  0.0850  0.0355  0.0253
  518loPI   C2B 8286   7.111  18.819   8.828 -0.5460 -0.2766 -0.1691
  518loPI   C3B 8287   7.111  18.664   8.415  0.0052 -0.1139 -0.0484
  518loPI   C4B 8288   7.110  18.748   7.969  0.2196 -0.0844  0.1099
  519loPI    C1 8289   9.253  13.078  10.306 -0.0605  0.3309 -0.0977
  519loPI    C2 8290   9.302  13.346  10.599 -0.0226  0.1857  0.0300
  519loPI    C3 8291   9.442  12.974  10.643 -0.2437  0.0890 -0.0665
  519loPI   PO4 8292   9.216  13.320  10.058 -0.3412 -0.0856 -0.0722
  519loPI   GL1 8293   9.403  13.690   9.696 -0.2912 -0.0229 -0.3184
  519loPI   GL2 8294   9.100  13.454   9.618 -0.1275  0.0327  0.1233
  519loPI   C1A 8295   9.690  13.503   9.306 -0.1798 -0.0430 -0.2497
  519loPI   C2A 8296   9.607  13.168   9.062 -0.0810 -0.0313 -0.0387
  519loPI   C3A 8297   9.749  12.943   8.754 -0.0046  0.0961  0.1131
  519loPI   C4A 8298   9.588  12.772   8.490  0.1193  0.0246  0.2848
  519loPI   C5A 8299   9.394  12.844   8.137  0.0004 -0.1309  0.2967
  519loPI   C6A 8300   9.447  13.027   7.772  0.0952 -0.1355  0.2254
  519loPI   C1B 8301   9.217  13.490   9.214  0.1259  0.0155 -0.1862
  519loPI   C2B 8302   9.296  13.545   8.869  0.4910  0.0653  0.0161
  519loPI   C3B 8303   9.370  13.272   8.564 -0.2872 -0.2085 -0.0510
  519loPI   C4B 8304   9.265  13.296   8.148  0.1273  0.1501  0.0537
  520loPI    C1 8305   8.208  11.383   9.852  0.0323  0.0171 -0.0329
  520loPI    C2 8306   8.599  11.463   9.875  0.0674 -0.1707  0.0338
  520loPI    C3 8307   8.412  11.287  10.182 -0.1091  0.0855  0.0755
  520loPI   PO4 8308   8.030  11.643   9.777  0.0939 -0.0134 -0.0177
  520loPI   GL1 8309   7.833  11.781   9.459 -0.0133  0.2360 -0.1685
  520loPI   GL2 8310   7.599  11.971   9.483  0.0283  0.2056 -0.0182
  520loPI   C1A 8311   8.152  12.016   9.215  0.1342  0.3116 -0.0689
  520loPI   C2A 8312   8.347  12.360   9.110 -0.0943  0.1960 -0.1814
  520loPI   C3A 8313   8.268  12.676   8.792 -0.1574  0.2538 -0.1776
  520loPI   C4A 8314   8.041  12.808   8.425 -0.2169  0.0150 -0.0207
  520loPI   C5A 8315   8.149  12.915   8.060 -0.1691  0.3446 -0.0159
  520loPI   C6A 8316   8.385  13.225   7.685  0.1108  0.2217  0.1278
  520loPI   C1B 8317   7.548  12.055   9.024  0.0822  0.0415  0.0702
  520loPI   C2B 8318   7.632  12.067   8.618  0.1792 -0.0737 -0.4610
  520loPI   C3B 8319   7.563  11.949   8.229  0.1314 -0.2344  0.2001
  520loPI   C4B 8320   7.390  11.780   7.883 -0.1206 -0.1119  0.3287
  521loPI    C1 8321  14.707   4.582  10.080 -0.2477 -0.0583  0.0833
  521loPI    C2 8322  15.040   4.617  10.298 -0.0930 -0.0544 -0.1511
  521loPI    C3 8323  14.789   4.926  10.266  0.0092  0.0265 -0.1797
  521loPI   PO4 8324  14.826   4.443   9.860  0.0168  0.0925 -0.1415
  521loPI   GL1 8325  15.107   4.459   9.527 -0.5872  0.1263 -0.3077
  521loPI   GL2 8326  15.374   4.335   9.434 -0.0784  0.3212 -0.0229
  521loPI   C1A 8327  14.928   4.443   9.120 -0.2449  0.0711  0.2793
  521loPI   C2A 8328  14.913   4.514   8.635 -0.2076  0.0589  0.4759
  521loPI   C3A 8329  14.946   4.653   8.275 -0.3936 -0.0081  0.1904
  521loPI   C4A 8330  15.026   4.696   7.950 -0.3567 -0.2794 -0.0577
  521loPI   C5A 8331  15.139   4.609   7.554  0.1799 -0.3886 -0.2337
  521loPI   C6A 8332  15.474   4.304   7.444  0.1025  0.0308 -0.0719
  521loPI   C1B 8333  15.347   4.086   8.945 -0.1701 -0.0359  0.1004
  521loPI   C2B 8334  15.239   4.116   8.539  0.1726 -0.0417 -0.2949
  521loPI   C3B 8335  15.176   4.303   8.135  0.2800  0.0298  0.0947
  521loPI   C4B 8336  15.060   4.122   7.741 -0.2162  0.2845 -0.0914
  522loPI    C1 8337   7.073   9.678  10.318  0.0215 -0.0356 -0.0174
  522loPI    C2 8338   6.808   9.822  10.581  0.0047  0.0872 -0.1005
  522loPI    C3 8339   7.174   9.716  10.703  0.0774  0.3684 -0.0672
  522loPI   PO4 8340   7.043   9.829  10.125  0.0917  0.0524 -0.0482
  522loPI   GL1 8341   6.985   9.887   9.750 -0.0130  0.2022  0.0275
  522loPI   GL2 8342   6.783  10.001   9.623 -0.2971 -0.0003  0.0613
  522loPI   C1A 8343   7.061   9.553   9.380 -0.0912 -0.2698  0.1750
  522loPI   C2A 8344   7.057   9.520   8.865  0.0993  0.0260  0.0839
  522loPI   C3A 8345   7.175   9.658   8.486 -0.1805 -0.1424  0.0222
  522loPI   C4A 8346   7.227   9.511   8.029 -0.3152  0.1778 -0.4727
  522loPI   C5A 8347   7.189   9.473   7.512  0.1897  0.1446 -0.0704
  522loPI   C6A 8348   7.184   9.513   7.116  0.3585 -0.2098  0.0915
  522loPI   C1B 8349   6.709   9.997   9.123  0.0778 -0.4792 -0.5642
  522loPI   C2B 8350   6.627   9.992   8.688 -0.2694 -0.0312 -0.0972
  522loPI   C3B 8351   6.671   9.878   8.262  0.2690 -0.4784  0.2038
  522loPI   C4B 8352   6.550  10.104   7.857 -0.0439 -0.0689 -0.0849
  523loPI    C1 8353   1.464  18.834   9.542 -0.0251 -0.0459 -0.0747
  523loPI    C2 8354   1.333  18.495   9.710  0.0112  0.0356  0.1208
  523loPI    C3 8355   1.073  18.782   9.609  0.0119  0.0881  0.2648
  523loPI   PO4 8356   1.774  18.828   9.381  0.0607  0.1429  0.1343
  523loPI   GL1 8357   1.644  18.837   8.992  0.0422  0.1803  0.0885
  523loPI   GL2 8358   1.697  19.164   9.062  0.2528  0.0547 -0.0934
  523loPI   C1A 8359   1.458  18.758   8.640 -0.0212 -0.3126 -0.0458
  523loPI   C2A 8360   1.395  18.853   8.196 -0.3335  0.0481  0.3719
  523loPI   C3A 8361   1.239  18.878   7.800  0.4111 -0.0974 -0.0414
  523loPI   C4A 8362   1.261  18.919   7.345  0.1447  0.2117  0.1002
  523loPI   C5A 8363   1.543  19.044   7.038  0.1801  0.0180 -0.1831
  523loPI   C6A 8364   1.878  19.304   6.978  0.0178  0.1322 -0.2079
  523loPI   C1B 8365   1.761  19.174   8.608 -0.0636 -0.2133 -0.1276
  523loPI   C2B 8366   1.825  19.248   8.206 -0.1651  0.0084  0.2579
  523loPI   C3B 8367   1.978  19.481   7.888  0.2777 -0.3668 -0.0343
  523loPI   C4B 8368   2.072  19.914   7.798 -0.5324  0.1562  0.4516
  524loPI    C1 8369  18.912  10.396   9.354 -0.3406 -0.1321 -0.0940
  524loPI    C2 8370  19.175  10.361   9.653 -0.1105  0.1107 -0.2632
  524loPI    C3 8371  19.052  10.036   9.456 -0.0804 -0.0243 -0.0624
  524loPI   PO4 8372  18.992  10.570   9.227  0.1980 -0.0606 -0.1146
  524loPI   GL1 8373  18.981  10.934   8.978 -0.0772  0.0468  0.4026
  524loPI   GL2 8374  19.331  10.899   9.024 -0.0012 -0.1641  0.0064
  524loPI   C1A 8375  18.873  11.120   8.713 -0.0809 -0.0692  0.0332
  524loPI   C2A 8376  18.805  11.095   8.377 -0.1403  0.6240 -0.0340
  524loPI   C3A 8377  18.787  11.257   8.099 -0.1625 -0.1079 -0.1501
  524loPI   C4A 8378  18.913  11.306   7.737 -0.1160  0.1820  0.1709
  524loPI   C5A 8379  18.747  11.489   7.344 -0.3349 -0.4752  0.0057
  524loPI   C6A 8380  18.352  11.332   7.313  0.1195  0.0010  0.1700
  524loPI   C1B 8381  19.179  10.822   8.567 -0.1992  0.0842 -0.1460
  524loPI   C2B 8382  19.161  10.855   8.067  0.2458 -0.0338  0.1520
  524loPI   C3B 8383  19.241  10.904   7.585  0.2690 -0.0999 -0.2066
  524loPI   C4B 8384  19.104  10.686   7.343 -0.1550 -0.0359  0.1016
  525loPI    C1 8385  13.448  11.196   9.804  0.0454  0.0684  0.0900
  525loPI    C2 8386  13.185  11.244   9.506  0.0087 -0.1012  0.0943
  525loPI    C3 8387  13.074  11.313   9.884  0.0569  0.1194  0.0692
  525loPI   PO4 8388  13.666  11.062   9.553  0.1887  0.0812  0.3014
  525loPI   GL1 8389  13.437  10.656   9.297  0.0035 -0.3714  0.0105
  525loPI   GL2 8390  13.442  10.783   9.099  0.0862  0.1226  0.5882
  525loPI   C1A 8391  13.352  10.270   9.063  0.0025  0.1096 -0.2437
  525loPI   C2A 8392  13.349  10.164   8.615  0.1545  0.0490 -0.3590
  525loPI   C3A 8393  13.293  10.272   8.131 -0.0084 -0.4032 -0.0619
  525loPI   C4A 8394  13.364  10.238   7.633  0.2736 -0.1147  0.2580
  525loPI   C5A 8395  13.113  10.380   7.333 -0.2541  0.0884 -0.3052
  525loPI   C6A 8396  13.191  10.709   7.146 -0.0914 -0.2419  0.2096
  525loPI   C1B 8397  13.689  10.950   8.878 -0.1744 -0.2118  0.0989
  525loPI   C2B 8398  13.965  11.179   8.754  0.1014 -0.1741 -0.0070
  525loPI   C3B 8399  14.351  11.325   8.918  0.1019 -0.1790 -0.0988
  525loPI   C4B 8400  14.726  11.557   8.893  0.1496  0.3582  0.1873
  526loPI    C1 8401  17.141  10.718   9.734 -0.0988  0.0091  0.0753
  526loPI    C2 8402  17.064  10.541  10.085  0.1970 -0.2256  0.0256
  526loPI    C3 8403  16.763  10.677   9.859 -0.0206 -0.4398  0.1818
  526loPI   PO4 8404  17.233  10.529   9.576 -0.0106  0.1075 -0.2470
  526loPI   GL1 8405  17.190  10.703   9.184 -0.2085 -0.1052  0.3232
  526loPI   GL2 8406  17.477  10.616   9.094  0.1368 -0.2537  0.2645
  526loPI   C1A 8407  17.169  10.561   8.744 -0.2991 -0.0549  0.2122
  526loPI   C2A 8408  17.131  10.523   8.342  0.1247  0.0206  0.0165
  526loPI   C3A 8409  17.153  10.620   7.882 -0.0198 -0.0401  0.0629
  526loPI   C4A 8410  17.088  10.526   7.458 -0.0279  0.0730  0.1554
  526loPI   C5A 8411  17.214  10.212   7.109 -0.2683  0.1032  0.2330
  526loPI   C6A 8412  17.374  10.084   6.704  0.1753 -0.1962  0.0795
  526loPI   C1B 8413  17.643  10.381   8.712 -0.1221  0.5495  0.1689
  526loPI   C2B 8414  17.627  10.369   8.336  0.0283 -0.0449 -0.1033
  526loPI   C3B 8415  17.542  10.280   7.873  0.0129 -0.0570 -0.0123
  526loPI   C4B 8416  17.757  10.147   7.489  0.0785 -0.0810  0.1586
  527loPI    C1 8417   1.184   8.185   9.557  0.0710 -0.0194  0.0110
  527loPI    C2 8418   1.166   8.152   9.956 -0.2960  0.0514  0.0043
  527loPI    C3 8419   1.239   8.508   9.788  0.0960 -0.0221  0.0088
  527loPI   PO4 8420   1.274   7.966   9.529  0.1529 -0.0331  0.2197
  527loPI   GL1 8421   1.133   7.649   9.239 -0.1058 -0.1903  0.0789
  527loPI   GL2 8422   1.050   7.866   8.862  0.0089  0.1013  0.1055
  527loPI   C1A 8423   1.078   7.378   8.863  0.0892  0.2760  0.1449
  527loPI   C2A 8424   0.953   7.170   8.466  0.1223  0.3055  0.2744
  527loPI   C3A 8425   0.866   6.955   8.114 -0.1058 -0.1448 -0.1943
  527loPI   C4A 8426   0.740   6.841   7.659  0.4744 -0.2896  0.0498
  527loPI   C5A 8427   0.871   6.557   7.332  0.0772 -0.2195 -0.2764
  527loPI   C6A 8428   0.775   6.391   6.900 -0.0827 -0.0968 -0.0125
  527loPI   C1B 8429   1.234   7.704   8.506 -0.0833 -0.0721  0.0206
  527loPI   C2B 8430   1.253   7.513   8.179 -0.1417 -0.1317 -0.0124
  527loPI   C3B 8431   1.004   7.444   7.918 -0.2857 -0.4244  0.4139
  527loPI   C4B 8432   0.882   7.303   7.434 -0.0503  0.0880 -0.0147
  528loPI    C1 8433  17.570   8.528   9.452  0.1415 -0.0907  0.2378
  528loPI    C2 8434  17.360   8.548   9.792  0.0653 -0.0074  0.1861
  528loPI    C3 8435  17.639   8.823   9.712 -0.2993  0.2984 -0.0708
  528loPI   PO4 8436  17.413   8.228   9.380  0.0100  0.1600 -0.0686
  528loPI   GL1 8437  17.535   7.920   9.012  0.1800  0.2170  0.2619
  528loPI   GL2 8438  17.320   7.845   9.030 -0.1580  0.0029  0.1124
  528loPI   C1A 8439  17.421   8.168   8.667 -0.2620  0.0749  0.0711
  528loPI   C2A 8440  17.471   8.138   8.226  0.1611 -0.2249 -0.1999
  528loPI   C3A 8441  17.370   8.026   7.793  0.0794  0.0922  0.2435
  528loPI   C4A 8442  17.745   7.782   7.741  0.1114 -0.3833 -0.1614
  528loPI   C5A 8443  17.973   7.444   7.437  0.0365  0.0860  0.2376
  528loPI   C6A 8444  18.136   7.017   7.420  0.1232  0.3240 -0.0186
  528loPI   C1B 8445  17.220   7.744   8.585 -0.0534 -0.1129 -0.0257
  528loPI   C2B 8446  16.979   7.778   8.137  0.0397 -0.0910 -0.2152
  528loPI   C3B 8447  16.914   7.763   7.707 -0.1866 -0.1272  0.0006
  528loPI   C4B 8448  16.695   7.631   7.303  0.0951 -0.1671  0.0006
  529loPI    C1 8449   7.651   2.601   9.651 -0.0209 -0.0207  0.1752
  529loPI    C2 8450   7.777   2.352   9.937  0.0271  0.1806  0.3316
  529loPI    C3 8451   7.808   2.747   9.988  0.0245  0.2189  0.0524
  529loPI   PO4 8452   7.551   2.462   9.479 -0.2310  0.0848 -0.0680
  529loPI   GL1 8453   7.590   2.164   9.188 -0.3011  0.2508  0.1551
  529loPI   GL2 8454   7.678   1.883   9.180  0.0051 -0.1031 -0.1808
  529loPI   C1A 8455   7.738   2.267   8.856  0.0195  0.2762 -0.0486
  529loPI   C2A 8456   7.601   2.329   8.475 -0.1956  0.1203 -0.1799
  529loPI   C3A 8457   7.582   2.522   8.104  0.0433  0.0885  0.2193
  529loPI   C4A 8458   7.445   2.450   7.698  0.0821  0.0847 -0.1175
  529loPI   C5A 8459   7.454   2.602   7.327 -0.2106 -0.0489  0.0718
  529loPI   C6A 8460   7.639   2.584   6.891 -0.1191 -0.3579 -0.3454
  529loPI   C1B 8461   7.728   1.782   8.735  0.3238 -0.2631 -0.2702
  529loPI   C2B 8462   7.540   1.803   8.345  0.3192  0.1912  0.3323
  529loPI   C3B 8463   7.291   1.570   8.051 -0.0976 -0.1206  0.0836
  529loPI   C4B 8464   7.244   1.610   7.597 -0.2776 -0.2465  0.3376
  530loPI    C1 8465   6.619  15.077  10.510  0.0233  0.0276 -0.0331
  530loPI    C2 8466   6.255  14.917  10.553 -0.0413  0.1500 -0.1167
  530loPI    C3 8467   6.537  14.851  10.829 -0.1881  0.2203  0.0523
  530loPI   PO4 8468   6.742  14.982  10.331 -0.1317 -0.1045 -0.0418
  530loPI   GL1 8469   6.877  15.258   9.912 -0.3175  0.2363  0.0835
  530loPI   GL2 8470   7.088  15.410   9.612 -0.2489  0.4443 -0.1926
  530loPI   C1A 8471   6.639  15.223   9.494  0.3039  0.0390  0.0844
  530loPI   C2A 8472   6.583  15.224   9.104 -0.3730 -0.1911  0.0680
  530loPI   C3A 8473   6.578  15.411   8.663  0.3468 -0.0393 -0.2528
  530loPI   C4A 8474   6.753  15.572   8.297 -0.0877  0.2850 -0.0277
  530loPI   C5A 8475   6.901  15.585   7.995  0.2511 -0.1135  0.3191
  530loPI   C6A 8476   7.227  15.604   7.760 -0.1684  0.1492 -0.2392
  530loPI   C1B 8477   7.098  15.259   9.094  0.0934  0.3639  0.0531
  530loPI   C2B 8478   6.961  15.099   8.654 -0.2034 -0.2449 -0.3114
  530loPI   C3B 8479   6.656  15.064   8.255 -0.1347  0.0208  0.0582
  530loPI   C4B 8480   6.450  15.222   7.909  0.1676  0.2121  0.4444
  531loPI    C1 8481   2.225  10.816   9.526  0.2211 -0.2439  0.0585
  531loPI    C2 8482   2.347  11.192   9.464 -0.0593 -0.1691 -0.0568
  531loPI    C3 8483   2.050  11.118   9.721  0.2264 -0.3500  0.2291
  531loPI   PO4 8484   2.166  10.603   9.285 -0.1856  0.0767  0.0988
  531loPI   GL1 8485   2.245  10.816   8.906  0.1887 -0.1693  0.0243
  531loPI   GL2 8486   1.967  10.827   8.825 -0.0622  0.0477 -0.1846
  531loPI   C1A 8487   2.389  10.593   8.537  0.0959 -0.4788  0.0334
  531loPI   C2A 8488   2.352  10.597   8.067 -0.2672  0.1390  0.2385
  531loPI   C3A 8489   2.252  10.584   7.707  0.1757 -0.1130 -0.2226
  531loPI   C4A 8490   2.390  10.497   7.405  0.1142 -0.6011  0.0343
  531loPI   C5A 8491   2.695  10.290   7.163 -0.1378 -0.4270 -0.0471
  531loPI   C6A 8492   3.147  10.474   7.203  0.4451 -0.0326  0.4832
  531loPI   C1B 8493   1.929  10.834   8.386 -0.1458 -0.0039  0.4703
  531loPI   C2B 8494   1.894  10.832   7.904  0.1070  0.2132  0.2173
  531loPI   C3B 8495   1.853  10.804   7.401 -0.0260  0.0982 -0.3111
  531loPI   C4B 8496   1.704  11.056   7.098  0.1425 -0.0960  0.2923
  532loPI    C1 8497   5.296  12.309  10.194 -0.0882 -0.0244  0.1134
  532loPI    C2 8498   5.416  12.204  10.561  0.0471  0.1608  0.1236
  532loPI    C3 8499   5.215  12.546  10.506 -0.2848 -0.0380  0.0741
  532loPI   PO4 8500   5.454  12.235  10.084 -0.1466  0.0821  0.1733
  532loPI   GL1 8501   5.542  11.990   9.622  0.0758  0.3425  0.2339
  532loPI   GL2 8502   5.359  11.808   9.762 -0.2336 -0.0177  0.2018
  532loPI   C1A 8503   5.321  12.223   9.327 -0.0805  0.1281 -0.0343
  532loPI   C2A 8504   5.209  12.553   9.144  0.0611  0.0073 -0.0079
  532loPI   C3A 8505   5.207  12.593   8.753  0.3622 -0.0910 -0.0566
  532loPI   C4A 8506   5.273  12.569   8.303  0.2021 -0.1771  0.0224
  532loPI   C5A 8507   5.374  12.300   8.010  0.0017 -0.0617  0.0849
  532loPI   C6A 8508   5.640  12.377   7.647 -0.2802  0.3478  0.3627
  532loPI   C1B 8509   5.387  11.487   9.405 -0.1077 -0.2534  0.0156
  532loPI   C2B 8510   5.212  11.175   9.102  0.2858 -0.3551 -0.0731
  532loPI   C3B 8511   5.172  10.998   8.612 -0.0417 -0.0303 -0.0828
  532loPI   C4B 8512   5.399  10.979   8.221  0.0938  0.0800  0.0835
  533loPI    C1 8513  10.802  10.755  10.106  0.1811  0.0021 -0.1125
  533loPI    C2 8514  10.509  10.483  10.130  0.1310  0.0694  0.0588
  533loPI    C3 8515  10.882  10.369  10.041  0.0082  0.0134 -0.4119
  533loPI   PO4 8516  10.764  10.925   9.879 -0.2082 -0.1894  0.1172
  533loPI   GL1 8517  10.643  10.810   9.432  0.1600  0.2162  0.1820
  533loPI   GL2 8518  10.685  10.583   9.543 -0.0835 -0.0312 -0.1209
  533loPI   C1A 8519  10.411  10.855   9.025 -0.2793  0.2211 -0.1815
  533loPI   C2A 8520  10.372  10.870   8.576  0.1741 -0.2299 -0.1191
  533loPI   C3A 8521  10.280  10.897   8.262  0.2507  0.0810  0.1402
  533loPI   C4A 8522  10.589  11.049   7.955  0.0108  0.1616  0.0402
  533loPI   C5A 8523  10.811  11.422   7.752 -0.2421 -0.0080  0.0024
  533loPI   C6A 8524  10.907  11.840   7.702  0.1346  0.3810  0.1244
  533loPI   C1B 8525  10.780  10.417   9.154  0.0161 -0.1678 -0.1922
  533loPI   C2B 8526  10.548  10.403   8.754 -0.4384 -0.1527  0.0533
  533loPI   C3B 8527  10.472  10.449   8.336  0.3835  0.1587 -0.0103
  533loPI   C4B 8528  10.381  10.569   7.885  0.0343  0.2892  0.1352
  534loPI    C1 8529  13.776   2.651  10.382  0.1383 -0.0626 -0.2147
  534loPI    C2 8530  13.730   2.289  10.544  0.0859 -0.0079 -0.1066
  534loPI    C3 8531  13.933   2.330  10.202  0.0292 -0.1483 -0.1580
  534loPI   PO4 8532  13.538   2.759  10.328 -0.5425  0.1633  0.1560
  534loPI   GL1 8533  13.255   2.758   9.974  0.1816  0.0892 -0.1008
  534loPI   GL2 8534  13.161   2.526   9.706  0.0331  0.2948 -0.1904
  534loPI   C1A 8535  13.402   3.008   9.699 -0.2770 -0.0705  0.2358
  534loPI   C2A 8536  13.417   3.082   9.246 -0.0702 -0.1023  0.3425
  534loPI   C3A 8537  13.371   3.007   8.823  0.1465 -0.2426 -0.0163
  534loPI   C4A 8538  13.519   2.892   8.395  0.1347  0.1783 -0.1989
  534loPI   C5A 8539  13.531   3.024   7.971 -0.0130  0.0437  0.0695
  534loPI   C6A 8540  13.499   2.832   7.535  0.0942  0.0178 -0.1816
  534loPI   C1B 8541  13.085   2.695   9.464  0.0713 -0.1637 -0.3328
  534loPI   C2B 8542  13.027   2.742   9.079 -0.2022  0.0284 -0.1705
  534loPI   C3B 8543  13.161   2.560   8.667  0.0990 -0.1819 -0.1040
  534loPI   C4B 8544  13.215   2.421   8.296 -0.0178  0.1670 -0.0873
  535loPI    C1 8545   2.854  18.486   9.754  0.0833  0.0523  0.0725
  535loPI    C2 8546   2.600  18.382  10.045  0.0508 -0.0176  0.0194
  535loPI    C3 8547   2.945  18.562  10.136 -0.0028  0.0479  0.0941
  535loPI   PO4 8548   2.749  18.365   9.514 -0.1431 -0.3075  0.1581
  535loPI   GL1 8549   3.033  18.404   9.169 -0.1009 -0.2388  0.0349
  535loPI   GL2 8550   3.174  18.570   9.325 -0.1209 -0.2199  0.0927
  535loPI   C1A 8551   2.952  18.346   8.682  0.1151  0.1849 -0.3335
  535loPI   C2A 8552   3.054  18.293   8.233  0.2464 -0.2544 -0.4114
  535loPI   C3A 8553   2.965  18.378   7.852  0.1777 -0.1143  0.2117
  535loPI   C4A 8554   3.083  18.505   7.363 -0.2139 -0.2442  0.0594
  535loPI   C5A 8555   3.242  18.887   7.099 -0.2349 -0.1851 -0.3204
  535loPI   C6A 8556   3.102  19.243   7.015  0.0235 -0.0116 -0.0228
  535loPI   C1B 8557   3.123  18.899   8.962  0.3185  0.0590 -0.1121
  535loPI   C2B 8558   2.959  18.899   8.599 -0.0167 -0.1106  0.0715
  535loPI   C3B 8559   2.938  18.878   8.210  0.0052 -0.2607  0.0540
  535loPI   C4B 8560   2.868  19.081   7.934  0.0156 -0.2003 -0.2230
  536loPI    C1 8561   0.474  13.721   9.876  0.2607 -0.0649 -0.2822
  536loPI    C2 8562   0.566  14.052  10.082  0.3711 -0.2503 -0.0272
  536loPI    C3 8563   0.670  13.693  10.224 -0.1611 -0.4271 -0.0641
  536loPI   PO4 8564   0.437  13.877   9.570  0.0750 -0.0139 -0.2355
  536loPI   GL1 8565   0.726  13.793   9.283  0.0579 -0.0108 -0.0429
  536loPI   GL2 8566   0.784  13.501   9.345  0.0116 -0.0440 -0.0776
  536loPI   C1A 8567   0.617  13.697   8.870 -0.1944  0.2316 -0.2041
  536loPI   C2A 8568   0.398  13.593   8.513 -0.3040  0.0493 -0.1677
  536loPI   C3A 8569   0.249  13.507   8.097 -0.0179 -0.0434 -0.0549
  536loPI   C4A 8570   0.159  13.557   7.613  0.2535 -0.0828  0.4905
  536loPI   C5A 8571  -0.173  13.551   7.362 -0.2003  0.2680  0.2206
  536loPI   C6A 8572  -0.416  13.214   7.139 -0.0177 -0.0916  0.0506
  536loPI   C1B 8573   1.006  13.352   9.042  0.7087 -0.3452 -0.1440
  536loPI   C2B 8574   0.855  13.197   8.687  0.2524  0.0074  0.1913
  536loPI   C3B 8575   0.992  13.153   8.313  0.2000 -0.0814 -0.0391
  536loPI   C4B 8576   1.154  13.241   7.975 -0.1705  0.2544  0.1056
  537loPI    C1 8577  16.001  17.919   9.828  0.0778 -0.0822 -0.0154
  537loPI    C2 8578  16.074  18.171   9.526  0.0487 -0.2619 -0.1742
  537loPI    C3 8579  16.019  18.313   9.896 -0.0301 -0.0308 -0.2725
  537loPI   PO4 8580  16.102  17.646   9.729  0.1308 -0.1159 -0.3018
  537loPI   GL1 8581  15.799  17.505   9.458 -0.1946 -0.0494 -0.1895
  537loPI   GL2 8582  15.750  17.830   9.361  0.0267  0.0776  0.0054
  537loPI   C1A 8583  15.748  17.539   9.002 -0.0242 -0.2193  0.1880
  537loPI   C2A 8584  15.717  17.480   8.596  0.0945  0.3335  0.0480
  537loPI   C3A 8585  15.690  17.380   8.125  0.3625  0.3559  0.2361
  537loPI   C4A 8586  15.643  17.361   7.763 -0.0415  0.1151  0.2544
  537loPI   C5A 8587  15.498  17.407   7.345  0.0696 -0.1382 -0.0997
  537loPI   C6A 8588  15.207  17.297   7.151 -0.0765  0.0643 -0.1843
  537loPI   C1B 8589  15.792  18.190   9.096 -0.0448 -0.1313  0.3407
  537loPI   C2B 8590  15.957  18.305   8.770  0.2896  0.3038  0.3783
  537loPI   C3B 8591  16.055  18.704   8.561  0.0876  0.1294  0.0784
  537loPI   C4B 8592  16.289  18.936   8.195  0.0197 -0.3731 -0.3691
  538loPI    C1 8593  13.791  13.783   9.562 -0.0980  0.2239 -0.3087
  538loPI    C2 8594  14.114  14.018   9.569  0.1648 -0.1266 -0.3796
  538loPI    C3 8595  13.938  13.910   9.912 -0.1907  0.4730 -0.3579
  538loPI   PO4 8596  13.628  13.919   9.416  0.0671 -0.2622 -0.1299
  538loPI   GL1 8597  13.632  13.977   9.018 -0.0043 -0.0266 -0.1628
  538loPI   GL2 8598  13.412  14.131   8.850 -0.0294  0.0888  0.1018
  538loPI   C1A 8599  13.965  14.030   8.594 -0.2147 -0.2773 -0.2130
  538loPI   C2A 8600  14.159  13.893   8.194  0.1174 -0.0078 -0.2815
  538loPI   C3A 8601  14.247  14.043   7.813 -0.1282  0.0685  0.0741
  538loPI   C4A 8602  14.443  13.895   7.429  0.0607 -0.3349 -0.0228
  538loPI   C5A 8603  14.628  13.912   7.001 -0.2454  0.1556  0.0071
  538loPI   C6A 8604  14.742  14.162   6.679  0.0350 -0.0026  0.1538
  538loPI   C1B 8605  13.238  14.160   8.479 -0.0810 -0.0069  0.1440
  538loPI   C2B 8606  13.235  13.938   8.040 -0.3884 -0.0444  0.0264
  538loPI   C3B 8607  13.133  13.759   7.654  0.4354  0.0568 -0.1354
  538loPI   C4B 8608  13.133  13.604   7.228 -0.4179 -0.1451 -0.2704
  539loPI    C1 8609  18.918  18.657   9.599  0.1257 -0.2327 -0.1327
  539loPI    C2 8610  18.617  18.769   9.837  0.3700  0.3167 -0.0667
  539loPI    C3 8611  18.860  18.471   9.948 -0.0159  0.0101 -0.0245
  539loPI   PO4 8612  18.754  18.712   9.339 -0.0380  0.1925 -0.0245
  539loPI   GL1 8613  18.845  19.099   9.174  0.0453  0.0698  0.0805
  539loPI   GL2 8614  18.496  19.066   9.156 -0.2188  0.2677  0.0866
  539loPI   C1A 8615  18.708  19.447   8.953  0.0018  0.0905  0.1818
  539loPI   C2A 8616  18.856  19.724   8.580  0.1831  0.0800 -0.1999
  539loPI   C3A 8617  18.928  19.856   8.193 -0.1432 -0.2239  0.0038
  539loPI   C4A 8618  19.252  20.132   7.924 -0.3068 -0.2193 -0.5316
  539loPI   C5A 8619  19.507  20.231   7.554  0.1158  0.2778 -0.0670
  539loPI   C6A 8620  19.761  20.559   7.409 -0.1995  0.1652 -0.2415
  539loPI   C1B 8621  18.630  18.973   8.735 -0.0774 -0.0512 -0.0036
  539loPI   C2B 8622  18.651  19.053   8.249  0.2612  0.0779 -0.0153
  539loPI   C3B 8623  18.644  19.088   7.822  0.1625 -0.4275 -0.2846
  539loPI   C4B 8624  18.566  19.164   7.445  0.0224 -0.1974 -0.1998
  540loPI    C1 8625  10.814  15.184  10.242 -0.2032  0.0379 -0.1140
  540loPI    C2 8626  10.873  14.848  10.451  0.1570 -0.0227 -0.3053
  540loPI    C3 8627  10.730  15.174  10.633  0.4850 -0.0675  0.0445
  540loPI   PO4 8628  10.724  15.081   9.942  0.2932 -0.1857  0.2576
  540loPI   GL1 8629  10.603  14.862   9.530 -0.1727  0.2405 -0.0945
  540loPI   GL2 8630  10.625  14.417   9.475 -0.0397 -0.3873 -0.0982
  540loPI   C1A 8631  10.537  14.993   9.165 -0.3925 -0.4777  0.3121
  540loPI   C2A 8632  10.518  15.249   8.750  0.1870  0.0084  0.0461
  540loPI   C3A 8633  10.455  15.186   8.244  0.0924  0.0765  0.0461
  540loPI   C4A 8634  10.544  15.331   7.839  0.2235 -0.1361 -0.1247
  540loPI   C5A 8635  10.420  15.568   7.613  0.1162  0.2329  0.2370
  540loPI   C6A 8636   9.945  15.684   7.633  0.0672  0.2148 -0.3157
  540loPI   C1B 8637  10.521  14.461   9.085  0.1720  0.2035  0.2976
  540loPI   C2B 8638  10.525  14.352   8.690  0.3210 -0.1156 -0.0608
  540loPI   C3B 8639  10.572  14.145   8.330 -0.2636  0.1997  0.2203
  540loPI   C4B 8640  10.588  13.848   8.086 -0.0358  0.1003 -0.1215
  541POPI    C1 8641   9.981  15.349  10.075  0.1980 -0.1665 -0.1275
  541POPI    C2 8642  10.053  15.689  10.273  0.1341 -0.1070 -0.2052
  541POPI    C3 8643   9.857  15.390  10.453 -0.1492  0.0429 -0.2587
  541POPI   PO4 8644  10.030  15.545   9.800  0.1762 -0.1324  0.3105
  541POPI   GL1 8645  10.058  15.670   9.388 -0.1822  0.0204 -0.0177
  541POPI   GL2 8646   9.718  15.647   9.280 -0.1607  0.4425 -0.0903
  541POPI   C1A 8647  10.087  15.399   9.041 -0.0843  0.1801 -0.1778
  541POPI   D2A 8648  10.009  15.319   8.662  0.2779  0.0837  0.0089
  541POPI   C3A 8649   9.671  15.443   8.455  0.5493 -0.0022  0.1941
  541POPI   C4A 8650   9.554  15.638   8.108  0.1464  0.1069 -0.0445
  541POPI   C1B 8651   9.715  15.679   8.921 -0.1063 -0.0183  0.2220
  541POPI   C2B 8652   9.769  15.907   8.509  0.2049  0.1322 -0.0553
  541POPI   C3B 8653   9.901  16.021   8.157 -0.2864  0.0005  0.2306
  541POPI   C4B 8654   9.881  16.207   7.839  0.1068 -0.1541 -0.0786
  542POPI    C1 8655   3.232   8.502   9.698 -0.1639  0.1429  0.1297
  542POPI    C2 8656   3.548   8.592   9.927 -0.0926  0.2076  0.0070
  542POPI    C3 8657   3.178   8.677  10.054 -0.0701  0.0175  0.2065
  542POPI   PO4 8658   3.318   8.500   9.496  0.0933 -0.1923 -0.0402
  542POPI   GL1 8659   3.289   8.472   9.059  0.3514  0.1062 -0.0988
  542POPI   GL2 8660   3.038   8.541   8.803 -0.0152 -0.2529  0.0108
  542POPI   C1A 8661   3.608   8.503   8.767  0.0478 -0.0690 -0.0124
  542POPI   D2A 8662   3.797   8.642   8.414  0.0473 -0.3334  0.2873
  542POPI   C3A 8663   4.034   8.649   8.023  0.1084  0.1273 -0.1197
  542POPI   C4A 8664   3.841   8.823   7.516  0.0757  0.1306  0.3323
  542POPI   C1B 8665   3.196   8.326   8.418 -0.1166  0.1075 -0.3514
  542POPI   C2B 8666   3.131   8.264   7.873 -0.0763  0.0614 -0.1904
  542POPI   C3B 8667   3.316   8.048   7.609  0.0025  0.0785  0.1638
  542POPI   C4B 8668   3.499   8.044   7.271  0.0470  0.1725 -0.0450
  543POPI    C1 8669   5.613   0.596   9.439  0.0192  0.1076  0.0128
  543POPI    C2 8670   5.814   0.709   9.766  0.1415 -0.1249  0.0202
  543POPI    C3 8671   5.617   0.361   9.762  0.1610 -0.1351 -0.1621
  543POPI   PO4 8672   5.721   0.630   9.283 -0.1794 -0.1476 -0.1119
  543POPI   GL1 8673   5.848   0.299   9.040  0.1146 -0.0906  0.2279
  543POPI   GL2 8674   5.473   0.319   9.016 -0.0277  0.2617 -0.1613
  543POPI   C1A 8675   5.766   0.413   8.616  0.1070 -0.0873 -0.0971
  543POPI   D2A 8676   5.438   0.464   8.312 -0.0890  0.1696  0.1694
  543POPI   C3A 8677   5.250   0.169   7.972 -0.2441  0.2403  0.3118
  543POPI   C4A 8678   5.297   0.189   7.530  0.2092 -0.1999 -0.2030
  543POPI   C1B 8679   5.315   0.108   8.597 -0.3901  0.2304  0.2709
  543POPI   C2B 8680   5.112  -0.198   8.306  0.3844  0.1657 -0.0004
  543POPI   C3B 8681   5.250  -0.350   7.988 -0.3789 -0.1262  0.3436
  543POPI   C4B 8682   5.291  -0.459   7.643 -0.0073 -0.1265  0.0640
  544POPI    C1 8683   3.020  12.887  10.011  0.1499  0.1701  0.1196
  544POPI    C2 8684   2.867  12.607  10.252 -0.1206  0.1727 -0.0457
  544POPI    C3 8685   2.627  12.880  10.083  0.1248  0.4344  0.0207
  544POPI   PO4 8686   3.087  12.745   9.716 -0.1215  0.0546 -0.0695
  544POPI   GL1 8687   3.043  12.971   9.341 -0.2623 -0.1277 -0.1216
  544POPI   GL2 8688   3.390  13.090   9.080  0.1784 -0.1819  0.0461
  544POPI   C1A 8689   2.881  13.171   9.047  0.0557  0.2685 -0.1004
  544POPI   D2A 8690   2.876  13.070   8.641 -0.0147  0.0212 -0.5654
  544POPI   C3A 8691   3.037  12.873   8.321 -0.0167 -0.0315  0.5068
  544POPI   C4A 8692   3.180  12.703   7.866  0.0029  0.0047  0.0398
  544POPI   C1B 8693   3.334  13.203   8.611  0.0985  0.0282 -0.1325
  544POPI   C2B 8694   3.400  13.227   8.201  0.0758 -0.5208  0.0363
  544POPI   C3B 8695   3.505  13.228   7.791  0.3071 -0.0123  0.1970
  544POPI   C4B 8696   3.191  13.456   7.564  0.0236 -0.1560  0.1607
  545POPI    C1 8697   8.942   9.186  10.386  0.1435 -0.1129  0.0977
  545POPI    C2 8698   8.668   8.981  10.592 -0.0666 -0.1171 -0.1815
  545POPI    C3 8699   8.701   9.377  10.642  0.1121 -0.1659  0.1076
  545POPI   PO4 8700   9.096   8.987  10.307  0.2217 -0.0636  0.1263
  545POPI   GL1 8701   9.063   8.840   9.860 -0.0083  0.2096 -0.0992
  545POPI   GL2 8702   9.058   8.590   9.613  0.0754 -0.0423 -0.1735
  545POPI   C1A 8703   8.952   9.061   9.427 -0.0012  0.0233  0.0441
  545POPI   D2A 8704   9.186   8.996   9.028 -0.1099  0.2238 -0.1404
  545POPI   C3A 8705   9.055   9.265   8.787  0.1007 -0.2579  0.0059
  545POPI   C4A 8706   8.938   9.642   8.808 -0.2991  0.0515  0.2121
  545POPI   C1B 8707   9.343   8.597   9.256  0.1122 -0.2490  0.0549
  545POPI   C2B 8708   9.504   8.351   9.006 -0.0287 -0.1328 -0.0181
  545POPI   C3B 8709   9.707   8.067   8.761  0.0143  0.1844  0.1502
  545POPI   C4B 8710   9.957   8.000   8.458  0.3531 -0.2705 -0.0568
  546POPI    C1 8711   6.638  11.076  10.216  0.1679 -0.0916  0.0988
  546POPI    C2 8712   6.783  11.102  10.588 -0.0017 -0.0242  0.1611
  546POPI    C3 8713   6.633  11.427  10.409 -0.1711 -0.1148  0.1370
  546POPI   PO4 8714   6.782  11.019   9.976  0.0705  0.0278  0.0460
  546POPI   GL1 8715   6.671  11.188   9.651 -0.1101  0.1395  0.1458
  546POPI   GL2 8716   6.933  11.340   9.440  0.1773  0.0635  0.1380
  546POPI   C1A 8717   6.570  11.174   9.167 -0.0958  0.1688 -0.4570
  546POPI   D2A 8718   6.603  10.954   8.883 -0.2128 -0.1582 -0.5334
  546POPI   C3A 8719   6.711  11.261   8.614 -0.2804  0.1579 -0.0877
  546POPI   C4A 8720   6.648  11.617   8.213  0.1675 -0.1601 -0.0900
  546POPI   C1B 8721   7.059  11.250   9.014 -0.1362  0.1730  0.3202
  546POPI   C2B 8722   7.309  11.237   8.700  0.3164 -0.2658  0.2444
  546POPI   C3B 8723   7.616  11.490   8.429 -0.1821  0.1269  0.2670
  546POPI   C4B 8724   8.015  11.747   8.325  0.4511  0.4973  0.2285
  547POPI    C1 8725  13.325   7.340  10.297  0.0720  0.0594 -0.1675
  547POPI    C2 8726  13.720   7.363  10.359  0.0590 -0.0501 -0.0395
  547POPI    C3 8727  13.512   7.054  10.506 -0.0722 -0.0001 -0.1185
  547POPI   PO4 8728  13.225   7.381  10.000 -0.1162  0.5115  0.0890
  547POPI   GL1 8729  12.946   7.054   9.773  0.1795 -0.0761  0.1101
  547POPI   GL2 8730  13.151   6.885   9.550  0.1814  0.1944 -0.1137
  547POPI   C1A 8731  12.735   7.350   9.539  0.1656 -0.0704 -0.3353
  547POPI   D2A 8732  12.541   7.346   9.129 -0.0039 -0.0164  0.0255
  547POPI   C3A 8733  12.525   7.369   8.664 -0.1212 -0.4047 -0.1845
  547POPI   C4A 8734  12.522   7.463   8.244 -0.4392  0.0991 -0.0648
  547POPI   C1B 8735  12.801   6.909   9.166  0.1229 -0.1136  0.0271
  547POPI   C2B 8736  12.716   6.908   8.711 -0.1910  0.6660  0.2671
  547POPI   C3B 8737  12.656   6.933   8.319  0.0472 -0.0686 -0.0029
  547POPI   C4B 8738  12.666   6.782   7.776 -0.0287 -0.0885  0.3008
  548POPI    C1 8739  12.062   9.279   9.901  0.1360  0.0745  0.3064
  548POPI    C2 8740  12.106   8.960   9.663  0.0653  0.2581  0.0424
  548POPI    C3 8741  11.801   8.976   9.922  0.2108  0.0045  0.2341
  548POPI   PO4 8742  12.123   9.467   9.678 -0.2250 -0.2859  0.1009
  548POPI   GL1 8743  11.774   9.256   9.454 -0.1099 -0.1635  0.2967
  548POPI   GL2 8744  11.503   9.384   9.360 -0.0145  0.0381 -0.1422
  548POPI   C1A 8745  11.883   9.005   9.064  0.1286 -0.0282  0.1157
  548POPI   D2A 8746  11.909   8.978   8.676 -0.0515 -0.0212 -0.1116
  548POPI   C3A 8747  11.651   8.797   8.425  0.2361 -0.0671 -0.0123
  548POPI   C4A 8748  11.492   8.704   7.929  0.0638  0.1790  0.0997
  548POPI   C1B 8749  11.614   9.402   8.886 -0.4909  0.0416  0.0989
  548POPI   C2B 8750  11.403   9.299   8.422  0.0935  0.1172 -0.1329
  548POPI   C3B 8751  11.150   9.367   8.104 -0.1647 -0.1167  0.0436
  548POPI   C4B 8752  10.929   9.030   7.807 -0.3743 -0.4661 -0.0619
  549POPI    C1 8753  15.565  18.635  10.007  0.1078  0.0826 -0.0074
  549POPI    C2 8754  15.237  18.511   9.814  0.0366 -0.0613  0.2024
  549POPI    C3 8755  15.203  18.721  10.153  0.1614  0.1107  0.1101
  549POPI   PO4 8756  15.674  18.722   9.889 -0.2096  0.2532 -0.0312
  549POPI   GL1 8757  15.921  18.797   9.471  0.0805  0.2224  0.1343
  549POPI   GL2 8758  15.926  18.628   9.188 -0.2307  0.0288  0.2558
  549POPI   C1A 8759  16.129  19.149   9.103  0.1855  0.1216  0.0517
  549POPI   D2A 8760  16.203  19.178   8.635 -0.0187 -0.3771  0.2185
  549POPI   C3A 8761  15.983  19.479   8.298  0.0633 -0.1889 -0.4383
  549POPI   C4A 8762  15.733  19.667   7.918 -0.2336  0.3937  0.1803
  549POPI   C1B 8763  15.690  18.946   8.841 -0.0137 -0.2486  0.3149
  549POPI   C2B 8764  15.742  19.055   8.428  0.1266 -0.1377  0.0788
  549POPI   C3B 8765  15.873  19.155   7.953  0.0955  0.1232  0.1512
  549POPI   C4B 8766  15.790  19.017   7.532 -0.0540  0.1449 -0.0813
  550POPI    C1 8767   8.839  12.349  10.434  0.0456 -0.0736 -0.0010
  550POPI    C2 8768   9.126  12.071  10.412  0.0934 -0.0143 -0.1358
  550POPI    C3 8769   8.958  12.157  10.764  0.2897 -0.0010 -0.0442
  550POPI   PO4 8770   8.668  12.286  10.237  0.3668 -0.3769  0.0851
  550POPI   GL1 8771   8.485  12.442   9.852  0.0277  0.3193  0.2120
  550POPI   GL2 8772   8.307  12.652   9.542  0.0903 -0.0908  0.0693
  550POPI   C1A 8773   8.556  12.168   9.560  0.0064  0.1943 -0.0086
  550POPI   D2A 8774   8.411  11.685   9.480 -0.0780 -0.1062 -0.1705
  550POPI   C3A 8775   8.420  11.605   9.060 -0.1660 -0.0366 -0.1770
  550POPI   C4A 8776   8.538  11.456   8.688 -0.1117  0.3936 -0.1790
  550POPI   C1B 8777   8.562  12.812   9.219  0.2030 -0.0391  0.0349
  550POPI   C2B 8778   8.669  12.902   8.824  0.4693  0.1473 -0.0754
  550POPI   C3B 8779   8.595  12.829   8.415  0.1907 -0.1150  0.1572
  550POPI   C4B 8780   8.782  12.626   8.108 -0.0498 -0.3536 -0.1469
  551POPI    C1 8781   3.578   4.336   9.796 -0.1413  0.1673 -0.0622
  551POPI    C2 8782   3.615   4.239  10.183 -0.0473 -0.1597 -0.1499
  551POPI    C3 8783   3.737   4.598  10.054  0.3095 -0.2040  0.0508
  551POPI   PO4 8784   3.335   4.164   9.621 -0.1284 -0.1642 -0.0216
  551POPI   GL1 8785   2.907   4.254   9.371 -0.1951  0.2104 -0.0564
  551POPI   GL2 8786   3.245   4.218   9.150 -0.0022  0.1839  0.2594
  551POPI   C1A 8787   2.849   4.345   8.912  0.2057  0.1387  0.1015
  551POPI   D2A 8788   2.824   4.284   8.488  0.0603  0.4355  0.1811
  551POPI   C3A 8789   2.983   4.588   8.164  0.0002  0.1464 -0.0911
  551POPI   C4A 8790   3.104   4.398   7.678  0.0414  0.0147 -0.0315
  551POPI   C1B 8791   3.194   4.000   8.814 -0.1542 -0.1752  0.1576
  551POPI   C2B 8792   3.135   3.886   8.397  0.3031 -0.5130 -0.0986
  551POPI   C3B 8793   3.198   3.939   7.915  0.1026  0.2290  0.1419
  551POPI   C4B 8794   3.563   3.872   7.687 -0.1807 -0.1029  0.2547
  552POPI    C1 8795   6.657  15.844  10.648  0.0470  0.0978 -0.0073
  552POPI    C2 8796   6.873  16.180  10.631 -0.2122  0.2767  0.1631
  552POPI    C3 8797   6.630  16.114  10.942 -0.2199 -0.0355  0.0938
  552POPI   PO4 8798   6.566  15.917  10.263 -0.2617 -0.3010  0.3474
  552POPI   GL1 8799   6.377  16.261   9.977 -0.0904 -0.3329 -0.0795
  552POPI   GL2 8800   6.209  16.483   9.697  0.1625 -0.4002 -0.0299
  552POPI   C1A 8801   6.625  16.293   9.546  0.0732 -0.2478  0.0825
  552POPI   D2A 8802   6.654  16.319   9.100 -0.3732 -0.1164  0.1301
  552POPI   C3A 8803   6.993  16.215   8.826  0.1639 -0.1239 -0.2114
  552POPI   C4A 8804   7.086  16.013   8.442  0.1796 -0.0681  0.1867
  552POPI   C1B 8805   5.850  16.503   9.366  0.0345  0.1657 -0.1254
  552POPI   C2B 8806   5.877  16.353   8.914 -0.0054  0.1069 -0.3930
  552POPI   C3B 8807   5.829  16.184   8.507 -0.1416 -0.1466 -0.0402
  552POPI   C4B 8808   5.500  16.204   8.195 -0.0611  0.1339 -0.0343
  553POPI    C1 8809   2.441  13.863  10.028 -0.1859 -0.0556  0.0376
  553POPI    C2 8810   2.524  13.745  10.401 -0.2253 -0.0090  0.0614
  553POPI    C3 8811   2.514  14.135  10.313  0.0593 -0.0252 -0.0526
  553POPI   PO4 8812   2.622  13.817   9.886  0.1605 -0.0012  0.1558
  553POPI   GL1 8813   2.521  13.700   9.494  0.1939 -0.0784  0.0839
  553POPI   GL2 8814   2.794  13.882   9.295 -0.1421 -0.2011 -0.0281
  553POPI   C1A 8815   2.239  13.685   9.129 -0.2176 -0.0375 -0.2277
  553POPI   D2A 8816   2.549  13.631   8.758  0.3415 -0.1196 -0.1303
  553POPI   C3A 8817   2.602  13.374   8.367 -0.0118  0.0658 -0.1443
  553POPI   C4A 8818   2.884  13.235   8.002  0.1043 -0.2800  0.1229
  553POPI   C1B 8819   2.837  14.037   8.913  0.0267 -0.0870  0.0494
  553POPI   C2B 8820   2.798  14.160   8.500 -0.0055  0.0560 -0.1460
  553POPI   C3B 8821   2.780  14.274   8.139  0.0510  0.2611  0.0230
  553POPI   C4B 8822   2.510  14.563   7.783 -0.2127  0.1116 -0.1253
  554POPI    C1 8823   1.959  15.414   9.957  0.0127  0.1194  0.1204
  554POPI    C2 8824   2.058  15.669  10.249  0.2739 -0.0470  0.1806
  554POPI    C3 8825   1.861  15.332  10.336  0.1456  0.0150  0.1329
  554POPI   PO4 8826   1.920  15.598   9.755  0.1091  0.3264  0.3229
  554POPI   GL1 8827   1.853  15.682   9.381 -0.3062  0.0897 -0.0112
  554POPI   GL2 8828   1.844  15.365   9.273 -0.1729 -0.1183 -0.0802
  554POPI   C1A 8829   1.486  15.871   9.081  0.0811  0.2495  0.1104
  554POPI   D2A 8830   1.397  16.224   8.804  0.2951  0.3554 -0.0001
  554POPI   C3A 8831   1.303  16.352   8.403 -0.2142 -0.0761  0.4715
  554POPI   C4A 8832   1.414  16.338   7.977 -0.2400 -0.0156 -0.0107
  554POPI   C1B 8833   1.785  15.355   8.882 -0.0383  0.1327 -0.1989
  554POPI   C2B 8834   1.670  15.448   8.494  0.1230 -0.0087  0.2523
  554POPI   C3B 8835   1.603  15.683   8.124 -0.0297  0.1046 -0.0840
  554POPI   C4B 8836   1.267  15.857   7.904 -0.0352  0.1467  0.1276
  555POPI    C1 8837  18.915   7.126   9.667 -0.0592  0.1705  0.0023
  555POPI    C2 8838  19.160   6.810   9.680 -0.0741  0.1489 -0.2019
  555POPI    C3 8839  18.849   6.834   9.931  0.1851  0.2184  0.1189
  555POPI   PO4 8840  18.871   7.081   9.394  0.0895  0.1604 -0.0295
  555POPI   GL1 8841  18.760   6.938   8.932 -0.0496  0.1591 -0.1003
  555POPI   GL2 8842  18.552   6.681   8.852  0.0726  0.1340 -0.1918
  555POPI   C1A 8843  18.544   7.136   8.545  0.0640  0.1790  0.3021
  555POPI   D2A 8844  18.333   7.378   8.170 -0.2050  0.1687  0.3350
  555POPI   C3A 8845  18.442   7.317   7.738  0.2750 -0.1375  0.1949
  555POPI   C4A 8846  18.451   7.644   7.431  0.2367 -0.2369  0.2329
  555POPI   C1B 8847  18.644   6.655   8.406 -0.0683  0.3148 -0.0368
  555POPI   C2B 8848  18.500   6.867   8.110 -0.2733 -0.2755  0.1507
  555POPI   C3B 8849  18.608   6.831   7.782 -0.2045 -0.0486  0.3291
  555POPI   C4B 8850  18.620   6.764   7.320  0.0417  0.2114 -0.2539
  556POPI    C1 8851  19.017   8.404   9.382 -0.0264 -0.0413  0.1125
  556POPI    C2 8852  18.826   8.276   9.709 -0.1679 -0.0063  0.0448
  556POPI    C3 8853  18.997   8.638   9.705 -0.1885  0.0036  0.0711
  556POPI   PO4 8854  18.792   8.356   9.162  0.1647 -0.0335 -0.1201
  556POPI   GL1 8855  18.839   8.523   8.823  0.0847 -0.1291 -0.2938
  556POPI   GL2 8856  19.112   8.632   8.817  0.2558 -0.0413 -0.2606
  556POPI   C1A 8857  18.725   8.417   8.378 -0.0556 -0.0719  0.0163
  556POPI   D2A 8858  18.687   8.294   7.876  0.1560 -0.2299 -0.2284
  556POPI   C3A 8859  18.832   8.477   7.541 -0.0094 -0.1765  0.0966
  556POPI   C4A 8860  19.150   8.635   7.323 -0.0194 -0.0006 -0.1506
  556POPI   C1B 8861  19.189   8.578   8.325  0.0623  0.3352  0.0842
  556POPI   C2B 8862  19.312   8.532   7.999 -0.1707 -0.1039  0.0012
  556POPI   C3B 8863  19.528   8.579   7.565 -0.3297  0.1574 -0.0065
  556POPI   C4B 8864  19.762   8.209   7.334  0.0362  0.2465 -0.0070
  557POPI    C1 8865  12.508   0.703   9.564 -0.1224 -0.0749  0.0739
  557POPI    C2 8866  12.835   0.587   9.365 -0.1452 -0.0502  0.0216
  557POPI    C3 8867  12.859   0.679   9.753 -0.0350  0.2173 -0.0466
  557POPI   PO4 8868  12.440   0.921   9.490 -0.0056  0.1467 -0.1159
  557POPI   GL1 8869  12.765   1.072   9.368  0.1672 -0.1141 -0.1669
  557POPI   GL2 8870  12.719   1.417   9.217 -0.0148 -0.3583  0.1248
  557POPI   C1A 8871  13.061   0.876   9.057 -0.0686  0.1474 -0.0679
  557POPI   D2A 8872  13.146   0.960   8.674 -0.2552  0.2234 -0.1747
  557POPI   C3A 8873  13.120   1.083   8.270 -0.1361 -0.1486  0.0272
  557POPI   C4A 8874  13.255   1.177   7.886 -0.0052  0.0041  0.0927
  557POPI   C1B 8875  12.844   1.438   8.818 -0.1157  0.1828  0.0422
  557POPI   C2B 8876  12.973   1.518   8.358  0.0888  0.0130  0.1986
  557POPI   C3B 8877  12.990   1.586   7.965  0.1561 -0.1112  0.0445
  557POPI   C4B 8878  13.086   1.544   7.504  0.3395  0.0706 -0.1159
  558POPI    C1 8879  17.483   4.338  10.000 -0.2392  0.2627  0.1401
  558POPI    C2 8880  17.376   4.030  10.232  0.0662 -0.0339 -0.1032
  558POPI    C3 8881  17.690   4.257  10.333 -0.0631  0.1040 -0.0060
  558POPI   PO4 8882  17.320   4.370   9.868 -0.1893 -0.0868  0.0567
  558POPI   GL1 8883  17.234   4.379   9.395  0.2330  0.0346  0.0358
  558POPI   GL2 8884  17.500   4.515   9.262  0.0996 -0.0138 -0.2630
  558POPI   C1A 8885  16.879   4.552   9.212  0.4278  0.4159 -0.1268
  558POPI   D2A 8886  16.661   4.601   8.823  0.2419 -0.1111 -0.2335
  558POPI   C3A 8887  16.830   4.804   8.564 -0.0308 -0.2579  0.1536
  558POPI   C4A 8888  16.843   5.116   8.215  0.0206 -0.0196 -0.0394
  558POPI   C1B 8889  17.814   4.346   9.008  0.0228  0.0413  0.1160
  558POPI   C2B 8890  17.815   4.065   8.725  0.0364  0.1715  0.0045
  558POPI   C3B 8891  17.520   3.999   8.551  0.1075 -0.0853  0.0073
  558POPI   C4B 8892  17.405   3.830   8.119  0.0509 -0.0822  0.1636
  559POPI    C1 8893  11.455  12.354  10.375  0.2419  0.1126  0.1307
  559POPI    C2 8894  11.483  12.100  10.683 -0.0130  0.0259  0.0847
  559POPI    C3 8895  11.707  12.044  10.356  0.1039 -0.0028  0.1693
  559POPI   PO4 8896  11.238  12.382  10.308 -0.1828  0.2949  0.0381
  559POPI   GL1 8897  10.959  12.572   9.873 -0.1621  0.2154  0.2325
  559POPI   GL2 8898  11.184  12.360   9.696  0.0712 -0.0404  0.3729
  559POPI   C1A 8899  10.572  12.641   9.448  0.0221  0.0747  0.0492
  559POPI   D2A 8900  10.556  12.448   8.964  0.2559 -0.2150 -0.2941
  559POPI   C3A 8901  10.450  12.387   8.545  0.0568 -0.0595 -0.0483
  559POPI   C4A 8902  10.330  12.349   8.108 -0.0111 -0.0234 -0.1795
  559POPI   C1B 8903  11.548  12.659   9.430  0.3757 -0.0924  0.0174
  559POPI   C2B 8904  11.460  12.620   8.991 -0.1366 -0.0789  0.0521
  559POPI   C3B 8905  11.355  12.581   8.635  0.1279 -0.1980 -0.1336
  559POPI   C4B 8906  11.446  12.634   8.252 -0.1098  0.0437  0.2689
  560POPI    C1 8907  15.685  15.957   9.686  0.0504  0.1215 -0.0810
  560POPI    C2 8908  15.721  15.858  10.072 -0.0438  0.1394 -0.0673
  560POPI    C3 8909  16.000  16.085   9.897  0.0638  0.0270 -0.0431
  560POPI   PO4 8910  15.376  15.892   9.737 -0.1009  0.0476 -0.0962
  560POPI   GL1 8911  15.225  15.620   9.415  0.1485 -0.1048 -0.2366
  560POPI   GL2 8912  15.541  15.601   9.315 -0.0458  0.0595  0.0309
  560POPI   C1A 8913  15.201  15.699   8.977 -0.4646 -0.0160  0.1348
  560POPI   D2A 8914  14.956  15.825   8.592 -0.1470  0.2592 -0.0577
  560POPI   C3A 8915  15.020  15.766   8.146 -0.2558  0.1568  0.0650
  560POPI   C4A 8916  15.146  15.949   7.756  0.0110 -0.5039 -0.0739
  560POPI   C1B 8917  15.856  15.592   9.068 -0.0088 -0.2593  0.2441
  560POPI   C2B 8918  15.876  15.625   8.638 -0.0300 -0.1758  0.0153
  560POPI   C3B 8919  16.025  15.582   8.198  0.2611  0.0528  0.0765
  560POPI   C4B 8920  16.019  15.728   7.723 -0.0401 -0.0286  0.4401
  561POPI    C1 8921   4.987   1.848   9.738  0.2713 -0.0343  0.0939
  561POPI    C2 8922   4.698   1.931  10.002  0.0520  0.0093 -0.1563
  561POPI    C3 8923   5.046   2.128  10.018 -0.0497  0.1836 -0.0503
  561POPI   PO4 8924   4.776   1.794   9.539  0.0686 -0.2894  0.4414
  561POPI   GL1 8925   4.717   2.022   9.187  0.3177 -0.0414 -0.0506
  561POPI   GL2 8926   4.891   2.130   9.159  0.1219 -0.0895  0.0158
  561POPI   C1A 8927   4.568   2.375   8.822 -0.0309  0.3443  0.1835
  561POPI   D2A 8928   4.722   2.400   8.423 -0.0643  0.1186 -0.0870
  561POPI   C3A 8929   4.765   2.520   7.930  0.0131 -0.1310  0.1688
  561POPI   C4A 8930   4.653   2.392   7.528 -0.4088 -0.1955  0.0458
  561POPI   C1B 8931   4.929   1.958   8.700  0.2151 -0.1183 -0.1578
  561POPI   C2B 8932   4.983   1.905   8.231 -0.1330  0.1544 -0.1375
  561POPI   C3B 8933   4.921   2.067   8.054  0.1266 -0.0212 -0.0308
  561POPI   C4B 8934   5.088   2.238   7.679 -0.0748 -0.0066 -0.1525
  562POPI    C1 8935  18.211   3.508   9.768  0.2532  0.1054 -0.1240
  562POPI    C2 8936  18.061   3.301   9.460  0.2313  0.1266 -0.1276
  562POPI    C3 8937  17.913   3.248   9.829  0.0122  0.3639 -0.1789
  562POPI   PO4 8938  18.210   3.798   9.630 -0.1364 -0.1770  0.3938
  562POPI   GL1 8939  17.954   3.692   9.147  0.2849 -0.0288  0.2384
  562POPI   GL2 8940  17.610   3.777   9.251  0.1245  0.1584  0.3225
  562POPI   C1A 8941  17.763   3.585   8.815  0.2834 -0.1874 -0.0734
  562POPI   D2A 8942  17.478   3.234   8.761 -0.0551  0.0919 -0.0113
  562POPI   C3A 8943  17.411   3.320   8.316 -0.1070  0.0103  0.0577
  562POPI   C4A 8944  17.588   3.417   7.868 -0.3546  0.2899  0.0615
  562POPI   C1B 8945  17.313   4.039   9.032 -0.1289 -0.0401 -0.3210
  562POPI   C2B 8946  17.219   4.368   8.805 -0.3797 -0.1963 -0.1228
  562POPI   C3B 8947  17.284   4.616   8.543  0.1409 -0.0881 -0.1692
  562POPI   C4B 8948  17.443   4.770   8.112  0.0505 -0.2245  0.2022
  563POPI    C1 8949   3.876   1.858   9.762  0.1462  0.0955  0.1179
  563POPI    C2 8950   4.153   1.734  10.022 -0.0077 -0.4729  0.0236
  563POPI    C3 8951   3.809   1.888  10.156  0.1011 -0.3350  0.1478
  563POPI   PO4 8952   3.833   1.671   9.590  0.0811 -0.1341  0.2267
  563POPI   GL1 8953   3.665   1.564   9.204  0.1642 -0.0726 -0.1987
  563POPI   GL2 8954   4.039   1.308   9.174 -0.2451  0.0319  0.0882
  563POPI   C1A 8955   3.697   1.516   8.818 -0.1318 -0.0397 -0.2505
  563POPI   D2A 8956   3.770   1.580   8.421 -0.0381 -0.1099  0.0600
  563POPI   C3A 8957   4.111   1.480   8.154 -0.0525 -0.4329  0.2862
  563POPI   C4A 8958   4.212   1.791   7.709  0.3315  0.0157 -0.0251
  563POPI   C1B 8959   4.195   1.264   8.650 -0.0058  0.0563  0.2760
  563POPI   C2B 8960   4.313   0.868   8.325 -0.1285 -0.4401  0.1417
  563POPI   C3B 8961   4.147   0.874   7.839  0.0256  0.2382 -0.0938
  563POPI   C4B 8962   4.345   0.919   7.392 -0.0397 -0.2547 -0.1987
  564POPI    C1 8963  12.949   0.178   9.752  0.2363  0.2634 -0.2820
  564POPI    C2 8964  12.608   0.200   9.545  0.0465 -0.2708 -0.0424
  564POPI    C3 8965  12.598   0.166   9.943  0.3886 -0.0540 -0.0118
  564POPI   PO4 8966  13.226   0.273   9.502  0.1643 -0.5606 -0.4333
  564POPI   GL1 8967  13.327   0.062   9.201 -0.0885  0.0446  0.0791
  564POPI   GL2 8968  13.061   0.251   9.051 -0.0925 -0.2057 -0.2670
  564POPI   C1A 8969  13.429  -0.063   8.789 -0.1315 -0.1143  0.0842
  564POPI   D2A 8970  13.268  -0.350   8.430  0.2512 -0.0097  0.3369
  564POPI   C3A 8971  13.662  -0.391   8.203  0.0425  0.1648 -0.0788
  564POPI   C4A 8972  13.881  -0.083   8.184  0.3512 -0.2952 -0.0137
  564POPI   C1B 8973  13.279   0.422   8.744  0.3172 -0.1627  0.0355
  564POPI   C2B 8974  13.402   0.098   8.288  0.1279 -0.2175 -0.0052
  564POPI   C3B 8975  13.441   0.177   7.941 -0.1960 -0.0343 -0.1647
  564POPI   C4B 8976  13.526  -0.002   7.606 -0.1582  0.3515 -0.1139
  565POPI    C1 8977   0.443  15.853  10.020 -0.0909  0.1807  0.0461
  565POPI    C2 8978   0.370  15.969  10.396 -0.3567 -0.2325  0.1290
  565POPI    C3 8979   0.695  15.752  10.314 -0.0698  0.2175  0.0405
  565POPI   PO4 8980   0.352  16.044   9.872 -0.2475 -0.0987 -0.0098
  565POPI   GL1 8981   0.401  16.187   9.512  0.3386  0.1479  0.2610
  565POPI   GL2 8982   0.089  16.218   9.380 -0.3467 -0.1290 -0.2079
  565POPI   C1A 8983   0.499  15.966   9.116  0.2572  0.0345 -0.2597
  565POPI   D2A 8984   0.439  15.774   8.716  0.0400  0.3028 -0.3205
  565POPI   C3A 8985   0.043  15.867   8.542 -0.4151  0.2505 -0.3659
  565POPI   C4A 8986  -0.294  15.854   8.770 -0.0414  0.0412  0.0206
  565POPI   C1B 8987   0.031  16.147   8.981 -0.0293 -0.0648 -0.0978
  565POPI   C2B 8988  -0.199  16.272   8.609  0.0748 -0.1089  0.2115
  565POPI   C3B 8989  -0.254  16.243   8.210 -0.2109 -0.0841  0.2161
  565POPI   C4B 8990  -0.168  16.184   7.836 -0.0730  0.0529 -0.2043
  566POPI    C1 8991  15.169  14.694   9.805 -0.0706 -0.0163 -0.1651
  566POPI    C2 8992  15.177  14.869  10.165  0.2055 -0.0216 -0.1664
  566POPI    C3 8993  15.182  14.470  10.136 -0.1790 -0.0299 -0.1697
  566POPI   PO4 8994  14.936  14.851   9.601  0.1999  0.0577  0.1305
  566POPI   GL1 8995  15.108  15.038   9.291 -0.0399 -0.0287 -0.0467
  566POPI   GL2 8996  15.025  14.766   9.064  0.0849 -0.1403  0.0213
  566POPI   C1A 8997  15.084  15.265   9.020  0.1269 -0.0214  0.0688
  566POPI   D2A 8998  14.876  15.293   8.609  0.0621  0.3024 -0.2523
  566POPI   C3A 8999  14.845  15.255   8.179  0.0268 -0.0883 -0.2067
  566POPI   C4A 9000  15.093  15.352   7.835  0.1876  0.2553  0.0436
  566POPI   C1B 9001  15.132  14.838   8.573  0.2359  0.2349 -0.4464
  566POPI   C2B 9002  15.279  14.941   8.140 -0.0949 -0.0330 -0.4491
  566POPI   C3B 9003  14.978  14.801   7.760 -0.0604 -0.2320  0.1859
  566POPI   C4B 9004  14.908  14.671   7.359  0.2525 -0.2374 -0.0066
  567POPI    C1 9005  15.190  12.730   9.577  0.0231  0.2363 -0.1669
  567POPI    C2 9006  15.445  12.860   9.857  0.0522 -0.0162 -0.0743
  567POPI    C3 9007  15.156  12.600   9.954 -0.1140  0.1116 -0.2213
  567POPI   PO4 9008  15.065  12.860   9.474  0.0696  0.1773  0.4550
  567POPI   GL1 9009  14.858  12.984   9.055 -0.2196  0.2129  0.0291
  567POPI   GL2 9010  15.132  13.230   9.136  0.1543 -0.0307  0.0523
  567POPI   C1A 9011  14.888  12.728   8.751  0.1041 -0.1625 -0.0139
  567POPI   D2A 9012  14.672  12.499   8.383  0.2406  0.0129  0.1881
  567POPI   C3A 9013  14.794  12.431   7.960  0.1254  0.2554  0.0436
  567POPI   C4A 9014  14.910  12.430   7.644 -0.2236 -0.0908  0.4098
  567POPI   C1B 9015  15.077  13.260   8.681  0.0311 -0.2168  0.0110
  567POPI   C2B 9016  15.213  13.011   8.354 -0.4881  0.3619 -0.0083
  567POPI   C3B 9017  14.938  12.874   8.085 -0.2187  0.1299 -0.3048
  567POPI   C4B 9018  14.827  12.911   7.601 -0.1880 -0.1697 -0.0469
  568POPI    C1 9019   2.101  12.770   9.879 -0.2980  0.0283 -0.0527
  568POPI    C2 9020   2.021  13.076  10.123  0.0174  0.2288 -0.1934
  568POPI    C3 9021   2.169  12.736  10.272 -0.1842  0.1991 -0.0563
  568POPI   PO4 9022   2.168  12.928   9.674  0.1206 -0.2667 -0.1728
  568POPI   GL1 9023   2.236  12.623   9.362 -0.1624 -0.2533 -0.2622
  568POPI   GL2 9024   2.294  12.309   9.130  0.2306  0.2802 -0.0892
  568POPI   C1A 9025   2.692  12.700   9.192 -0.1805 -0.1386 -0.0381
  568POPI   D2A 9026   2.925  12.612   8.806 -0.1073 -0.1510  0.0167
  568POPI   C3A 9027   2.803  12.438   8.405  0.1144  0.0422  0.0027
  568POPI   C4A 9028   2.815  12.451   8.019 -0.0018  0.1497  0.3778
  568POPI   C1B 9029   2.417  12.373   8.735  0.0174  0.0130 -0.1286
  568POPI   C2B 9030   2.362  12.216   8.196  0.1982  0.0779  0.4680
  568POPI   C3B 9031   2.442  12.210   7.748 -0.1856 -0.0758 -0.2035
  568POPI   C4B 9032   2.489  12.082   7.327  0.0946  0.3121  0.0476
  569POPI    C1 9033   7.628   5.588   9.589  0.1100 -0.0308 -0.0554
  569POPI    C2 9034   7.909   5.820   9.754 -0.0381  0.1561 -0.0627
  569POPI    C3 9035   8.014   5.486   9.560  0.1428 -0.0440  0.3645
  569POPI   PO4 9036   7.377   5.549   9.771  0.1853 -0.2465 -0.2145
  569POPI   GL1 9037   7.095   5.743   9.491  0.5510  0.2000 -0.1408
  569POPI   GL2 9038   6.743   5.487   9.438 -0.3512  0.0476 -0.2532
  569POPI   C1A 9039   6.851   6.036   9.240  0.1765  0.0845 -0.0651
  569POPI   D2A 9040   6.608   6.094   8.943 -0.0088 -0.1719  0.0771
  569POPI   C3A 9041   6.695   6.184   8.535 -0.0103 -0.1901  0.0071
  569POPI   C4A 9042   6.841   6.289   8.158 -0.0419 -0.4534  0.0804
  569POPI   C1B 9043   6.877   5.606   9.030  0.1960  0.2870 -0.1376
  569POPI   C2B 9044   7.019   5.777   8.651  0.3183  0.1685 -0.0594
  569POPI   C3B 9045   7.061   5.830   8.273 -0.1271  0.3667  0.0563
  569POPI   C4B 9046   7.081   5.913   7.814  0.1896  0.0346  0.1677
  570POPI    C1 9047  15.877  10.325   9.573  0.1900  0.1693 -0.1717
  570POPI    C2 9048  15.789  10.650   9.789 -0.0078  0.1108 -0.1619
  570POPI    C3 9049  15.844  10.299   9.971  0.0135  0.0993 -0.1902
  570POPI   PO4 9050  15.683  10.340   9.360  0.0636  0.2971  0.2377
  570POPI   GL1 9051  15.878  10.350   8.967  0.0085  0.2355  0.1655
  570POPI   GL2 9052  15.588  10.149   8.904  0.4338 -0.1012  0.0310
  570POPI   C1A 9053  15.901  10.645   8.571  0.2918 -0.0020  0.1954
  570POPI   D2A 9054  16.037  10.865   8.210  0.1588 -0.1207 -0.1098
  570POPI   C3A 9055  16.004  10.936   7.744  0.0431  0.1275  0.2202
  570POPI   C4A 9056  15.964  11.092   7.296  0.2843  0.1922 -0.1588
  570POPI   C1B 9057  15.742  10.010   8.561 -0.0067 -0.1018 -0.3655
  570POPI   C2B 9058  15.648   9.926   8.056  0.0333 -0.3129 -0.1841
  570POPI   C3B 9059  15.703  10.024   7.670 -0.3855  0.1507  0.0619
  570POPI   C4B 9060  15.659  10.121   7.132  0.2077  0.2622  0.3969
  571POPI    C1 9061   2.312  12.234   9.659  0.1942  0.0330 -0.0740
  571POPI    C2 9062   2.404  12.371  10.024 -0.0628  0.3076 -0.1086
  571POPI    C3 9063   2.030  12.254   9.942  0.0412  0.0509 -0.2260
  571POPI   PO4 9064   2.434  12.026   9.582 -0.1805  0.2446  0.0621
  571POPI   GL1 9065   2.439  11.882   9.235 -0.0962  0.1335  0.0419
  571POPI   GL2 9066   2.220  11.615   9.129 -0.3748  0.2776  0.1645
  571POPI   C1A 9067   2.749  11.867   8.939  0.1093 -0.1977 -0.1415
  571POPI   D2A 9068   2.772  11.979   8.532  0.0285  0.0062  0.1720
  571POPI   C3A 9069   2.834  11.908   8.049  0.0130  0.0589  0.1733
  571POPI   C4A 9070   2.837  11.820   7.595  0.0349  0.1528 -0.2286
  571POPI   C1B 9071   2.302  11.794   8.731  0.1368  0.2439 -0.1620
  571POPI   C2B 9072   2.343  11.757   8.303 -0.2326  0.3309  0.1360
  571POPI   C3B 9073   2.317  11.658   7.877 -0.1984 -0.0546  0.1846
  571POPI   C4B 9074   2.207  11.695   7.505 -0.3470  0.1182  0.2975
  572POPI    C1 9075   6.433   8.547  10.378  0.1170  0.1352  0.1180
  572POPI    C2 9076   6.433   8.161  10.272 -0.0813  0.2023 -0.1363
  572POPI    C3 9077   6.112   8.320  10.451 -0.0327  0.2704 -0.1089
  572POPI   PO4 9078   6.603   8.640  10.141 -0.2047 -0.0030  0.3214
  572POPI   GL1 9079   6.587   8.804   9.839  0.0243 -0.1323  0.1919
  572POPI   GL2 9080   6.402   8.683   9.633 -0.0286  0.0516  0.1892
  572POPI   C1A 9081   6.848   8.922   9.527  0.1242 -0.3123 -0.1096
  572POPI   D2A 9082   7.109   9.062   9.204  0.0691 -0.0365 -0.5436
  572POPI   C3A 9083   7.095   8.921   8.783  0.3618 -0.0594  0.1910
  572POPI   C4A 9084   7.038   9.194   8.427  0.1893  0.2059  0.2320
  572POPI   C1B 9085   6.354   8.348   9.242  0.2841 -0.0186  0.0849
  572POPI   C2B 9086   6.091   8.041   9.009 -0.0186 -0.1873  0.1743
  572POPI   C3B 9087   5.925   7.811   8.706  0.1250  0.0245 -0.0877
  572POPI   C4B 9088   5.656   7.653   8.374 -0.1713  0.0337 -0.0796
  573POPI    C1 9089   6.228   4.552  10.190 -0.0640 -0.1990  0.2364
  573POPI    C2 9090   6.573   4.619  10.382 -0.0299 -0.1827  0.1697
  573POPI    C3 9091   6.424   4.248  10.362  0.0084 -0.1975  0.1570
  573POPI   PO4 9092   6.260   4.659  10.007  0.1908 -0.1816 -0.0618
  573POPI   GL1 9093   6.312   4.680   9.557  0.1727  0.0065  0.0808
  573POPI   GL2 9094   6.004   4.756   9.615 -0.1265  0.1779  0.1157
  573POPI   C1A 9095   6.338   4.757   9.138  0.1853  0.0365 -0.4666
  573POPI   D2A 9096   6.190   4.881   8.680 -0.0014 -0.1138  0.0615
  573POPI   C3A 9097   6.446   5.018   8.312 -0.0958 -0.1362  0.1113
  573POPI   C4A 9098   6.581   4.880   7.864 -0.2795  0.2260  0.3509
  573POPI   C1B 9099   5.876   4.536   9.169  0.3123  0.0776  0.4838
  573POPI   C2B 9100   5.865   4.499   8.733  0.0740  0.0913  0.0398
  573POPI   C3B 9101   5.956   4.703   8.288 -0.0535  0.1386  0.2047
  573POPI   C4B 9102   6.023   5.053   7.999 -0.3389 -0.1786  0.1321
  574DPPI    C1 9103   9.266  17.286  10.157 -0.0014  0.1178  0.1768
  574DPPI    C2 9104   8.875  17.215  10.118  0.0236  0.1523 -0.1660
  574DPPI    C3 9105   9.010  17.424  10.431 -0.2009 -0.0901  0.0983
  574DPPI   PO4 9106   9.323  17.342   9.817 -0.0262 -0.0736  0.1513
  574DPPI   GL1 9107   9.214  17.053   9.424 -0.3206 -0.2091  0.2261
  574DPPI   GL2 9108   9.457  17.246   9.352  0.2320  0.0169 -0.0330
  574DPPI   C1A 9109   8.957  16.932   9.054  0.0490  0.0648 -0.2142
  574DPPI   C2A 9110   9.101  16.900   8.628  0.3266  0.0372  0.1309
  574DPPI   C3A 9111   8.975  16.986   8.162 -0.0373 -0.0624  0.1145
  574DPPI   C4A 9112   8.715  16.864   7.770  0.1231  0.0288 -0.2265
  574DPPI   C1B 9113   9.373  17.296   8.865 -0.1360  0.1616 -0.2146
  574DPPI   C2B 9114   9.380  17.575   8.450  0.0609 -0.1826 -0.0385
  574DPPI   C3B 9115   9.174  17.475   8.151  0.2296  0.1791 -0.1249
  574DPPI   C4B 9116   9.010  17.308   7.750 -0.1910  0.2706 -0.0271
  575DPPI    C1 9117   8.724  13.971  10.035 -0.0020  0.0371 -0.0136
  575DPPI    C2 9118   8.608  14.315  10.202 -0.1843 -0.1806  0.3207
  575DPPI    C3 9119   8.994  14.210  10.208 -0.1077  0.0765  0.0980
  575DPPI   PO4 9120   8.484  14.099   9.728 -0.3475  0.0014 -0.3031
  575DPPI   GL1 9121   8.452  14.309   9.376 -0.1095 -0.0368 -0.0898
  575DPPI   GL2 9122   8.127  14.361   9.498  0.3338  0.0181 -0.3894
  575DPPI   C1A 9123   8.321  14.230   9.021  0.0879  0.2109  0.1259
  575DPPI   C2A 9124   8.354  13.897   8.872 -0.2556  0.1208 -0.1458
  575DPPI   C3A 9125   8.357  13.924   8.444 -0.1560 -0.0920 -0.0412
  575DPPI   C4A 9126   8.382  13.958   8.070 -0.3679  0.1702  0.0352
  575DPPI   C1B 9127   7.922  14.595   9.195 -0.0406  0.2737  0.2978
  575DPPI   C2B 9128   7.836  14.667   8.813 -0.0316  0.4612 -0.1320
  575DPPI   C3B 9129   7.940  14.682   8.286 -0.1562 -0.0162  0.0665
  575DPPI   C4B 9130   7.953  14.481   7.806  0.0622  0.4023 -0.0104
  576DPPI    C1 9131   5.044  13.042  10.584  0.0619  0.2287 -0.1558
  576DPPI    C2 9132   5.441  13.057  10.629  0.0508  0.1737 -0.0376
  576DPPI    C3 9133   5.201  13.181  10.924 -0.0204  0.0859 -0.0582
  576DPPI   PO4 9134   5.014  13.176  10.269 -0.2543 -0.1973 -0.1006
  576DPPI   GL1 9135   5.229  13.116   9.806  0.3222 -0.1114  0.0820
  576DPPI   GL2 9136   5.543  13.074   9.764  0.1956  0.3491  0.2365
  576DPPI   C1A 9137   5.063  12.993   9.452 -0.0201 -0.0912  0.1617
  576DPPI   C2A 9138   4.973  12.987   9.016  0.3993 -0.2520 -0.3299
  576DPPI   C3A 9139   4.990  13.016   8.558  0.1757  0.0712 -0.0578
  576DPPI   C4A 9140   5.015  12.995   8.179 -0.0503  0.0600 -0.0048
  576DPPI   C1B 9141   5.597  12.851   9.376  0.1899  0.0603 -0.1072
  576DPPI   C2B 9142   5.501  12.996   8.924 -0.1219 -0.0552  0.1616
  576DPPI   C3B 9143   5.553  12.928   8.432 -0.0484 -0.1007  0.3079
  576DPPI   C4B 9144   5.573  12.814   7.971 -0.0492 -0.1533 -0.3058
  577DPPI    C1 9145  16.628   8.320   9.906  0.0658  0.1800  0.1141
  577DPPI    C2 9146  16.911   8.151  10.133 -0.2755 -0.3510  0.1611
  577DPPI    C3 9147  16.537   8.185  10.271 -0.3070  0.0744 -0.0134
  577DPPI   PO4 9148  16.847   8.411   9.682  0.2004 -0.1339  0.2321
  577DPPI   GL1 9149  16.816   8.324   9.254  0.6754  0.1512  0.0498
  577DPPI   GL2 9150  16.911   8.087   9.257 -0.1525 -0.0512  0.0033
  577DPPI   C1A 9151  16.579   8.513   8.882  0.2309  0.0904 -0.1925
  577DPPI   C2A 9152  16.677   8.684   8.489 -0.0852 -0.0830 -0.0010
  577DPPI   C3A 9153  16.605   8.649   8.044  0.0747  0.3301  0.0220
  577DPPI   C4A 9154  16.231   8.538   7.742  0.0573 -0.2382  0.2231
  577DPPI   C1B 9155  16.906   8.045   8.860 -0.0150  0.3008 -0.0450
  577DPPI   C2B 9156  16.804   8.141   8.418  0.1611  0.1176  0.1275
  577DPPI   C3B 9157  16.961   8.257   8.027  0.1751 -0.1751 -0.0355
  577DPPI   C4B 9158  16.790   8.384   7.591 -0.1195  0.3121 -0.1544
  578DPPI    C1 9159  10.428   4.739  10.668 -0.0565  0.1040  0.0497
  578DPPI    C2 9160  10.783   4.819  10.503 -0.2357  0.2498 -0.2750
  578DPPI    C3 9161  10.712   4.921  10.883  0.1253  0.0627 -0.1522
  578DPPI   PO4 9162  10.240   4.701  10.317 -0.0701  0.3045  0.1592
  578DPPI   GL1 9163  10.169   4.537   9.893  0.1419  0.1940 -0.1462
  578DPPI   GL2 9164  10.439   4.674   9.830  0.1192  0.2667 -0.2623
  578DPPI   C1A 9165   9.976   4.521   9.513 -0.0140  0.0156  0.2615
  578DPPI   C2A 9166   9.732   4.717   9.312  0.0672 -0.5490  0.0143
  578DPPI   C3A 9167   9.772   4.867   8.890  0.0041  0.0390  0.1280
  578DPPI   C4A 9168   9.642   4.674   8.437  0.5491  0.1694  0.2789
  578DPPI   C1B 9169  10.550   4.634   9.463 -0.0535 -0.3167 -0.4844
  578DPPI   C2B 9170  10.685   4.716   9.021  0.0495 -0.0942 -0.1693
  578DPPI   C3B 9171  10.691   4.655   8.610  0.0471 -0.3359  0.2713
  578DPPI   C4B 9172  10.617   4.598   8.192  0.2447  0.0281  0.2102
  579DPPI    C1 9173  18.311   4.776   9.837 -0.0873 -0.1431  0.1918
  579DPPI    C2 9174  18.316   5.148   9.984 -0.0520 -0.0585 -0.0182
  579DPPI    C3 9175  17.968   4.960   9.928 -0.0929  0.0861 -0.2613
  579DPPI   PO4 9176  18.403   4.741   9.596  0.1864 -0.2481 -0.1412
  579DPPI   GL1 9177  18.558   4.471   9.323  0.1984  0.0082  0.0658
  579DPPI   GL2 9178  18.306   4.118   9.236  0.1570 -0.2530 -0.1503
  579DPPI   C1A 9179  18.777   4.261   8.952 -0.0505  0.1311 -0.0571
  579DPPI   C2A 9180  18.664   4.320   8.468  0.0361 -0.1618  0.0411
  579DPPI   C3A 9181  18.469   4.581   8.187  0.2169  0.1579 -0.3579
  579DPPI   C4A 9182  18.092   4.780   8.212 -0.1445  0.1458  0.0425
  579DPPI   C1B 9183  18.256   4.271   8.804 -0.4179 -0.2626 -0.2320
  579DPPI   C2B 9184  18.191   4.157   8.339 -0.0281  0.1736  0.0977
  579DPPI   C3B 9185  18.144   4.370   7.962  0.5496  0.2742  0.0011
  579DPPI   C4B 9186  18.077   4.727   7.685  0.3370 -0.3162 -0.0716
  580DPPI    C1 9187  18.888   4.872   9.542  0.0346 -0.2690 -0.0193
  580DPPI    C2 9188  19.169   4.765   9.805 -0.1026 -0.3521  0.0947
  580DPPI    C3 9189  18.810   4.885   9.934 -0.0561 -0.0552 -0.0426
  580DPPI   PO4 9190  19.015   5.059   9.377 -0.2404 -0.0542  0.0921
  580DPPI   GL1 9191  19.012   5.367   9.053 -0.1185  0.3442 -0.0776
  580DPPI   GL2 9192  19.107   5.272   8.738 -0.5049  0.0095 -0.4851
  580DPPI   C1A 9193  18.605   5.269   8.724 -0.0182  0.1601  0.2611
  580DPPI   C2A 9194  18.451   5.099   8.285  0.0755  0.1143  0.0684
  580DPPI   C3A 9195  18.489   4.962   7.890  0.3674  0.0894 -0.2144
  580DPPI   C4A 9196  18.531   4.455   7.711  0.0654 -0.0347 -0.0509
  580DPPI   C1B 9197  18.986   5.251   8.334 -0.1525 -0.0896  0.0129
  580DPPI   C2B 9198  18.895   5.290   7.896  0.0245 -0.1881 -0.1689
  580DPPI   C3B 9199  18.935   5.625   7.632  0.1944  0.0768  0.2028
  580DPPI   C4B 9200  18.634   5.853   7.424  0.1398 -0.1482 -0.2827
  581DPPI    C1 9201   1.421  15.532  10.049  0.1059 -0.1006 -0.0079
  581DPPI    C2 9202   1.207  15.792  10.264  0.0315  0.0238 -0.2301
  581DPPI    C3 9203   1.584  15.709  10.369 -0.0204  0.0445 -0.0228
  581DPPI   PO4 9204   1.405  15.609   9.829  0.0326 -0.2550  0.1308
  581DPPI   GL1 9205   1.225  15.602   9.476  0.3537 -0.0613 -0.0260
  581DPPI   GL2 9206   1.130  15.267   9.468  0.0541 -0.0942  0.0412
  581DPPI   C1A 9207   0.869  15.593   9.141 -0.1274  0.1851  0.1609
  581DPPI   C2A 9208   0.831  15.439   8.630 -0.1709  0.0915  0.3896
  581DPPI   C3A 9209   0.509  15.555   8.211  0.2065 -0.1098 -0.0512
  581DPPI   C4A 9210   0.499  15.357   7.815  0.2575  0.1567  0.3999
  581DPPI   C1B 9211   1.336  15.371   9.050  0.1432 -0.1191 -0.0033
  581DPPI   C2B 9212   1.276  15.182   8.658  0.3900 -0.2070  0.0051
  581DPPI   C3B 9213   1.141  15.064   8.287 -0.2152 -0.0742 -0.2274
  581DPPI   C4B 9214   1.225  15.316   7.841  0.1202 -0.0067  0.1030
  582DPPI    C1 9215   4.750   9.618   9.993  0.1096 -0.0203 -0.0448
  582DPPI    C2 9216   4.739   9.717   9.606 -0.1202  0.0876 -0.0121
  582DPPI    C3 9217   4.866   9.982   9.877 -0.0938  0.0608  0.0017
  582DPPI   PO4 9218   4.623   9.373   9.957 -0.1116 -0.5468 -0.0797
  582DPPI   GL1 9219   4.777   9.192   9.668 -0.2695 -0.2192  0.1945
  582DPPI   GL2 9220   4.546   9.279   9.453 -0.0514  0.1637 -0.0811
  582DPPI   C1A 9221   4.850   8.934   9.396 -0.1837 -0.2169 -0.0651
  582DPPI   C2A 9222   4.996   8.959   9.060 -0.0113  0.2211  0.1206
  582DPPI   C3A 9223   4.989   8.735   8.656 -0.0884 -0.0734 -0.1702
  582DPPI   C4A 9224   5.055   8.605   8.160 -0.1877  0.2855  0.1875
  582DPPI   C1B 9225   4.618   9.573   9.175  0.1715 -0.1451 -0.0392
  582DPPI   C2B 9226   4.574   9.776   8.727  0.3768 -0.0878  0.3291
  582DPPI   C3B 9227   4.694   9.942   8.310  0.3401 -0.1859 -0.0954
  582DPPI   C4B 9228   4.820  10.013   7.810 -0.1958 -0.0048  0.0731
  583DPPI    C1 9229  17.255   3.340   9.784 -0.2673  0.0203 -0.1141
  583DPPI    C2 9230  17.402   3.552  10.089 -0.1392  0.1083 -0.2361
  583DPPI    C3 9231  17.213   3.207  10.159  0.1009  0.0070 -0.0745
  583DPPI   PO4 9232  17.165   3.482   9.581 -0.0621 -0.3966 -0.1195
  583DPPI   GL1 9233  16.980   3.516   9.141 -0.1236 -0.0939 -0.2845
  583DPPI   GL2 9234  16.650   3.630   9.005  0.0976 -0.0393  0.0623
  583DPPI   C1A 9235  17.127   3.695   8.703 -0.1520  0.3349  0.0252
  583DPPI   C2A 9236  17.067   4.096   8.332 -0.2246  0.3339 -0.1032
  583DPPI   C3A 9237  16.880   4.085   7.906  0.1005 -0.0129 -0.0220
  583DPPI   C4A 9238  16.766   4.518   7.641 -0.0296 -0.0758  0.3946
  583DPPI   C1B 9239  16.632   3.602   8.539  0.2967  0.1746 -0.1449
  583DPPI   C2B 9240  16.842   3.610   8.217 -0.0140  0.0937 -0.2322
  583DPPI   C3B 9241  16.988   3.618   7.756 -0.2501 -0.2538 -0.1139
  583DPPI   C4B 9242  17.355   3.907   7.605 -0.3020 -0.1107 -0.2300
  584DPPI    C1 9243   5.881  13.059  10.354 -0.0247  0.1097 -0.0166
  584DPPI    C2 9244   5.823  13.399  10.557  0.1390  0.0285  0.1691
  584DPPI    C3 9245   5.945  13.069  10.749 -0.2106 -0.1904  0.0242
  584DPPI   PO4 9246   5.987  13.137  10.072  0.3094 -0.0538 -0.2675
  584DPPI   GL1 9247   6.015  13.137   9.649  0.0274  0.5092  0.0505
  584DPPI   GL2 9248   6.222  12.962   9.588 -0.1060  0.1201  0.0502
  584DPPI   C1A 9249   5.988  12.943   9.096 -0.1618 -0.1006  0.1228
  584DPPI   C2A 9250   6.007  12.836   8.650  0.0678  0.0101 -0.0787
  584DPPI   C3A 9251   6.053  12.758   8.198 -0.1712 -0.0670  0.4494
  584DPPI   C4A 9252   6.042  12.765   7.709 -0.4573 -0.1218 -0.0276
  584DPPI   C1B 9253   6.437  13.148   9.170  0.1568 -0.1296 -0.0839
  584DPPI   C2B 9254   6.452  12.932   8.773  0.1628  0.1000 -0.2744
  584DPPI   C3B 9255   6.578  12.846   8.338 -0.0066  0.3432 -0.1315
  584DPPI   C4B 9256   6.826  13.048   7.981 -0.1037  0.1345 -0.2813
  585DPPI    C1 9257  13.123   4.748  10.202 -0.1156 -0.0033  0.0170
  585DPPI    C2 9258  13.515   4.823  10.212 -0.1681  0.2870 -0.0104
  585DPPI    C3 9259  13.330   4.684  10.538 -0.0102 -0.0358 -0.0535
  585DPPI   PO4 9260  13.039   4.619   9.969  0.0297  0.0016  0.0146
  585DPPI   GL1 9261  13.143   4.651   9.602  0.2695 -0.1368 -0.0542
  585DPPI   GL2 9262  13.455   4.859   9.402  0.4433  0.1394 -0.1169
  585DPPI   C1A 9263  13.040   4.687   9.164  0.1028 -0.1044 -0.1329
  585DPPI   C2A 9264  12.840   4.956   8.857 -0.1194  0.0557  0.0226
  585DPPI   C3A 9265  12.593   5.032   8.371  0.0651  0.2219 -0.1588
  585DPPI   C4A 9266  12.555   4.870   7.977 -0.1898 -0.2639 -0.0945
  585DPPI   C1B 9267  13.443   5.023   8.974 -0.1186 -0.2372 -0.2112
  585DPPI   C2B 9268  13.319   4.799   8.595  0.0376 -0.2970 -0.1709
  585DPPI   C3B 9269  13.056   4.920   8.189  0.0134 -0.2303  0.2651
  585DPPI   C4B 9270  13.004   4.797   7.773 -0.1303 -0.1564  0.0836
  586DPPI    C1 9271   8.456  15.466   9.880 -0.0151 -0.0225 -0.0565
  586DPPI    C2 9272   8.594  15.092   9.914 -0.0160 -0.0148  0.0328
  586DPPI    C3 9273   8.598  15.337  10.230 -0.2823 -0.0311  0.0514
  586DPPI   PO4 9274   8.355  15.484   9.734  0.0757 -0.3097 -0.0784
  586DPPI   GL1 9275   8.392  15.503   9.339 -0.0837 -0.0188 -0.0688
  586DPPI   GL2 9276   8.359  15.820   9.147  0.0181  0.0263 -0.2389
  586DPPI   C1A 9277   8.303  15.463   8.859  0.2259 -0.2281  0.2078
  586DPPI   C2A 9278   8.131  15.607   8.475  0.2776  0.0211  0.2336
  586DPPI   C3A 9279   7.858  15.568   8.043 -0.1345 -0.2754 -0.1689
  586DPPI   C4A 9280   7.616  15.290   7.848 -0.2774 -0.2963  0.0863
  586DPPI   C1B 9281   8.559  16.068   8.856  0.3729 -0.0770 -0.3057
  586DPPI   C2B 9282   8.527  16.122   8.409  0.0069  0.0841 -0.0847
  586DPPI   C3B 9283   8.728  16.001   8.047  0.3147 -0.1282  0.2363
  586DPPI   C4B 9284   9.027  16.066   7.650 -0.0370  0.0833  0.1295
  587DPPI    C1 9285   0.822   1.509   9.776 -0.0015  0.0291 -0.1753
  587DPPI    C2 9286   0.808   1.132   9.910  0.0315  0.0958  0.0190
  587DPPI    C3 9287   1.118   1.366  10.003 -0.0641  0.2197  0.0294
  587DPPI   PO4 9288   0.828   1.523   9.529 -0.0378 -0.1269 -0.4434
  587DPPI   GL1 9289   1.251   1.456   9.172  0.2588  0.1317  0.2674
  587DPPI   GL2 9290   1.006   1.284   9.085  0.0252 -0.2686 -0.4027
  587DPPI   C1A 9291   1.425   1.487   8.760  0.1335  0.0500  0.0182
  587DPPI   C2A 9292   1.426   1.491   8.389  0.0755 -0.2056 -0.0931
  587DPPI   C3A 9293   1.370   1.673   7.990 -0.5956  0.0168 -0.1658
  587DPPI   C4A 9294   1.516   2.057   7.735 -0.2123  0.0627 -0.1231
  587DPPI   C1B 9295   1.114   1.166   8.614 -0.1516  0.2517 -0.0282
  587DPPI   C2B 9296   1.167   1.143   8.105  0.0545  0.0678 -0.3461
  587DPPI   C3B 9297   1.370   1.083   7.786 -0.1612  0.2427  0.0529
  587DPPI   C4B 9298   1.424   0.905   7.377  0.3183 -0.1888 -0.1096
  588DPPI    C1 9299   4.598   5.823   9.417  0.0052  0.0088 -0.2599
  588DPPI    C2 9300   4.902   5.811   9.677 -0.1610  0.2047 -0.0517
  588DPPI    C3 9301   4.649   6.120   9.679 -0.4398 -0.0181 -0.1343
  588DPPI   PO4 9302   4.648   5.793   9.224 -0.1061 -0.1819  0.0325
  588DPPI   GL1 9303   4.467   5.750   8.863 -0.0579 -0.4255  0.0642
  588DPPI   GL2 9304   4.232   6.015   8.802  0.2137 -0.2901 -0.0731
  588DPPI   C1A 9305   4.718   5.782   8.499  0.0310 -0.1411  0.3494
  588DPPI   C2A 9306   4.792   5.809   7.990  0.0134  0.1947  0.1305
  588DPPI   C3A 9307   4.857   5.845   7.587  0.1045 -0.2555 -0.1212
  588DPPI   C4A 9308   4.658   6.006   7.251  0.2197  0.0728 -0.0977
  588DPPI   C1B 9309   4.136   5.803   8.513  0.0375 -0.1292 -0.1405
  588DPPI   C2B 9310   4.091   5.391   8.373  0.2341 -0.0761  0.3009
  588DPPI   C3B 9311   3.884   5.115   8.179 -0.1709  0.1695 -0.0165
  588DPPI   C4B 9312   3.771   5.169   7.691 -0.0688  0.2006 -0.0600
  589DPPI    C1 9313   4.140  17.726   9.771  0.1451  0.1094 -0.0797
  589DPPI    C2 9314   4.093  17.853   9.395  0.1558 -0.0675 -0.1418
  589DPPI    C3 9315   3.976  17.485   9.498  0.1179 -0.0065  0.0377
  589DPPI   PO4 9316   4.362  17.913   9.819  0.1441  0.3120 -0.0375
  589DPPI   GL1 9317   4.561  18.080   9.546 -0.1344 -0.3047 -0.1371
  589DPPI   GL2 9318   4.807  18.244   9.413 -0.3649 -0.2336  0.1051
  589DPPI   C1A 9319   4.573  17.914   9.115  0.6001 -0.0417  0.1431
  589DPPI   C2A 9320   4.559  17.660   8.682  0.1733  0.0903 -0.3601
  589DPPI   C3A 9321   4.526  17.538   8.254  0.0755 -0.0845 -0.4185
  589DPPI   C4A 9322   4.691  17.246   8.013  0.2243  0.2725  0.0196
  589DPPI   C1B 9323   4.768  18.320   8.892 -0.0808 -0.3463  0.2606
  589DPPI   C2B 9324   4.704  18.165   8.508 -0.2144  0.0612  0.3219
  589DPPI   C3B 9325   4.616  18.175   8.083 -0.3048  0.0503 -0.0673
  589DPPI   C4B 9326   4.258  18.493   7.969 -0.1590 -0.0751  0.0750
  590DPPI    C1 9327   6.752  12.668  10.235  0.1568  0.0770  0.0119
  590DPPI    C2 9328   6.807  13.045  10.359  0.2420  0.0155  0.1637
  590DPPI    C3 9329   6.887  12.740  10.605  0.0204 -0.0988  0.0970
  590DPPI   PO4 9330   6.878  12.702   9.958 -0.1260  0.1221  0.0830
  590DPPI   GL1 9331   6.712  12.893   9.640  0.4830  0.0412  0.2313
  590DPPI   GL2 9332   6.919  13.085   9.434 -0.0538 -0.1488 -0.2454
  590DPPI   C1A 9333   6.832  12.607   9.237 -0.1070 -0.1346 -0.0535
  590DPPI   C2A 9334   6.843  12.596   8.820  0.2895  0.0493  0.2309
  590DPPI   C3A 9335   7.037  12.805   8.455 -0.1876  0.0395 -0.3091
  590DPPI   C4A 9336   7.254  12.818   8.133  0.3000  0.1825  0.1756
  590DPPI   C1B 9337   6.911  13.073   8.948  0.0863 -0.1456 -0.1336
  590DPPI   C2B 9338   6.947  13.271   8.483  0.2738 -0.0137  0.0067
  590DPPI   C3B 9339   7.248  13.322   8.191 -0.0398  0.0682  0.1723
  590DPPI   C4B 9340   7.222  13.257   7.710  0.1968 -0.1914  0.0784
  591DPPI    C1 9341   0.757   0.660   9.732 -0.0349 -0.1358 -0.0204
  591DPPI    C2 9342   0.923   0.660  10.095 -0.2089  0.0276  0.0613
  591DPPI    C3 9343   0.541   0.770  10.050 -0.0992  0.3124 -0.2105
  591DPPI   PO4 9344   1.014   0.698   9.512  0.0164 -0.0973 -0.0989
  591DPPI   GL1 9345   1.067   0.826   9.043 -0.2528  0.1049 -0.2863
  591DPPI   GL2 9346   1.343   0.862   9.140  0.1284 -0.3638  0.1005
  591DPPI   C1A 9347   1.076   0.662   8.682 -0.2446 -0.3733 -0.2613
  591DPPI   C2A 9348   1.144   0.720   8.322 -0.0525 -0.0303  0.1171
  591DPPI   C3A 9349   1.101   0.632   7.877 -0.2132 -0.1236  0.0521
  591DPPI   C4A 9350   1.041   0.545   7.473  0.3216  0.2385  0.0600
  591DPPI   C1B 9351   1.497   0.932   8.850 -0.0740 -0.1391 -0.1379
  591DPPI   C2B 9352   1.554   1.007   8.450 -0.1570 -0.0301  0.3312
  591DPPI   C3B 9353   1.681   1.208   8.108  0.4223  0.0059 -0.0956
  591DPPI   C4B 9354   2.124   1.189   7.958  0.1490 -0.0931  0.2919
  592DPPI    C1 9355   6.064  17.991  10.217 -0.0261  0.1690 -0.0617
  592DPPI    C2 9356   6.170  18.334  10.395 -0.2238  0.2208 -0.0409
  592DPPI    C3 9357   5.792  18.206  10.417 -0.1462 -0.0111 -0.0297
  592DPPI   PO4 9358   6.294  17.996   9.964  0.1766  0.0014  0.1807
  592DPPI   GL1 9359   6.592  17.948   9.605  0.1072 -0.1590  0.2463
  592DPPI   GL2 9360   6.217  18.103   9.458  0.1153 -0.2553  0.1836
  592DPPI   C1A 9361   6.544  17.707   9.300  0.1296 -0.1854  0.1253
  592DPPI   C2A 9362   6.422  17.655   8.806 -0.1880  0.3796  0.1465
  592DPPI   C3A 9363   6.508  17.442   8.392 -0.1904  0.0221  0.0108
  592DPPI   C4A 9364   6.624  17.310   7.984 -0.2675 -0.1841 -0.2011
  592DPPI   C1B 9365   6.010  17.964   9.062 -0.3550 -0.1555 -0.2389
  592DPPI   C2B 9366   5.885  18.156   8.731  0.1663 -0.2195  0.2438
  592DPPI   C3B 9367   5.812  18.147   8.333 -0.0516  0.0294 -0.2072
  592DPPI   C4B 9368   5.817  17.926   7.872 -0.1230  0.0822 -0.1572
  593DPPI    C1 9369   1.098   2.078   9.893 -0.2901  0.4011  0.1640
  593DPPI    C2 9370   1.430   2.198  10.082 -0.2016  0.0887  0.2123
  593DPPI    C3 9371   1.313   1.816  10.105 -0.4192  0.1382 -0.0247
  593DPPI   PO4 9372   1.115   2.230   9.699  0.1896  0.0181 -0.1300
  593DPPI   GL1 9373   1.139   2.206   9.337  0.1180  0.0183 -0.4075
  593DPPI   GL2 9374   1.352   1.970   9.193  0.0838  0.1254 -0.0286
  593DPPI   C1A 9375   0.816   2.414   9.087  0.3261 -0.0470  0.1273
  593DPPI   C2A 9376   0.731   2.420   8.684 -0.0520 -0.1933  0.0406
  593DPPI   C3A 9377   0.715   2.487   8.197 -0.1154  0.2153  0.0703
  593DPPI   C4A 9378   0.716   2.581   7.746 -0.1726  0.4396 -0.2852
  593DPPI   C1B 9379   1.318   2.337   8.878  0.1820 -0.0022 -0.0388
  593DPPI   C2B 9380   1.358   2.437   8.528  0.0867 -0.0110  0.2065
  593DPPI   C3B 9381   1.315   2.503   8.141 -0.0610 -0.2745  0.0539
  593DPPI   C4B 9382   1.223   2.449   7.759  0.0338  0.1253  0.1009
  594PYPI    C1 9383  16.481  11.195   9.331  0.0530  0.0845  0.0362
  594PYPI    C2 9384  16.420  11.495   9.588 -0.1460  0.0409  0.0411
  594PYPI    C3 9385  16.598  11.159   9.712 -0.0272  0.1118  0.0637
  594PYPI   PO4 9386  16.246  11.163   9.164  0.1966 -0.0178  0.0417
  594PYPI   GL1 9387  16.087  11.083   8.790 -0.2011  0.1980 -0.0531
  594PYPI   GL2 9388  16.277  11.145   8.624 -0.2044  0.0912 -0.3813
  594PYPI   C1A 9389  15.757  11.132   8.543 -0.0025  0.1569 -0.2563
  594PYPI   C2A 9390  15.527  10.957   8.208  0.0569  0.0735 -0.1722
  594PYPI   D3A 9391  15.393  10.750   7.864  0.0791 -0.2388  0.1105
  594PYPI   C4A 9392  15.537  10.896   7.441  0.1368  0.1969  0.0530
  594PYPI   C1B 9393  16.382  11.182   8.289  0.1221 -0.0114  0.3387
  594PYPI   C2B 9394  16.438  11.207   7.806 -0.5083  0.0729  0.4151
  594PYPI   C3B 9395  16.499  11.195   7.338  0.1105  0.0882  0.2314
  594PYPI   C4B 9396  16.766  11.143   7.010 -0.1504  0.0343  0.1112
  595PYPI    C1 9397  17.716   1.890   9.783  0.1175 -0.0608 -0.1417
  595PYPI    C2 9398  17.738   1.906   9.384  0.1331 -0.0847 -0.1419
  595PYPI    C3 9399  17.387   1.833   9.562  0.1556 -0.2321 -0.1561
  595PYPI   PO4 9400  18.002   1.752   9.780 -0.0840  0.3020 -0.0980
  595PYPI   GL1 9401  18.163   1.571   9.346 -0.2083 -0.3826 -0.0695
  595PYPI   GL2 9402  18.533   1.535   9.398  0.2778  0.2162  0.0353
  595PYPI   C1A 9403  18.142   1.491   8.951 -0.0735 -0.1688  0.3036
  595PYPI   C2A 9404  18.223   1.660   8.477  0.1538 -0.0495 -0.0808
  595PYPI   D3A 9405  18.138   1.835   8.000  0.3292 -0.0087 -0.0086
  595PYPI   C4A 9406  18.184   2.293   8.119 -0.1031  0.0924  0.1628
  595PYPI   C1B 9407  18.635   1.787   9.136 -0.0977  0.3246  0.0689
  595PYPI   C2B 9408  18.504   1.912   8.817  0.2873 -0.0982  0.0039
  595PYPI   C3B 9409  18.316   2.095   8.612  0.3227  0.1252  0.4468
  595PYPI   C4B 9410  17.850   1.996   8.378  0.0842  0.3257  0.0871
  596PYPI    C1 9411   6.363   2.707   9.956  0.0956 -0.1558  0.3773
  596PYPI    C2 9412   6.516   3.035  10.126 -0.2122  0.2230 -0.0513
  596PYPI    C3 9413   6.173   2.881  10.262  0.0309 -0.0439  0.2747
  596PYPI   PO4 9414   6.342   2.786   9.703  0.1276  0.1144 -0.1832
  596PYPI   GL1 9415   6.467   2.648   9.267 -0.3006 -0.1027  0.2876
  596PYPI   GL2 9416   6.752   2.618   9.164 -0.0616 -0.0846  0.0643
  596PYPI   C1A 9417   6.290   2.859   8.977 -0.0270 -0.1057  0.2882
  596PYPI   C2A 9418   6.410   3.240   8.737 -0.0846  0.0793  0.0872
  596PYPI   D3A 9419   6.290   3.470   8.439 -0.2149 -0.4853  0.0997
  596PYPI   C4A 9420   6.617   3.569   8.165  0.1288  0.1832  0.3628
  596PYPI   C1B 9421   6.824   2.935   8.799 -0.0664  0.2283  0.0656
  596PYPI   C2B 9422   6.809   3.148   8.340 -0.3111  0.0392  0.2225
  596PYPI   C3B 9423   6.845   3.132   7.909  0.1467 -0.0886 -0.0794
  596PYPI   C4B 9424   6.713   3.058   7.532  0.0676 -0.2653  0.0325
  597PYPI    C1 9425  15.005   1.082  10.170 -0.0748  0.1075  0.1289
  597PYPI    C2 9426  14.875   1.271  10.498 -0.1860 -0.2152  0.2744
  597PYPI    C3 9427  15.216   1.061  10.509 -0.1383 -0.1448  0.1548
  597PYPI   PO4 9428  14.985   1.223   9.862 -0.0911  0.0484  0.0152
  597PYPI   GL1 9429  15.117   1.203   9.476 -0.1615  0.1023 -0.0905
  597PYPI   GL2 9430  15.007   0.865   9.244  0.1629  0.0944  0.1403
  597PYPI   C1A 9431  15.137   1.288   8.973  0.3544 -0.1371  0.1269
  597PYPI   C2A 9432  15.285   1.244   8.544  0.2965 -0.1861 -0.0992
  597PYPI   D3A 9433  15.188   1.463   8.139  0.1672 -0.1218  0.0049
  597PYPI   C4A 9434  15.178   1.368   7.632  0.0975 -0.1701 -0.0964
  597PYPI   C1B 9435  14.958   0.887   8.828  0.1625 -0.0654  0.0769
  597PYPI   C2B 9436  15.029   0.843   8.333  0.0056  0.0296  0.0747
  597PYPI   C3B 9437  15.206   0.522   8.006 -0.2159 -0.1284 -0.1347
  597PYPI   C4B 9438  15.340   0.359   7.505  0.0633 -0.1335  0.1914
  598PYPI    C1 9439   7.376   1.606   9.595  0.2177  0.1073  0.1377
  598PYPI    C2 9440   7.417   1.994   9.681 -0.3629  0.1956  0.0514
  598PYPI    C3 9441   7.341   1.732   9.973 -0.1189  0.1655  0.0898
  598PYPI   PO4 9442   7.175   1.651   9.364  0.0278 -0.3971  0.0701
  598PYPI   GL1 9443   6.868   1.517   9.059  0.1016 -0.2191  0.0771
  598PYPI   GL2 9444   6.810   1.219   9.061  0.2105 -0.0323  0.1845
  598PYPI   C1A 9445   6.634   1.653   8.866  0.2907  0.0797  0.2987
  598PYPI   C2A 9446   6.513   1.855   8.525 -0.1293 -0.1236 -0.2378
  598PYPI   D3A 9447   6.569   2.153   8.156  0.0525  0.1935  0.0441
  598PYPI   C4A 9448   6.356   2.046   7.761  0.1482  0.0544  0.0345
  598PYPI   C1B 9449   6.947   1.238   8.669  0.1690 -0.2111 -0.1610
  598PYPI   C2B 9450   6.936   1.190   8.273 -0.1311  0.3042 -0.1394
  598PYPI   C3B 9451   6.996   1.248   7.752  0.3695  0.3086 -0.3952
  598PYPI   C4B 9452   6.951   1.266   7.406  0.2701  0.3628  0.1768
  599PYPI    C1 9453   8.044  17.081  10.353  0.2698 -0.1591 -0.3572
  599PYPI    C2 9454   8.131  17.465  10.285  0.1488 -0.0289  0.1761
  599PYPI    C3 9455   8.423  17.207  10.371  0.1943  0.0197  0.1685
  599PYPI   PO4 9456   7.858  16.990  10.105 -0.1634  0.4372  0.0297
  599PYPI   GL1 9457   7.783  16.587   9.731  0.0594  0.0040 -0.1391
  599PYPI   GL2 9458   7.584  16.699   9.449  0.1756 -0.1455 -0.0042
  599PYPI   C1A 9459   7.624  16.249   9.400  0.0870 -0.1140 -0.2399
  599PYPI   C2A 9460   7.309  15.951   9.387  0.1325  0.0972 -0.0282
  599PYPI   D3A 9461   7.380  15.715   9.146  0.1988 -0.0325 -0.2490
  599PYPI   C4A 9462   7.410  16.017   8.810 -0.3243  0.1030 -0.2325
  599PYPI   C1B 9463   7.706  16.640   9.142  0.2895  0.2099 -0.6065
  599PYPI   C2B 9464   8.048  16.820   8.934 -0.1767  0.2818 -0.2544
  599PYPI   C3B 9465   8.148  16.695   8.516 -0.0204 -0.0652 -0.1076
  599PYPI   C4B 9466   7.958  16.612   8.141 -0.1797 -0.0778  0.0598
  600PYPI    C1 9467   5.480   4.466  10.015  0.0098 -0.1260 -0.3624
  600PYPI    C2 9468   5.290   4.603  10.339  0.3657 -0.1733 -0.1276
  600PYPI    C3 9469   5.116   4.329  10.107  0.0366 -0.0133 -0.0759
  600PYPI   PO4 9470   5.469   4.588   9.775 -0.0867 -0.0499  0.0558
  600PYPI   GL1 9471   5.392   4.479   9.268 -0.1377 -0.0112 -0.2797
  600PYPI   GL2 9472   5.537   4.115   9.120  0.1713 -0.0963  0.0020
  600PYPI   C1A 9473   5.421   4.545   8.927 -0.0754 -0.0818 -0.0386
  600PYPI   C2A 9474   5.496   4.523   8.423  0.1768  0.0846 -0.0932
  600PYPI   D3A 9475   5.367   4.613   7.996 -0.1317 -0.1796 -0.4874
  600PYPI   C4A 9476   5.413   4.266   7.640 -0.3855 -0.2440  0.0570
  600PYPI   C1B 9477   5.484   4.084   8.661  0.2463  0.0280 -0.2420
  600PYPI   C2B 9478   5.450   4.086   8.217  0.1063  0.1456  0.0063
  600PYPI   C3B 9479   5.745   3.879   7.867 -0.2248 -0.0452  0.0883
  600PYPI   C4B 9480   6.242   3.790   7.942  0.0921  0.1654 -0.0536
  601PYPI    C1 9481   9.971   6.914  10.502  0.0796 -0.0057  0.1260
  601PYPI    C2 9482  10.125   7.249  10.348  0.0593  0.1173  0.3675
  601PYPI    C3 9483  10.191   7.156  10.731  0.1794 -0.2270  0.2679
  601PYPI   PO4 9484   9.926   6.779  10.209 -0.0987  0.0662  0.1601
  601PYPI   GL1 9485  10.166   6.883   9.856  0.0222 -0.1369  0.1145
  601PYPI   GL2 9486  10.520   6.738   9.774 -0.3159 -0.0969  0.0786
  601PYPI   C1A 9487  10.033   6.996   9.504 -0.0327  0.2983  0.0821
  601PYPI   C2A 9488   9.995   6.816   9.115 -0.1649 -0.1790 -0.0330
  601PYPI   D3A 9489   9.892   6.375   8.974  0.0222  0.0710  0.0071
  601PYPI   C4A 9490   9.838   6.442   8.523 -0.0624 -0.0048  0.1537
  601PYPI   C1B 9491  10.568   6.580   9.338 -0.1373 -0.0922 -0.0770
  601PYPI   C2B 9492  10.404   6.452   8.905 -0.1801 -0.1731  0.0540
  601PYPI   C3B 9493  10.340   6.494   8.539  0.1825  0.1451 -0.1007
  601PYPI   C4B 9494  10.175   6.630   8.138 -0.2442  0.0749  0.0227
  602PYPI    C1 9495   2.982   3.454   9.607 -0.1333  0.0304  0.1373
  602PYPI    C2 9496   3.032   3.790   9.395  0.1803 -0.1298 -0.0508
  602PYPI    C3 9497   2.722   3.756   9.646  0.0874  0.2576 -0.1059
  602PYPI   PO4 9498   3.204   3.305   9.510 -0.1963 -0.2706 -0.1709
  602PYPI   GL1 9499   3.571   3.249   9.217 -0.0707  0.1685  0.3581
  602PYPI   GL2 9500   3.416   3.461   8.974 -0.0409 -0.0539  0.1053
  602PYPI   C1A 9501   3.806   3.014   8.843  0.1487  0.0409  0.0164
  602PYPI   C2A 9502   3.772   3.026   8.487  0.0321 -0.1338  0.2889
  602PYPI   D3A 9503   3.855   3.075   8.093 -0.0193 -0.0881  0.3554
  602PYPI   C4A 9504   3.658   3.220   7.696  0.3361 -0.0497  0.0135
  602PYPI   C1B 9505   3.488   3.471   8.505 -0.0345  0.2546 -0.2262
  602PYPI   C2B 9506   3.355   3.477   8.078  0.1910  0.0177 -0.3478
  602PYPI   C3B 9507   3.201   3.462   7.710 -0.2645 -0.1017 -0.1348
  602PYPI   C4B 9508   3.097   3.762   7.316 -0.0986 -0.0087 -0.1375
  603PYPI    C1 9509  13.093   8.632   9.788  0.2444 -0.0186  0.3252
  603PYPI    C2 9510  12.864   8.801  10.069  0.0473 -0.1372  0.2381
  603PYPI    C3 9511  13.180   8.579  10.174  0.0786 -0.0358  0.3609
  603PYPI   PO4 9512  13.059   8.474   9.629  0.1788  0.0241 -0.3779
  603PYPI   GL1 9513  13.377   8.531   9.347  0.1107  0.1940  0.3035
  603PYPI   GL2 9514  13.321   8.212   9.290 -0.2828 -0.0324 -0.0341
  603PYPI   C1A 9515  13.492   8.617   8.949  0.0580 -0.0475  0.2328
  603PYPI   C2A 9516  13.413   8.646   8.485 -0.0237 -0.0633 -0.0837
  603PYPI   D3A 9517  13.411   8.717   7.997 -0.2530 -0.1364  0.1693
  603PYPI   C4A 9518  13.566   9.034   7.635  0.0268 -0.0220  0.0148
  603PYPI   C1B 9519  13.104   8.128   8.985  0.0327  0.0167  0.3955
  603PYPI   C2B 9520  13.069   8.246   8.493 -0.0417 -0.0497  0.1049
  603PYPI   C3B 9521  12.938   8.286   8.127 -0.0022 -0.0709  0.1184
  603PYPI   C4B 9522  12.925   8.287   7.691  0.0995 -0.2316  0.1383
  604PYPI    C1 9523  10.232   1.578   9.792 -0.0057 -0.0474 -0.2721
  604PYPI    C2 9524   9.923   1.828   9.757  0.0254  0.0017 -0.1976
  604PYPI    C3 9525  10.284   1.970   9.854  0.0656 -0.0588 -0.2586
  604PYPI   PO4 9526  10.112   1.318   9.762  0.0890 -0.0114 -0.2029
  604PYPI   GL1 9527  10.181   1.177   9.380  0.3125 -0.0189 -0.2403
  604PYPI   GL2 9528  10.365   1.462   9.281 -0.0456  0.2202 -0.1858
  604PYPI   C1A 9529   9.895   1.354   8.986 -0.0238  0.1733  0.2488
  604PYPI   C2A 9530   9.946   1.465   8.513 -0.0137  0.0684 -0.0319
  604PYPI   D3A 9531  10.103   1.476   8.141 -0.3092 -0.0517  0.0331
  604PYPI   C4A 9532  10.589   1.378   8.115 -0.0026 -0.1429  0.3453
  604PYPI   C1B 9533  10.295   1.571   8.829  0.1728  0.0198 -0.1738
  604PYPI   C2B 9534  10.346   1.734   8.465 -0.1241  0.1242 -0.2210
  604PYPI   C3B 9535  10.399   1.832   8.089  0.0642  0.0376  0.0903
  604PYPI   C4B 9536  10.377   2.184   7.770  0.0873 -0.0746  0.2725
  605PYPI    C1 9537   9.286   9.901  10.079  0.1073  0.2542  0.0643
  605PYPI    C2 9538   9.021   9.647  10.238  0.1493  0.1410 -0.0447
  605PYPI    C3 9539   9.109   9.989  10.427  0.3233 -0.0678  0.2608
  605PYPI   PO4 9540   9.546   9.777  10.011  0.1021  0.0829 -0.0434
  605PYPI   GL1 9541   9.834   9.721   9.735  0.3509  0.0487  0.0392
  605PYPI   GL2 9542   9.791   9.353   9.636 -0.2626 -0.1987 -0.1386
  605PYPI   C1A 9543   9.576   9.837   9.313  0.0386 -0.0196 -0.0892
  605PYPI   C2A 9544   9.393  10.119   9.126 -0.2870  0.2320 -0.4851
  605PYPI   D3A 9545   9.541  10.465   8.885  0.3692  0.1643  0.1609
  605PYPI   C4A 9546   9.412  10.451   8.469 -0.0029  0.2304  0.0933
  605PYPI   C1B 9547   9.919   9.513   9.202 -0.0212  0.1158  0.0916
  605PYPI   C2B 9548   9.978   9.588   8.784 -0.2922 -0.0286 -0.0995
  605PYPI   C3B 9549   9.852   9.700   8.345  0.4691  0.1006  0.1793
  605PYPI   C4B 9550   9.641  10.035   8.148 -0.3220 -0.1811  0.2524
  606PYPI    C1 9551  14.465  11.997   9.597  0.0015 -0.1306 -0.0225
  606PYPI    C2 9552  14.239  11.674   9.531 -0.1166 -0.0656  0.0602
  606PYPI    C3 9553  14.505  11.674   9.829 -0.0247 -0.1331 -0.0214
  606PYPI   PO4 9554  14.553  12.099   9.219 -0.1657  0.1423  0.1149
  606PYPI   GL1 9555  14.280  11.907   8.929 -0.1439  0.1059  0.4003
  606PYPI   GL2 9556  14.080  12.209   9.029  0.0248 -0.0666  0.1632
  606PYPI   C1A 9557  14.223  11.623   8.560  0.1071  0.1226 -0.0047
  606PYPI   C2A 9558  14.206  11.417   8.323  0.3717 -0.1188  0.2506
  606PYPI   D3A 9559  14.180  11.393   7.920  0.2079  0.1193  0.3269
  606PYPI   C4A 9560  14.066  11.029   7.784 -0.0334 -0.1327 -0.0594
  606PYPI   C1B 9561  13.912  12.194   8.576  0.1273  0.1348 -0.1008
  606PYPI   C2B 9562  13.794  12.189   8.150  0.0638 -0.1462 -0.0013
  606PYPI   C3B 9563  13.774  12.264   7.732  0.2660  0.3409  0.0323
  606PYPI   C4B 9564  13.575  12.337   7.417 -0.2830 -0.2459 -0.2127
  607ERGO   ROH 9565  10.054   2.439   5.719 -0.1233 -0.1854 -0.0430
  607ERGO    R1 9566  10.043   2.438   6.002 -0.3518 -0.1274 -0.0497
  607ERGO    R2 9567  10.219   2.583   6.158 -0.1926 -0.4378  0.0679
  607ERGO    R3 9568   9.991   2.684   6.265 -0.0959  0.0167 -0.1296
  607ERGO    R4 9569  10.207   2.816   6.413  0.0532 -0.5309  0.1679
  607ERGO    R5 9570  10.039   2.706   6.498 -0.2917 -0.2105 -0.0641
  607ERGO    C1 9571   9.985   3.046   6.663  0.2870 -0.1584  0.0407
  607ERGO    C2 9572   9.850   3.253   6.897  0.0705 -0.3284  0.2894
  608ERGO   ROH 9573  18.049  10.408   9.017  0.2344  0.2345 -0.0713
  608ERGO    R1 9574  18.192  10.365   8.777  0.1356  0.0484 -0.0989
  608ERGO    R2 9575  18.095  10.207   8.572 -0.0537  0.0749 -0.0316
  608ERGO    R3 9576  18.139  10.430   8.422  0.0969 -0.0010 -0.1023
  608ERGO    R4 9577  18.112  10.213   8.227 -0.1164 -0.0360 -0.0371
  608ERGO    R5 9578  18.278  10.354   8.242  0.0014 -0.1637 -0.1091
  608ERGO    C1 9579  18.164  10.425   7.886 -0.0120 -0.1717 -0.1065
  608ERGO    C2 9580  18.232  10.504   7.703 -0.1978 -0.0412  0.0321
  609ERGO   ROH 9581   7.407   1.798   6.243  0.0944  0.3276  0.2107
  609ERGO    R1 9582   7.622   1.732   6.415  0.1389  0.1241  0.0805
  609ERGO    R2 9583   7.586   1.590   6.650  0.1546  0.1146  0.0789
  609ERGO    R3 9584   7.774   1.426   6.542 -0.0390 -0.0230 -0.0555
  609ERGO    R4 9585   7.738   1.328   6.815  0.2563  0.1554  0.0501
  609ERGO    R5 9586   7.927   1.384   6.721  0.1657  0.0270 -0.2152
  609ERGO    C1 9587   8.004   1.021   6.810  0.1337  0.0501 -0.0928
  609ERGO    C2 9588   8.031   0.757   6.989 -0.0267 -0.2207 -0.1864
  610ERGO   ROH 9589  15.116   3.596   5.605  0.0663 -0.1482 -0.0094
  610ERGO    R1 9590  15.295   3.725   5.782  0.0012 -0.0123 -0.0410
  610ERGO    R2 9591  15.233   3.963   5.908 -0.1906 -0.0989  0.0348
  610ERGO    R3 9592  15.295   3.822   6.132  0.0232 -0.0926 -0.0189
  610ERGO    R4 9593  15.394   4.093   6.185 -0.0542 -0.0575 -0.0635
  610ERGO    R5 9594  15.509   3.908   6.199  0.0336 -0.0101 -0.1577
  610ERGO    C1 9595  15.546   4.037   6.556  0.2261 -0.0276 -0.1710
  610ERGO    C2 9596  15.453   4.279   6.806 -0.2613 -0.0771 -0.0192
  611ERGO   ROH 9597   4.062   2.018   9.274  0.0521  0.1582  0.1069
  611ERGO    R1 9598   4.240   1.969   9.058 -0.0166  0.0397  0.0768
  611ERGO    R2 9599   4.169   1.816   8.839 -0.1305  0.0262  0.1245
  611ERGO    R3 9600   4.247   2.037   8.701 -0.0661 -0.0352  0.0607
  611ERGO    R4 9601   4.242   1.823   8.501 -0.1586 -0.0887  0.1155
  611ERGO    R5 9602   4.409   1.956   8.545 -0.1070 -0.1338  0.0668
  611ERGO    C1 9603   4.358   2.034   8.175 -0.1145 -0.2133  0.0504
  611ERGO    C2 9604   4.345   2.259   7.979 -0.0123  0.0990 -0.0547
  612ERGO   ROH 9605   5.711  10.240   5.972  0.0352  0.1018  0.2182
  612ERGO    R1 9606   5.854  10.301   6.209 -0.2258  0.1003  0.3804
  612ERGO    R2 9607   6.049  10.496   6.219  0.1228 -0.2388  0.4619
  612ERGO    R3 9608   5.898  10.591   6.424 -0.0434  0.2669  0.1230
  612ERGO    R4 9609   6.156  10.728   6.451  0.2658 -0.3493  0.5078
  612ERGO    R5 9610   6.052  10.614   6.606 -0.3162 -0.0055  0.4002
  612ERGO    C1 9611   6.076  10.953   6.779  0.1931  0.0611  0.2163
  612ERGO    C2 9612   6.307  11.226   6.900  0.0478  0.2223 -0.0005
  613ERGO   ROH 9613  10.565  15.600   9.189  0.0226 -0.1069  0.0497
  613ERGO    R1 9614  10.469  15.755   8.972 -0.0362 -0.0755  0.0981
  613ERGO    R2 9615  10.546  15.710   8.711 -0.0461  0.0132  0.0794
  613ERGO    R3 9616  10.278  15.694   8.668 -0.0456 -0.0461  0.0984
  613ERGO    R4 9617  10.398  15.627   8.410 -0.0499 -0.0311  0.0934
  613ERGO    R5 9618  10.247  15.780   8.447 -0.0799 -0.0622  0.0972
  613ERGO    C1 9619  10.060  15.565   8.194 -0.0516 -0.1126  0.1192
  613ERGO    C2 9620  10.062  15.319   7.930  0.0138  0.2025  0.0595
  614ERGO   ROH 9621   5.140  17.275   6.284 -0.0168  0.1103  0.0292
  614ERGO    R1 9622   5.159  17.197   6.555 -0.1280  0.0148  0.0101
  614ERGO    R2 9623   5.374  17.055   6.655 -0.1416  0.0287  0.0610
  614ERGO    R3 9624   5.384  17.260   6.834 -0.2750 -0.0339  0.1415
  614ERGO    R4 9625   5.538  17.045   6.959  0.1568  0.1257 -0.0926
  614ERGO    R5 9626   5.371  17.153   7.048  0.0752 -0.1530  0.1097
  614ERGO    C1 9627   5.643  17.231   7.304  0.2054  0.1236 -0.1064
  614ERGO    C2 9628   5.965  17.464   7.438  0.0402  0.0047  0.3685
  615ERGO   ROH 9629   6.419   7.822   6.044  0.1428 -0.0867  0.0036
  615ERGO    R1 9630   6.403   7.833   6.326  0.0381 -0.0651 -0.0032
  615ERGO    R2 9631   6.271   8.036   6.460  0.0252 -0.0336 -0.0674
  615ERGO    R3 9632   6.138   7.829   6.576 -0.0569 -0.0006 -0.1008
  615ERGO    R4 9633   6.130   8.045   6.776  0.2891 -0.1200  0.0556
  615ERGO    R5 9634   6.201   7.841   6.807  0.1441 -0.2069 -0.1399
  615ERGO    C1 9635   5.924   7.856   7.069  0.3657 -0.1393  0.0960
  615ERGO    C2 9636   5.694   7.794   7.295  0.0911 -0.0486 -0.1525
  616ERGO   ROH 9637   5.659   1.915   5.569  0.0983 -0.0883 -0.1370
  616ERGO    R1 9638   5.843   1.800   5.752  0.0975 -0.0917 -0.1367
  616ERGO    R2 9639   5.927   1.930   5.981  0.0833 -0.1011 -0.1192
  616ERGO    R3 9640   5.840   1.703   6.102  0.0843 -0.1136 -0.1447
  616ERGO    R4 9641   5.990   1.846   6.310  0.0833 -0.1514 -0.1328
  616ERGO    R5 9642   6.021   1.640   6.246  0.0787 -0.1375 -0.1563
  616ERGO    C1 9643   5.945   1.584   6.616  0.0842 -0.1925 -0.1648
  616ERGO    C2 9644   6.113   1.394   6.910 -0.0310 -0.1034  0.0911
  617ERGO   ROH 9645   7.888   4.479   5.805 -0.0141 -0.2984  0.0579
  617ERGO    R1 9646   7.829   4.496   6.081 -0.0752 -0.3093  0.0456
  617ERGO    R2 9647   7.721   4.286   6.224  0.2010 -0.4266  0.0853
  617ERGO    R3 9648   7.936   4.328   6.386  0.1240 -0.0829  0.1041
  617ERGO    R4 9649   7.772   4.133   6.530  0.3606 -0.2593  0.1442
  617ERGO    R5 9650   7.845   4.323   6.608  0.0958 -0.1297  0.0926
  617ERGO    C1 9651   8.003   4.084   6.860  0.3813  0.1608  0.1963
  617ERGO    C2 9652   7.967   4.009   7.272 -0.1462 -0.2898 -0.0122
  618ERGO   ROH 9653   0.188   6.197   9.013  0.0198  0.1280  0.0633
  618ERGO    R1 9654   0.144   6.279   8.746  0.3609  0.2126  0.0279
  618ERGO    R2 9655   0.343   6.277   8.555  0.4494 -0.4064  0.1051
  618ERGO    R3 9656   0.164   6.127   8.416  0.0504  0.0756  0.0683
  618ERGO    R4 9657   0.341   6.239   8.211  0.4143 -0.4023  0.1048
  618ERGO    R5 9658   0.124   6.252   8.216  0.4322  0.1971  0.0593
  618ERGO    C1 9659   0.172   6.075   7.881  0.0192  0.0526  0.0700
  618ERGO    C2 9660   0.043   6.034   7.628  0.1234  0.1789 -0.1413
  619ERGO   ROH 9661   3.473  14.005   9.052  0.0214  0.1776 -0.1528
  619ERGO    R1 9662   3.372  13.997   8.787 -0.0687  0.3051 -0.1245
  619ERGO    R2 9663   3.271  14.221   8.660  0.1553  0.4376 -0.0907
  619ERGO    R3 9664   3.453  14.155   8.469  0.0271  0.2231 -0.1391
  619ERGO    R4 9665   3.238  14.291   8.323  0.0446  0.2493 -0.1192
  619ERGO    R5 9666   3.320  14.094   8.279 -0.0883  0.1829 -0.0403
  619ERGO    C1 9667   3.389  14.270   7.948 -0.1402 -0.0614 -0.1814
  619ERGO    C2 9668   3.250  14.315   7.630  0.3807 -0.3211 -0.1957
  620ERGO   ROH 9669   4.946   4.693   9.056 -0.1167 -0.1651 -0.1189
  620ERGO    R1 9670   4.901   4.844   8.821 -0.1870 -0.0872 -0.0554
  620ERGO    R2 9671   5.088   4.861   8.618 -0.1134  0.2367  0.0334
  620ERGO    R3 9672   4.879   4.778   8.464  0.0461  0.0784 -0.1024
  620ERGO    R4 9673   5.083   4.864   8.272  0.1507  0.1005  0.0255
  620ERGO    R5 9674   4.876   4.930   8.280  0.1133  0.0039 -0.1638
  620ERGO    C1 9675   4.885   4.787   7.927  0.4543 -0.1273 -0.1066
  620ERGO    C2 9676   4.973   4.589   7.614  0.3275 -0.0600  0.1585
  621ERGO   ROH 9677  12.185  14.955   5.763 -0.1642  0.2688 -0.3404
  621ERGO    R1 9678  12.306  14.989   6.017 -0.1222  0.0356 -0.3257
  621ERGO    R2 9679  12.454  15.213   6.082 -0.0069 -0.0780 -0.1825
  621ERGO    R3 9680  12.282  15.227   6.291  0.0189 -0.1402 -0.1581
  621ERGO    R4 9681  12.547  15.213   6.415  0.0248 -0.3485 -0.1902
  621ERGO    R5 9682  12.377  15.083   6.457 -0.0322 -0.2985 -0.2644
  621ERGO    C1 9683  12.439  15.226   6.805  0.0677 -0.5644 -0.1717
  621ERGO    C2 9684  12.312  15.310   7.153 -0.0816  0.2734 -0.2867
  622ERGO   ROH 9685   6.210  17.823   6.102  0.0052 -0.0335 -0.0448
  622ERGO    R1 9686   6.467  17.767   6.207 -0.0216 -0.0827 -0.0035
  622ERGO    R2 9687   6.594  17.935   6.385  0.0816  0.0142 -0.1624
  622ERGO    R3 9688   6.612  17.710   6.536 -0.0442  0.1412  0.0468
  622ERGO    R4 9689   6.801  17.898   6.661  0.1601  0.1079 -0.2084
  622ERGO    R5 9690   6.845  17.695   6.593 -0.0334  0.0054 -0.0332
  622ERGO    C1 9691   6.937  17.664   6.962  0.0877  0.2817 -0.0388
  622ERGO    C2 9692   7.107  17.604   7.255 -0.2177  0.0137 -0.2350
  623ERGO   ROH 9693   4.331  16.298   6.041  0.1871  0.0570  0.0661
  623ERGO    R1 9694   4.170  16.142   6.214  0.1194  0.0227 -0.0268
  623ERGO    R2 9695   4.268  16.029   6.446  0.0543 -0.1067 -0.0599
  623ERGO    R3 9696   4.059  16.161   6.560  0.0725 -0.1004 -0.0353
  623ERGO    R4 9697   4.249  16.119   6.779  0.1503  0.0094 -0.0857
  623ERGO    R5 9698   4.039  16.063   6.778  0.1607 -0.0246  0.0058
  623ERGO    C1 9699   4.043  16.296   7.080  0.2232  0.0831 -0.0777
  623ERGO    C2 9700   4.033  16.519   7.229 -0.1030 -0.0146  0.3365
  624ERGO   ROH 9701  16.278   7.987   5.649  0.1616 -0.1503 -0.0801
  624ERGO    R1 9702  16.195   7.946   5.917 -0.2952 -0.0201 -0.1903
  624ERGO    R2 9703  16.373   7.883   6.119 -0.7042 -0.6178  0.0204
  624ERGO    R3 9704  16.261   8.100   6.240 -0.2381 -0.3206 -0.0578
  624ERGO    R4 9705  16.333   7.920   6.460 -0.4488 -0.2946  0.0201
  624ERGO    R5 9706  16.137   8.008   6.423 -0.3083  0.0416  0.0787
  624ERGO    C1 9707  16.204   8.144   6.773  0.1374  0.1725 -0.0535
  624ERGO    C2 9708  16.109   7.987   7.075  0.4825  0.0600 -0.1111
  625ERGO   ROH 9709   8.098  16.340   9.303 -0.0728  0.1412 -0.1037
  625ERGO    R1 9710   8.025  16.200   9.068 -0.1202  0.0974 -0.0633
  625ERGO    R2 9711   7.872  16.315   8.869  0.1449  0.1840 -0.2192
  625ERGO    R3 9712   8.079  16.239   8.710  0.1389 -0.1843 -0.0593
  625ERGO    R4 9713   7.838  16.184   8.551  0.1454  0.2224 -0.2347
  625ERGO    R5 9714   7.998  16.043   8.598 -0.1244 -0.0584 -0.1036
  625ERGO    C1 9715   8.013  16.036   8.217  0.1402 -0.1009 -0.0937
  625ERGO    C2 9716   7.789  16.118   7.901  0.1014  0.1260 -0.1105
  626ERGO   ROH 9717  17.243   7.679   5.522  0.4285  0.0426  0.1141
  626ERGO    R1 9718  17.228   7.563   5.779  0.0829  0.1098  0.1299
  626ERGO    R2 9719  17.442   7.434   5.897 -0.1911 -0.2142  0.2884
  626ERGO    R3 9720  17.395   7.608   6.100 -0.0387 -0.0986  0.2258
  626ERGO    R4 9721  17.551   7.393   6.222 -0.3327 -0.2688  0.3289
  626ERGO    R5 9722  17.359   7.469   6.291 -0.2666 -0.0114  0.2527
  626ERGO    C1 9723  17.570   7.533   6.602 -0.2722 -0.1920  0.2937
  626ERGO    C2 9724  17.744   7.679   6.856  0.3222 -0.1254 -0.0429
  627ERGO   ROH 9725  11.130  14.649   5.949  0.0325 -0.0632  0.0529
  627ERGO    R1 9726  11.227  14.764   6.188 -0.0218  0.0208  0.0355
  627ERGO    R2 9727  11.305  15.029   6.206 -0.1173  0.0537 -0.0133
  627ERGO    R3 9728  11.128  15.033   6.413 -0.1313  0.0312 -0.0254
  627ERGO    R4 9729  11.329  15.236   6.482 -0.0691 -0.0664  0.0734
  627ERGO    R5 9730  11.264  15.069   6.606 -0.1357 -0.0938  0.0001
  627ERGO    C1 9731  11.177  15.360   6.836 -0.0542 -0.1576  0.1125
  627ERGO    C2 9732  11.085  15.427   7.087  0.0519 -0.1094 -0.0155
  628ERGO   ROH 9733  16.408   9.981   8.984 -0.0169  0.0088 -0.1079
  628ERGO    R1 9734  16.249   9.965   8.750  0.1240 -0.0727 -0.1996
  628ERGO    R2 9735  16.210  10.180   8.582 -0.1047 -0.0142 -0.0794
  628ERGO    R3 9736  16.301  10.008   8.392  0.2495  0.2357 -0.1469
  628ERGO    R4 9737  16.132  10.199   8.246 -0.4333 -0.2385 -0.0206
  628ERGO    R5 9738  16.114   9.982   8.243  0.1929 -0.3047  0.0005
  628ERGO    C1 9739  16.171  10.049   7.872 -0.2919 -0.1344 -0.0499
  628ERGO    C2 9740  16.229  10.042   7.514 -0.1045  0.1801 -0.0811
  629ERGO   ROH 9741  13.619   6.804   9.499  0.1313  0.6190  0.0437
  629ERGO    R1 9742  13.556   6.690   9.248  0.0619  0.3538  0.1775
  629ERGO    R2 9743  13.353   6.788   9.087  0.1042  0.2695  0.0715
  629ERGO    R3 9744  13.551   6.801   8.901  0.1029 -0.0501  0.0427
  629ERGO    R4 9745  13.303   6.837   8.749  0.1296  0.2871  0.0703
  629ERGO    R5 9746  13.460   6.690   8.710 -0.0861  0.0488  0.0732
  629ERGO    C1 9747  13.460   6.877   8.377  0.1431 -0.0027  0.0426
  629ERGO    C2 9748  13.089   6.842   8.092 -0.2230 -0.2010  0.1495
  630ERGO   ROH 9749   8.951  17.624   9.496 -0.3340 -0.1355  0.1855
  630ERGO    R1 9750   8.973  17.490   9.247 -0.2081 -0.1648  0.2108
  630ERGO    R2 9751   8.754  17.388   9.113 -0.1465 -0.1634  0.0990
  630ERGO    R3 9752   8.849  17.540   8.908 -0.0200 -0.1894  0.1391
  630ERGO    R4 9753   8.695  17.327   8.778  0.1181 -0.2338  0.0641
  630ERGO    R5 9754   8.902  17.381   8.737  0.1357 -0.2082  0.2084
  630ERGO    C1 9755   8.751  17.432   8.391  0.3908 -0.2990  0.0813
  630ERGO    C2 9756   8.667  17.379   8.074  0.2546  0.1282 -0.2437
  631ERGO   ROH 9757   4.876  17.184   9.362  0.0467 -0.0468 -0.0323
  631ERGO    R1 9758   4.739  17.238   9.120 -0.1683 -0.1129  0.0718
  631ERGO    R2 9759   4.844  17.175   8.873 -0.1784  0.2292 -0.0238
  631ERGO    R3 9760   4.607  17.045   8.841  0.0193 -0.1541  0.0094
  631ERGO    R4 9761   4.684  17.128   8.570 -0.2857  0.2382  0.0309
  631ERGO    R5 9762   4.494  17.169   8.670 -0.3036 -0.1808  0.1933
  631ERGO    C1 9763   4.369  16.979   8.364 -0.1626 -0.1166  0.0940
  631ERGO    C2 9764   4.325  16.949   7.913  0.0423 -0.2817  0.1263
  632ERGO   ROH 9765   7.366   7.462   6.185 -0.0874 -0.2001  0.0251
  632ERGO    R1 9766   7.503   7.493   6.431 -0.0512 -0.0831 -0.0096
  632ERGO    R2 9767   7.372   7.542   6.669 -0.0139  0.0136 -0.0155
  632ERGO    R3 9768   7.510   7.323   6.753  0.0128  0.0618  0.0693
  632ERGO    R4 9769   7.405   7.444   6.999  0.0322  0.1914  0.0337
  632ERGO    R5 9770   7.613   7.392   6.958  0.0382  0.1816  0.0245
  632ERGO    C1 9771   7.553   7.181   7.270  0.0840  0.3401  0.1420
  632ERGO    C2 9772   7.396   7.171   7.662  0.1801  0.5044 -0.1711
  633ERGO   ROH 9773   6.322  16.709   9.226 -0.1914 -0.0018 -0.0965
  633ERGO    R1 9774   6.246  16.662   8.957 -0.1710 -0.1670 -0.0745
  633ERGO    R2 9775   6.420  16.695   8.745 -0.2579  0.0702 -0.1127
  633ERGO    R3 9776   6.349  16.439   8.688  0.1290 -0.0580 -0.0547
  633ERGO    R4 9777   6.380  16.568   8.426 -0.5211  0.0740 -0.0827
  633ERGO    R5 9778   6.204  16.459   8.498 -0.2149 -0.2760  0.1715
  633ERGO    C1 9779   6.288  16.254   8.187 -0.3111 -0.0441 -0.0107
  633ERGO    C2 9780   6.322  16.138   7.833 -0.2233  0.0510 -0.1428
  634ERGO   ROH 9781  16.600   8.331   5.672 -0.1154 -0.0317 -0.0394
  634ERGO    R1 9782  16.561   8.253   5.941 -0.1518  0.1324  0.0034
  634ERGO    R2 9783  16.771   8.208   6.115 -0.1702  0.0170 -0.0104
  634ERGO    R3 9784  16.638   8.388   6.270  0.0218  0.2154 -0.0688
  634ERGO    R4 9785  16.841   8.274   6.447 -0.1858 -0.0646  0.0100
  634ERGO    R5 9786  16.627   8.285   6.486 -0.1939  0.2351 -0.0637
  634ERGO    C1 9787  16.758   8.481   6.786 -0.0144  0.0740 -0.0328
  634ERGO    C2 9788  16.906   8.609   7.188  0.2396  0.0684 -0.1581
  635ERGO   ROH 9789  18.030   4.282   5.859  0.2843 -0.0727  0.1505
  635ERGO    R1 9790  18.131   4.310   6.122  0.1199 -0.0081  0.2087
  635ERGO    R2 9791  18.073   4.528   6.282 -0.0668 -0.0195  0.1594
  635ERGO    R3 9792  17.993   4.336   6.458 -0.0880 -0.0404  0.1269
  635ERGO    R4 9793  18.153   4.523   6.618  0.2025 -0.2579  0.0953
  635ERGO    R5 9794  18.181   4.307   6.603  0.0065 -0.2759 -0.0380
  635ERGO    C1 9795  18.125   4.341   6.979  0.3394 -0.4163  0.0274
  635ERGO    C2 9796  18.223   4.439   7.275  0.0785 -0.0681 -0.1100
  636ERGO   ROH 9797   8.166   1.944   9.110  0.3688 -0.1059 -0.1540
  636ERGO    R1 9798   8.218   2.037   8.848  0.2522 -0.1871 -0.2081
  636ERGO    R2 9799   8.189   1.876   8.624 -0.0133 -0.2097 -0.1673
  636ERGO    R3 9800   8.029   2.079   8.540  0.0644 -0.1135 -0.0827
  636ERGO    R4 9801   8.080   1.919   8.299  0.1176  0.0583 -0.1776
  636ERGO    R5 9802   8.112   2.133   8.322  0.1549  0.0308 -0.0093
  636ERGO    C1 9803   7.866   2.134   8.030  0.2668  0.3046 -0.1042
  636ERGO    C2 9804   7.578   1.962   7.828 -0.2676 -0.2142 -0.2538
  637ERGO   ROH 9805   5.408   7.755   6.274  0.0064 -0.1723 -0.0534
  637ERGO    R1 9806   5.497   7.498   6.354  0.0457 -0.1340  0.0315
  637ERGO    R2 9807   5.340   7.272   6.329  0.0364 -0.1556  0.2036
  637ERGO    R3 9808   5.556   7.176   6.194 -0.0177 -0.2058  0.1551
  637ERGO    R4 9809   5.411   6.937   6.284  0.0433 -0.1690  0.3186
  637ERGO    R5 9810   5.622   6.982   6.318  0.0493 -0.1439  0.2068
  637ERGO    C1 9811   5.655   6.652   6.131 -0.0033 -0.2239  0.3400
  637ERGO    C2 9812   5.633   6.361   5.879 -0.3324  0.0400 -0.0747
  638ERGO   ROH 9813  17.468  11.115   8.984  0.1182 -0.2552  0.0242
  638ERGO    R1 9814  17.473  11.002   8.725  0.0638 -0.0944 -0.0501
  638ERGO    R2 9815  17.260  11.023   8.550 -0.0076 -0.0458  0.0267
  638ERGO    R3 9816  17.449  11.124   8.382 -0.0871  0.1172  0.0367
  638ERGO    R4 9817  17.242  11.015   8.205  0.1053 -0.1986  0.0243
  638ERGO    R5 9818  17.455  10.969   8.200  0.1560  0.0606  0.0993
  638ERGO    C1 9819  17.408  11.105   7.847  0.0962 -0.1346  0.0323
  638ERGO    C2 9820  17.526  11.079   7.543  0.0577  0.2453 -0.0127
  639ERGO   ROH 9821   5.321   8.921   9.666  0.4897 -0.2725  0.2640
  639ERGO    R1 9822   5.344   8.961   9.387  0.2603 -0.1164  0.2654
  639ERGO    R2 9823   5.531   9.133   9.276  0.2143 -0.1131  0.2118
  639ERGO    R3 9824   5.601   8.913   9.134  0.0289 -0.0500  0.0070
  639ERGO    R4 9825   5.694   9.138   8.972  0.3165  0.0537  0.2667
  639ERGO    R5 9826   5.566   8.975   8.906  0.1560  0.2397  0.0511
  639ERGO    C1 9827   5.855   8.933   8.661  0.2020  0.2101  0.1065
  639ERGO    C2 9828   6.062   8.870   8.451  0.0032  0.0157  0.0920
  640ERGO   ROH 9829  18.802   2.576   9.123 -0.0752  0.0723  0.0217
  640ERGO    R1 9830  18.733   2.416   8.899 -0.0956  0.1394 -0.0204
  640ERGO    R2 9831  18.633   2.523   8.665  0.0326  0.2251 -0.0359
  640ERGO    R3 9832  18.840   2.386   8.553 -0.0082  0.1277  0.0069
  640ERGO    R4 9833  18.653   2.434   8.332  0.0201  0.1478 -0.0160
  640ERGO    R5 9834  18.735   2.241   8.393 -0.0514  0.1303  0.0310
  640ERGO    C1 9835  18.859   2.253   8.032 -0.0255  0.0113  0.0356
  640ERGO    C2 9836  18.869   2.275   7.665 -0.0245 -0.1049  0.3538
  641ERGO   ROH 9837  17.018  13.662   5.751 -0.3781  0.1056  0.0041
  641ERGO    R1 9838  16.874  13.516   5.947 -0.2276  0.0293  0.0592
  641ERGO    R2 9839  16.868  13.240   5.951 -0.1041  0.0246  0.0456
  641ERGO    R3 9840  16.954  13.274   6.207 -0.0052  0.0467  0.0094
  641ERGO    R4 9841  16.840  13.004   6.203 -0.2419  0.1407  0.1405
  641ERGO    R5 9842  16.788  13.165   6.341 -0.0663  0.2391  0.0953
  641ERGO    C1 9843  16.905  12.899   6.589 -0.2294  0.2291  0.1618
  641ERGO    C2 9844  17.016  12.860   6.824  0.0759 -0.0711  0.1442
  642ERGO   ROH 9845  12.517   0.078   9.027  0.2312  0.1680 -0.1261
  642ERGO    R1 9846  12.588   0.168   8.768  0.0960  0.0934 -0.1907
  642ERGO    R2 9847  12.821   0.088   8.641  0.0606  0.1065 -0.2638
  642ERGO    R3 9848  12.650   0.016   8.443 -0.0081 -0.0075 -0.1643
  642ERGO    R4 9849  12.878   0.138   8.304 -0.0271 -0.1355 -0.3160
  642ERGO    R5 9850  12.668   0.193   8.282 -0.0270 -0.1198 -0.2928
  642ERGO    C1 9851  12.750   0.099   7.921 -0.1428 -0.3833 -0.2529
  642ERGO    C2 9852  12.996   0.002   7.801 -0.0006 -0.2521 -0.1127
  643ERGO   ROH 9853  13.794  11.720   9.096 -0.0026 -0.1595 -0.0661
  643ERGO    R1 9854  13.783  11.661   8.819 -0.0484 -0.1686 -0.0622
  643ERGO    R2 9855  13.556  11.561   8.697 -0.0779 -0.1415 -0.0271
  643ERGO    R3 9856  13.590  11.774   8.532 -0.0713 -0.1533 -0.0413
  643ERGO    R4 9857  13.479  11.564   8.360 -0.1382 -0.1437 -0.0137
  643ERGO    R5 9858  13.662  11.678   8.325 -0.1241 -0.1751 -0.0506
  643ERGO    C1 9859  13.467  11.766   8.009 -0.1672 -0.1562 -0.0192
  643ERGO    C2 9860  13.370  11.562   7.700 -0.0434 -0.1038  0.0557
  644ERGO   ROH 9861   8.907   7.105   9.681 -0.0438 -0.0435 -0.1633
  644ERGO    R1 9862   9.045   7.093   9.434 -0.1000  0.1123 -0.2023
  644ERGO    R2 9863   9.037   6.871   9.270  0.0596  0.1279 -0.2184
  644ERGO    R3 9864   8.958   7.051   9.083 -0.1544  0.0717 -0.1868
  644ERGO    R4 9865   9.035   6.813   8.929  0.2103  0.1940 -0.2321
  644ERGO    R5 9866   9.109   7.017   8.900 -0.0584  0.3157 -0.1671
  644ERGO    C1 9867   8.960   6.949   8.555  0.0973  0.1798 -0.2104
  644ERGO    C2 9868   8.982   7.021   8.278  0.3974 -0.1064 -0.1122
  645ERGO   ROH 9869  18.239   4.849   6.021 -0.0572 -0.0407  0.1410
  645ERGO    R1 9870  18.303   5.059   6.200  0.1150 -0.1292  0.1858
  645ERGO    R2 9871  18.137   5.276   6.241  0.3739  0.0967  0.0906
  645ERGO    R3 9872  18.160   5.202   6.502  0.1186  0.0520  0.1017
  645ERGO    R4 9873  18.120   5.493   6.509  0.3036  0.0742  0.1038
  645ERGO    R5 9874  18.282   5.382   6.604  0.1550 -0.0420  0.2203
  645ERGO    C1 9875  18.130   5.550   6.910  0.0230  0.0190  0.1219
  645ERGO    C2 9876  18.177   5.793   7.090 -0.1275  0.1254  0.2348
  646ERGO   ROH 9877  12.035   0.649   6.075  0.1231  0.1192 -0.0180
  646ERGO    R1 9878  12.219   0.704   6.283  0.0478  0.1510  0.0403
  646ERGO    R2 9879  12.146   0.702   6.550 -0.0205  0.0700  0.0211
  646ERGO    R3 9880  12.352   0.526   6.571  0.0438  0.1473  0.0399
  646ERGO    R4 9881  12.237   0.538   6.840 -0.0922 -0.0236 -0.0087
  646ERGO    R5 9882  12.446   0.570   6.787 -0.0790  0.0894  0.1060
  646ERGO    C1 9883  12.484   0.278   7.030 -0.0736 -0.0056 -0.0082
  646ERGO    C2 9884  12.422  -0.116   7.045 -0.0398 -0.4296  0.1070
  647ERGO   ROH 9885   7.420  16.004   6.309  0.1692  0.2785 -0.0360
  647ERGO    R1 9886   7.432  16.179   6.531 -0.1757  0.2200  0.0362
  647ERGO    R2 9887   7.231  16.194   6.720 -0.1957 -0.2923  0.0801
  647ERGO    R3 9888   7.434  16.146   6.893 -0.0546  0.0650  0.0206
  647ERGO    R4 9889   7.209  16.223   7.064 -0.1115 -0.2621  0.0820
  647ERGO    R5 9890   7.408  16.311   7.064 -0.2529  0.0540 -0.0038
  647ERGO    C1 9891   7.388  16.194   7.426  0.0700  0.0907  0.0273
  647ERGO    C2 9892   7.285  16.085   7.705 -0.0210  0.0517  0.3105
  648ERGO   ROH 9893   9.443  13.222   5.992  0.0050  0.1954 -0.1394
  648ERGO    R1 9894   9.409  13.154   6.265  0.1409  0.1073 -0.1437
  648ERGO    R2 9895   9.429  13.340   6.468  0.0862  0.0722 -0.1054
  648ERGO    R3 9896   9.183  13.246   6.535  0.1693 -0.1063 -0.0451
  648ERGO    R4 9897   9.289  13.359   6.784  0.0911  0.1018 -0.1050
  648ERGO    R5 9898   9.211  13.157   6.756  0.2597  0.0208 -0.0047
  648ERGO    C1 9899   8.976  13.281   7.030  0.1719 -0.0485 -0.0482
  648ERGO    C2 9900   8.653  13.218   7.232 -0.2631  0.1331 -0.0035
  649ERGO   ROH 9901  16.974  19.057   9.118 -0.1971 -0.0686 -0.1784
  649ERGO    R1 9902  17.100  18.925   8.901 -0.0913 -0.1888 -0.0458
  649ERGO    R2 9903  17.086  19.018   8.641 -0.0223 -0.3684 -0.1181
  649ERGO    R3 9904  17.357  19.004   8.656 -0.0246 -0.2963 -0.0104
  649ERGO    R4 9905  17.294  18.920   8.383  0.1275 -0.0722 -0.1132
  649ERGO    R5 9906  17.414  18.811   8.528  0.0952 -0.1629 -0.1585
  649ERGO    C1 9907  17.670  18.851   8.247  0.2124  0.1680 -0.0095
  649ERGO    C2 9908  17.822  18.844   7.877 -0.0394 -0.0135 -0.3532
  650ERGO   ROH 9909   5.343   3.416   9.173 -0.1063 -0.2304 -0.0122
  650ERGO    R1 9910   5.343   3.538   8.917 -0.1740 -0.1442  0.0277
  650ERGO    R2 9911   5.576   3.596   8.781 -0.2051  0.0323  0.0454
  650ERGO    R3 9912   5.459   3.451   8.583 -0.1242  0.0312 -0.0015
  650ERGO    R4 9913   5.681   3.590   8.451 -0.1072  0.0792  0.0759
  650ERGO    R5 9914   5.472   3.592   8.390 -0.0899  0.0508  0.0151
  650ERGO    C1 9915   5.631   3.450   8.074  0.0258  0.1054  0.0495
  650ERGO    C2 9916   5.842   3.408   7.775  0.0342 -0.0482  0.2431
  651ERGO   ROH 9917   8.656   3.005   9.357 -0.1796  0.1162  0.1119
  651ERGO    R1 9918   8.810   2.933   9.131 -0.0697  0.0151  0.2198
  651ERGO    R2 9919   8.704   2.795   8.916  0.0247 -0.0328  0.2125
  651ERGO    R3 9920   8.806   3.004   8.774  0.1417 -0.1021  0.1904
  651ERGO    R4 9921   8.755   2.796   8.574 -0.2304 -0.0152  0.1718
  651ERGO    R5 9922   8.943   2.900   8.607 -0.0861 -0.2172  0.0624
  651ERGO    C1 9923   8.880   2.991   8.242 -0.2691 -0.0700  0.1274
  651ERGO    C2 9924   8.689   2.901   7.924 -0.0054 -0.2805  0.2008
  652ERGO   ROH 9925  13.283  14.833   6.195  0.3290  0.1384  0.0280
  652ERGO    R1 9926  13.468  14.761   6.396  0.3249 -0.0419 -0.0307
  652ERGO    R2 9927  13.394  14.626   6.626  0.2598  0.0568  0.0074
  652ERGO    R3 9928  13.588  14.453   6.547  0.0491 -0.1590 -0.0465
  652ERGO    R4 9929  13.534  14.381   6.826  0.3792  0.2133  0.1190
  652ERGO    R5 9930  13.728  14.428   6.740  0.2954 -0.0084 -0.2027
  652ERGO    C1 9931  13.797  14.076   6.868  0.2510  0.1018  0.1334
  652ERGO    C2 9932  13.990  13.895   7.071 -0.0497  0.0229  0.4274
  653ERGO   ROH 9933   0.075   7.217   8.925 -0.2662 -0.0170  0.0454
  653ERGO    R1 9934   0.079   7.117   8.660 -0.0998 -0.0914  0.0743
  653ERGO    R2 9935  -0.148   7.101   8.504 -0.0126 -0.1907 -0.0438
  653ERGO    R3 9936   0.001   7.245   8.328  0.0464 -0.2046 -0.0049
  653ERGO    R4 9937  -0.188   7.095   8.160 -0.1869  0.1037 -0.0326
  653ERGO    R5 9938   0.030   7.098   8.141 -0.1890 -0.0969 -0.1311
  653ERGO    C1 9939  -0.070   7.226   7.795 -0.2327  0.2621  0.0105
  653ERGO    C2 9940  -0.241   7.297   7.463 -0.1174  0.1368  0.0121
  654ERGO   ROH 9941  14.416   8.045   9.271  0.0204 -0.2499  0.0516
  654ERGO    R1 9942  14.367   7.962   9.005  0.0810 -0.0943 -0.0080
  654ERGO    R2 9943  14.147   8.047   8.861  0.1158 -0.0160 -0.0018
  654ERGO    R3 9944  14.336   8.121   8.680  0.1492  0.0939  0.0742
  654ERGO    R4 9945  14.081   8.147   8.537  0.1799 -0.0536 -0.0284
  654ERGO    R5 9946  14.256   8.034   8.471  0.2773  0.0433  0.0395
  654ERGO    C1 9947  14.220   8.275   8.178  0.2486  0.0277  0.0276
  654ERGO    C2 9948  14.318   8.450   7.880 -0.0941  0.1547 -0.0356
  655ERGO   ROH 9949  15.041  13.633   5.468  0.0993 -0.2814 -0.0366
  655ERGO    R1 9950  15.208  13.711   5.683 -0.0299 -0.1850  0.0299
  655ERGO    R2 9951  15.142  13.665   5.948 -0.0651 -0.3087  0.0002
  655ERGO    R3 9952  15.385  13.545   5.954  0.0417 -0.0950  0.0388
  655ERGO    R4 9953  15.300  13.555   6.235 -0.0165 -0.1776  0.0244
  655ERGO    R5 9954  15.488  13.629   6.153 -0.0665 -0.0092  0.0591
  655ERGO    C1 9955  15.621  13.378   6.408  0.1120  0.0995  0.0746
  655ERGO    C2 9956  15.761  13.077   6.558  0.0187  0.0276  0.2792
  656ERGO   ROH 9957  12.137   0.967   9.090 -0.0483  0.0499  0.0783
  656ERGO    R1 9958  12.236   1.119   8.873  0.2534 -0.0577  0.1364
  656ERGO    R2 9959  12.496   1.095   8.783  0.2414 -0.4770  0.1797
  656ERGO    R3 9960  12.375   1.049   8.544  0.2004 -0.2106  0.1467
  656ERGO    R4 9961  12.655   1.104   8.476  0.2141 -0.2874  0.1702
  656ERGO    R5 9962  12.479   1.204   8.394  0.2584 -0.1322  0.2709
  656ERGO    C1 9963  12.633   1.066   8.073  0.1598  0.0731  0.1337
  656ERGO    C2 9964  12.777   1.044   7.741 -0.3580 -0.2970 -0.2430
  657ERGO   ROH 9965   0.331   9.803   8.857 -0.1688  0.1095  0.0847
  657ERGO    R1 9966   0.414  10.012   8.686 -0.0301  0.0442  0.0696
  657ERGO    R2 9967   0.576   9.969   8.465 -0.0098 -0.0700  0.1001
  657ERGO    R3 9968   0.375  10.097   8.334  0.0745  0.0120  0.0519
  657ERGO    R4 9969   0.568  10.028   8.125  0.0026 -0.2185  0.0738
  657ERGO    R5 9970   0.486  10.226   8.166  0.1483 -0.1458 -0.0151
  657ERGO    C1 9971   0.375  10.183   7.803  0.0889 -0.2280  0.0133
  657ERGO    C2 9972   0.419  10.189   7.406  0.0508 -0.0931  0.1288
  658ERGO   ROH 9973  14.586   6.897   9.397  0.0271  0.3979 -0.1043
  658ERGO    R1 9974  14.614   6.850   9.120  0.0471  0.2812 -0.0829
  658ERGO    R2 9975  14.429   6.707   8.973  0.0737  0.1939 -0.0298
  658ERGO    R3 9976  14.428   6.930   8.817  0.0523  0.1262 -0.1285
  658ERGO    R4 9977  14.386   6.709   8.630  0.2270  0.0223 -0.0520
  658ERGO    R5 9978  14.539   6.863   8.616  0.1718  0.0803 -0.0497
  658ERGO    C1 9979  14.360   6.920   8.284  0.2963 -0.1413 -0.1573
  658ERGO    C2 9980  14.294   6.853   8.016  0.0881  0.3033  0.2676
  659ERGO   ROH 9981  15.589   7.774   9.181  0.2641 -0.2297 -0.1081
  659ERGO    R1 9982  15.409   7.822   8.968  0.2275 -0.1715 -0.0654
  659ERGO    R2 9983  15.357   8.074   8.871  0.1126 -0.1269  0.0956
  659ERGO    R3 9984  15.425   7.962   8.632  0.1462  0.0482  0.0220
  659ERGO    R4 9985  15.285   8.211   8.561 -0.2594 -0.1368  0.1737
  659ERGO    R5 9986  15.238   8.010   8.489 -0.0031 -0.1822  0.1400
  659ERGO    C1 9987  15.307   8.185   8.158 -0.4445  0.0216  0.1502
  659ERGO    C2 9988  15.270   8.229   7.884 -0.0185  0.0038  0.2694
  660ERGO   ROH 9989   1.486   0.551   5.682 -0.4071 -0.3116 -0.0353
  660ERGO    R1 9990   1.397   0.595   5.947  0.1251 -0.3070  0.1540
  660ERGO    R2 9991   1.571   0.650   6.155  0.5253  0.2161 -0.2805
  660ERGO    R3 9992   1.411   0.866   6.190  0.1382 -0.0908 -0.0883
  660ERGO    R4 9993   1.542   0.829   6.449  0.4869  0.1427 -0.2401
  660ERGO    R5 9994   1.328   0.843   6.413  0.4185 -0.2673 -0.0041
  660ERGO    C1 9995   1.375   1.136   6.653  0.1012 -0.1882 -0.0363
  660ERGO    C2 9996   1.266   1.260   6.981 -0.1827  0.3007 -0.1132
  661ERGO   ROH 9997  19.132   0.929   5.700 -0.0479  0.0040  0.0334
  661ERGO    R1 9998  19.185   0.968   5.975 -0.0409 -0.1798  0.0594
  661ERGO    R2 9999  19.195   1.219   6.090  0.3420 -0.2324  0.1502
  661ERGO    R310000  19.010   1.114   6.260  0.1303  0.0039  0.0736
  661ERGO    R410001  19.115   1.347   6.402  0.6182 -0.3054  0.2539
  661ERGO    R510002  19.105   1.143   6.477  0.2100 -0.3550  0.0956
  661ERGO    C110003  18.896   1.322   6.742  0.5805 -0.1261  0.2425
  661ERGO    C210004  18.905   1.534   7.037  0.1444  0.0603  0.3797
  662ERGO   ROH10005  19.046   6.754   5.673  0.0012  0.0495 -0.0401
  662ERGO    R110006  19.030   6.726   5.954 -0.0673  0.0621 -0.0437
  662ERGO    R210007  19.147   6.515   6.089  0.0367  0.1596  0.0063
  662ERGO    R310008  19.264   6.714   6.232 -0.1480  0.2507  0.0365
  662ERGO    R410009  19.286   6.477   6.403  0.2623  0.1760 -0.0887
  662ERGO    R510010  19.201   6.669   6.459  0.0298  0.0450  0.0549
  662ERGO    C110011  19.477   6.641   6.721  0.2203  0.2711 -0.1156
  662ERGO    C210012  19.670   6.815   7.047 -0.1040  0.0508  0.0187
  663ERGO   ROH10013  13.179   6.918   6.146  0.0667 -0.4011  0.1452
  663ERGO    R110014  13.085   6.938   6.412  0.0494  0.0833  0.1115
  663ERGO    R210015  12.976   7.171   6.515 -0.2246  0.1993 -0.4051
  663ERGO    R310016  12.767   7.008   6.576 -0.0324  0.0773 -0.0444
  663ERGO    R410017  12.747   7.228   6.768 -0.1489  0.3491 -0.3685
  663ERGO    R510018  12.753   7.016   6.815  0.0872  0.4232 -0.0455
  663ERGO    C110019  12.418   7.108   6.972  0.0756  0.3219 -0.0087
  663ERGO    C210020  12.105   6.991   6.999  0.5102  0.2737  0.1650
  664ERGO   ROH10021   5.141   8.994   6.215 -0.0938 -0.2514 -0.0236
  664ERGO    R110022   5.280   8.866   6.426 -0.0175 -0.1333 -0.0012
  664ERGO    R210023   5.217   8.908   6.692 -0.0811 -0.1687 -0.0111
  664ERGO    R310024   5.196   8.637   6.696  0.1302 -0.1864  0.0007
  664ERGO    R410025   5.095   8.723   6.957  0.0372 -0.2511 -0.0135
  664ERGO    R510026   5.251   8.576   6.920  0.1564 -0.1316  0.0095
  664ERGO    C110027   5.004   8.360   7.114  0.3045 -0.3158 -0.0038
  664ERGO    C210028   4.705   8.230   7.374  0.1402  0.1520 -0.0493
  665ERGO   ROH10029   1.047   9.071   8.935  0.0771  0.0205 -0.1373
  665ERGO    R110030   1.034   9.033   8.655  0.0925  0.0111 -0.1360
  665ERGO    R210031   0.798   9.051   8.513  0.1083  0.0399 -0.1522
  665ERGO    R310032   0.938   9.232   8.366  0.1439  0.0126 -0.1534
  665ERGO    R410033   0.730   9.132   8.184  0.0990  0.0722 -0.1429
  665ERGO    R510034   0.945   9.137   8.146  0.1005  0.0188 -0.1602
  665ERGO    C110035   0.822   9.350   7.854  0.1272  0.0654 -0.1387
  665ERGO    C210036   0.724   9.396   7.579 -0.0680  0.0458 -0.2140
  666ERGO   ROH10037   9.555  15.268   6.702 -0.3314 -0.1329 -0.0370
  666ERGO    R110038   9.563  15.418   6.942 -0.1223  0.0137 -0.1332
  666ERGO    R210039   9.388  15.374   7.151 -0.0363  0.2402 -0.0128
  666ERGO    R310040   9.617  15.350   7.295  0.0262  0.2071 -0.1159
  666ERGO    R410041   9.402  15.272   7.480  0.0969  0.1818 -0.0361
  666ERGO    R510042   9.555  15.423   7.515  0.1195  0.1724 -0.0756
  666ERGO    C110043   9.625  15.188   7.808  0.2332  0.1165 -0.1464
  666ERGO    C210044   9.465  14.927   7.976  0.2425  0.1902 -0.0957
  667ERGO   ROH10045  13.346  17.566   5.590  0.2267 -0.0738 -0.0058
  667ERGO    R110046  13.200  17.454   5.805  0.2145  0.0605  0.0563
  667ERGO    R210047  13.047  17.225   5.778  0.0285  0.1768  0.1320
  667ERGO    R310048  13.198  17.138   5.987  0.0331  0.0789  0.0896
  667ERGO    R410049  12.953  16.979   6.001  0.1606 -0.1546 -0.1676
  667ERGO    R510050  13.039  17.098   6.162  0.0037 -0.2502 -0.0047
  667ERGO    C110051  13.039  16.754   6.327  0.2418 -0.4397 -0.3818
  667ERGO    C210052  13.008  16.391   6.295  0.1777  0.1457  0.0480
  668ERGO   ROH10053  13.063  13.600   8.862  0.0647 -0.0013  0.1633
  668ERGO    R110054  13.036  13.636   8.583  0.0216  0.0588  0.1761
  668ERGO    R210055  13.180  13.488   8.399  0.2173  0.3099  0.1314
  668ERGO    R310056  12.934  13.433   8.298  0.2896  0.0206  0.1029
  668ERGO    R410057  13.113  13.435   8.065  0.3249  0.2376  0.1201
  668ERGO    R510058  12.929  13.550   8.089  0.1796  0.0243  0.1026
  668ERGO    C110059  12.844  13.352   7.775  0.4555 -0.0761  0.0865
  668ERGO    C210060  12.893  13.078   7.573 -0.3216  0.0565 -0.0654
  669ERGO   ROH10061   0.613   2.999   9.259  0.2541  0.3476 -0.1333
  669ERGO    R110062   0.561   2.871   9.011  0.2914  0.2288 -0.0803
  669ERGO    R210063   0.330   2.916   8.866  0.1926 -0.0389 -0.0107
  669ERGO    R310064   0.506   2.974   8.667  0.0645  0.0826 -0.0903
  669ERGO    R410065   0.267   2.877   8.528  0.0884 -0.1423  0.0200
  669ERGO    R510066   0.470   2.803   8.504  0.1438  0.0266 -0.0503
  669ERGO    C110067   0.395   2.909   8.145 -0.0925 -0.0885 -0.0369
  669ERGO    C210068   0.338   2.975   7.804  0.1200 -0.0615 -0.2288
  670ERGO   ROH10069   8.756  11.722   6.086 -0.0726 -0.1882  0.1495
  670ERGO    R110070   8.909  11.935   6.193 -0.1084 -0.1041  0.0346
  670ERGO    R210071   8.816  12.097   6.397 -0.0620 -0.1284  0.0745
  670ERGO    R310072   9.048  12.024   6.517  0.0482 -0.0045 -0.0586
  670ERGO    R410073   8.954  12.254   6.672 -0.0123 -0.0838  0.0246
  670ERGO    R510074   9.150  12.231   6.581 -0.0448  0.0496 -0.0834
  670ERGO    C110075   9.252  12.277   6.946  0.1201  0.0585 -0.1293
  670ERGO    C210076   9.276  12.247   7.334 -0.1213  0.2701 -0.0112
  671ERGO   ROH10077  12.209   1.528   5.825  0.0722 -0.2326  0.0502
  671ERGO    R110078  12.407   1.532   6.027  0.0905 -0.1739  0.0307
  671ERGO    R210079  12.441   1.746   6.199  0.1058 -0.1253 -0.0360
  671ERGO    R310080  12.414   1.554   6.390  0.1255 -0.0690  0.0244
  671ERGO    R410081  12.609   1.742   6.501 -0.0084  0.0717  0.0322
  671ERGO    R510082  12.634   1.527   6.479  0.1072  0.0733  0.1209
  671ERGO    C110083  12.681   1.561   6.856 -0.0564  0.2393  0.1287
  671ERGO    C210084  12.762   1.380   7.165 -0.0227 -0.0676 -0.1237
  672ERGO   ROH10085  16.695  19.059   6.178  0.0025 -0.0161 -0.1864
  672ERGO    R110086  16.750  18.861   6.373 -0.0607  0.0396 -0.1106
  672ERGO    R210087  16.880  18.918   6.611 -0.0197  0.0851 -0.1384
  672ERGO    R310088  16.660  18.801   6.721 -0.0614  0.2165 -0.0810
  672ERGO    R410089  16.873  18.757   6.917 -0.0174 -0.0140 -0.1907
  672ERGO    R510090  16.744  18.605   6.829 -0.1704  0.1166 -0.1835
  672ERGO    C110091  16.662  18.554   7.198 -0.0550  0.0517 -0.1672
  672ERGO    C210092  16.557  18.449   7.551 -0.3198  0.1895  0.2033
  673ERGO   ROH10093  16.709  10.144   5.644  0.0529  0.1142 -0.0355
  673ERGO    R110094  16.765  10.049   5.905  0.1055 -0.2940 -0.1883
  673ERGO    R210095  16.605  10.110   6.123  0.4720 -0.1289  0.0344
  673ERGO    R310096  16.598   9.840   6.151 -0.1440 -0.1604 -0.2364
  673ERGO    R410097  16.443   9.942   6.378  0.7904  0.0668  0.3762
  673ERGO    R510098  16.611   9.804   6.387  0.4975 -0.4082 -0.2833
  673ERGO    C110099  16.343   9.590   6.553  0.3973  0.1510  0.3210
  673ERGO    C210100  16.293   9.306   6.706 -0.0803  0.0955 -0.0082
  674PSPI    C110101   4.981  10.507   5.185 -0.0149  0.0470  0.2220
  674PSPI    C210102   5.320  10.619   5.005 -0.2532 -0.0408 -0.3013
  674PSPI    C310103   5.213  10.234   5.007 -0.1213 -0.0838  0.2820
  674PSPI   PO410104   4.962  10.717   5.381  0.0637  0.2948 -0.1131
  674PSPI   GL110105   4.743  10.974   5.658 -0.2183  0.1130  0.0711
  674PSPI   GL210106   4.510  11.195   5.696 -0.3011  0.1711  0.2914
  674PSPI   C1A10107   4.942  10.689   6.022 -0.2841  0.0193 -0.2268
  674PSPI   C2A10108   5.115  10.911   6.483 -0.4973  0.3442  0.1907
  674PSPI   C3A10109   5.397  10.965   6.813 -0.0371  0.0751  0.0927
  674PSPI   C4A10110   5.638  11.051   7.117  0.2798 -0.0961 -0.1171
  674PSPI   C1B10111   4.557  11.219   6.133  0.1326  0.0714  0.0684
  674PSPI   C2B10112   4.594  11.195   6.485  0.0055 -0.2362 -0.0051
  674PSPI   C3B10113   4.454  11.206   6.849 -0.1243 -0.0825 -0.0093
  674PSPI   C4B10114   4.625  11.033   7.171  0.1575 -0.3493  0.1815
  675PSPI    C110115  13.798  17.295   4.864 -0.0775  0.0540  0.0499
  675PSPI    C210116  14.147  17.491   4.860 -0.0057 -0.0721  0.0780
  675PSPI    C310117  13.988  17.359   4.518 -0.1031  0.1203  0.0480
  675PSPI   PO410118  13.894  17.084   5.069  0.3651  0.4331  0.0555
  675PSPI   GL110119  14.167  16.924   5.472  0.1268  0.0728 -0.1460
  675PSPI   GL210120  14.405  16.670   5.492  0.0694  0.0160 -0.1851
  675PSPI   C1A10121  14.538  17.055   5.778  0.0706  0.0276  0.0091
  675PSPI   C2A10122  14.874  16.709   5.964 -0.0042 -0.1478 -0.1620
  675PSPI   C3A10123  14.993  16.580   6.296  0.0769 -0.0046  0.0157
  675PSPI   C4A10124  14.648  16.695   6.568  0.1480 -0.0364  0.0627
  675PSPI   C1B10125  14.275  16.577   5.857  0.0863 -0.2050  0.0486
  675PSPI   C2B10126  14.364  16.777   6.159 -0.1351 -0.0203 -0.3140
  675PSPI   C3B10127  14.105  16.881   6.583 -0.1793  0.0039 -0.1141
  675PSPI   C4B10128  13.834  17.083   6.856 -0.2139 -0.0483  0.0921
  676PSPI    C110129  18.270   6.829   5.067 -0.0756 -0.1587  0.1408
  676PSPI    C210130  18.384   6.735   4.695  0.0021  0.0738  0.1045
  676PSPI    C310131  17.996   6.778   4.780 -0.0081  0.1608  0.0158
  676PSPI   PO410132  18.379   7.044   5.170 -0.4664 -0.0833  0.1969
  676PSPI   GL110133  18.616   7.103   5.418  0.0298 -0.1853 -0.1738
  676PSPI   GL210134  18.284   7.315   5.536 -0.0774 -0.1602  0.0842
  676PSPI   C1A10135  18.661   7.109   5.839 -0.4065 -0.0806 -0.4548
  676PSPI   C2A10136  19.023   7.230   5.963 -0.2549 -0.0728 -0.2236
  676PSPI   C3A10137  19.385   7.187   6.165 -0.3382  0.2411  0.0218
  676PSPI   C4A10138  19.648   7.472   6.409  0.3734 -0.3602 -0.1344
  676PSPI   C1B10139  18.345   7.500   6.007  0.2436 -0.1720 -0.0171
  676PSPI   C2B10140  18.626   7.594   6.337 -0.0375 -0.0060 -0.0945
  676PSPI   C3B10141  18.600   7.648   6.747  0.0128 -0.1053  0.0421
  676PSPI   C4B10142  18.534   7.915   7.026 -0.0914  0.1112  0.2108
  677PSPI    C110143  11.943  10.665   5.230 -0.0155  0.1386  0.0868
  677PSPI    C210144  11.560  10.779   5.217  0.0239  0.3021  0.3002
  677PSPI    C310145  11.771  10.751   4.879 -0.1424  0.3264  0.1928
  677PSPI   PO410146  11.995  10.745   5.421  0.0235 -0.3498  0.0586
  677PSPI   GL110147  12.373  10.789   5.722 -0.0610  0.1506 -0.0116
  677PSPI   GL210148  12.413  11.082   5.713 -0.3086 -0.4342 -0.3076
  677PSPI   C1A10149  12.105  10.885   6.076  0.0829  0.1853 -0.0691
  677PSPI   C2A10150  12.164  10.923   6.513 -0.4207 -0.1538 -0.0367
  677PSPI   C3A10151  12.131  11.203   6.796 -0.1517  0.1173  0.3959
  677PSPI   C4A10152  11.967  11.442   7.099 -0.2435  0.1478  0.2661
  677PSPI   C1B10153  12.585  10.906   6.157  0.3582  0.0086 -0.0746
  677PSPI   C2B10154  12.671  10.634   6.466  0.0355 -0.1870 -0.3907
  677PSPI   C3B10155  13.129  10.631   6.633  0.0694  0.1156 -0.0101
  677PSPI   C4B10156  13.330  10.299   6.787 -0.0865  0.0706  0.1551
  678PSPI    C110157   0.861   3.520   5.217  0.2291  0.1704 -0.0839
  678PSPI    C210158   1.136   3.428   4.942 -0.0185  0.0509 -0.2963
  678PSPI    C310159   0.875   3.723   4.873 -0.0365  0.0685 -0.1573
  678PSPI   PO410160   0.688   3.255   5.352 -0.1357 -0.0820  0.2311
  678PSPI   GL110161   0.611   2.900   5.646 -0.0055  0.1331 -0.3844
  678PSPI   GL210162   0.976   3.053   5.683  0.5630 -0.2806 -0.2123
  678PSPI   C1A10163   0.515   2.712   6.066  0.1568 -0.2214  0.2332
  678PSPI   C2A10164   0.522   2.803   6.517  0.0983 -0.1172 -0.0247
  678PSPI   C3A10165   0.319   2.855   6.939 -0.0037 -0.1024  0.0337
  678PSPI   C4A10166   0.142   2.899   7.409 -0.1267 -0.0118 -0.1799
  678PSPI   C1B10167   0.807   3.184   6.149  0.2315 -0.0147  0.1418
  678PSPI   C2B10168   0.798   3.194   6.683 -0.1160  0.2145 -0.0702
  678PSPI   C3B10169   0.709   3.166   7.142  0.0611 -0.1157  0.1644
  678PSPI   C4B10170   0.694   2.970   7.494  0.2186 -0.3532  0.0315
  679PSPI    C110171  15.743  14.008   4.494 -0.0656  0.0659 -0.1888
  679PSPI    C210172  15.480  13.707   4.502 -0.1685  0.1559 -0.1745
  679PSPI    C310173  15.865  13.633   4.421 -0.1544 -0.0075  0.0333
  679PSPI   PO410174  15.717  14.188   4.759  0.2698 -0.0045 -0.3540
  679PSPI   GL110175  15.839  14.437   5.145  0.3034 -0.2321  0.3968
  679PSPI   GL210176  15.877  14.109   5.240 -0.0168 -0.1425  0.2113
  679PSPI   C1A10177  15.933  14.453   5.642 -0.0505  0.0382  0.0730
  679PSPI   C2A10178  15.651  14.491   5.962  0.1723  0.0573  0.0275
  679PSPI   C3A10179  15.368  14.665   6.234 -0.4563 -0.3600 -0.0837
  679PSPI   C4A10180  15.039  14.518   6.421  0.1731 -0.0328  0.1465
  679PSPI   C1B10181  15.870  13.982   5.735 -0.1053 -0.1194 -0.0247
  679PSPI   C2B10182  15.832  14.037   6.091 -0.0202  0.0312 -0.0414
  679PSPI   C3B10183  15.765  14.354   6.383 -0.1244  0.2380  0.0584
  679PSPI   C4B10184  15.669  14.553   6.795 -0.0543  0.0140  0.0008
  680PSPI    C110185  16.036  16.845   5.403  0.1857  0.0184 -0.3973
  680PSPI    C210186  15.829  17.133   5.218 -0.1899 -0.0346 -0.0712
  680PSPI    C310187  15.813  16.757   5.083 -0.0805  0.0108 -0.2127
  680PSPI   PO410188  16.263  16.989   5.489 -0.3197  0.1682 -0.1614
  680PSPI   GL110189  16.477  17.226   5.822  0.1376 -0.3056  0.0516
  680PSPI   GL210190  16.831  17.155   5.776  0.0797  0.1353  0.3164
  680PSPI   C1A10191  16.628  17.526   6.194 -0.0506 -0.0686 -0.2935
  680PSPI   C2A10192  16.534  17.779   6.585  0.0644 -0.0782  0.1233
  680PSPI   C3A10193  16.597  17.650   6.939  0.0282  0.1290 -0.2565
  680PSPI   C4A10194  16.298  17.606   7.245  0.1840 -0.0006  0.1650
  680PSPI   C1B10195  16.857  17.087   6.265  0.0867  0.1831  0.2226
  680PSPI   C2B10196  16.677  17.146   6.650 -0.1143  0.1110  0.1237
  680PSPI   C3B10197  16.284  16.884   6.672 -0.0780  0.4101  0.2369
  680PSPI   C4B10198  15.993  16.714   7.041  0.0170  0.0281 -0.4590
  681PSPI    C110199   9.520   5.830   5.506 -0.0544 -0.2018 -0.0373
  681PSPI    C210200   9.706   6.052   5.231  0.0437  0.0031  0.1904
  681PSPI    C310201   9.865   5.704   5.347  0.1481  0.0505  0.1909
  681PSPI   PO410202   9.428   5.969   5.671  0.4996 -0.0518 -0.0580
  681PSPI   GL110203   9.570   6.156   6.021  0.3435 -0.1482  0.2245
  681PSPI   GL210204   9.799   5.941   6.193  0.2203  0.2993  0.1043
  681PSPI   C1A10205   9.412   6.221   6.365 -0.2381 -0.1484  0.1304
  681PSPI   C2A10206   9.431   6.419   6.733 -0.0293 -0.3873  0.1129
  681PSPI   C3A10207   9.606   6.560   7.049 -0.0251  0.1628  0.0471
  681PSPI   C4A10208   9.516   6.660   7.388 -0.1962 -0.1082 -0.0343
  681PSPI   C1B10209   9.716   5.931   6.642  0.0308  0.0166 -0.2283
  681PSPI   C2B10210   9.817   6.116   7.010 -0.1036 -0.0356 -0.2896
  681PSPI   C3B10211   9.961   6.385   7.304 -0.2121 -0.0319  0.2394
  681PSPI   C4B10212   9.948   6.406   7.662 -0.2257  0.2553  0.0569
  682PSPI    C110213  15.660   3.648   4.851 -0.1380 -0.1611  0.0157
  682PSPI    C210214  16.016   3.589   4.678 -0.1224 -0.2921  0.0905
  682PSPI    C310215  15.688   3.421   4.522 -0.1057 -0.4257  0.1978
  682PSPI   PO410216  15.735   3.604   5.182  0.2257 -0.1165  0.1620
  682PSPI   GL110217  15.693   3.467   5.491  0.0241 -0.1365 -0.2256
  682PSPI   GL210218  15.646   3.948   5.561 -0.0065  0.1051 -0.0508
  682PSPI   C1A10219  15.681   3.497   5.912  0.1363  0.0697 -0.2579
  682PSPI   C2A10220  15.623   3.382   6.339 -0.0846 -0.1515  0.1594
  682PSPI   C3A10221  15.614   3.550   6.753 -0.0856 -0.0256  0.0891
  682PSPI   C4A10222  15.393   3.844   6.995  0.0994  0.1845  0.3637
  682PSPI   C1B10223  15.838   4.090   5.941 -0.2901  0.0986 -0.1539
  682PSPI   C2B10224  15.981   3.874   6.252 -0.1119  0.0263  0.0725
  682PSPI   C3B10225  16.046   3.568   6.534 -0.3053 -0.1518 -0.3251
  682PSPI   C4B10226  16.315   3.464   6.827 -0.1582  0.1255  0.3876
  683PSPI    C110227   4.673   3.291   5.339  0.0565  0.4098  0.1664
  683PSPI    C210228   4.535   2.969   5.531  0.1069  0.1336 -0.2470
  683PSPI    C310229   4.281   3.253   5.408  0.0811  0.3464  0.2726
  683PSPI   PO410230   5.020   3.298   5.446  0.0630 -0.0846  0.1033
  683PSPI   GL110231   5.102   3.409   5.858  0.4178 -0.0055 -0.0253
  683PSPI   GL210232   4.717   3.424   5.865 -0.1100 -0.5252 -0.4003
  683PSPI   C1A10233   5.389   3.108   6.097 -0.0665 -0.0423 -0.2703
  683PSPI   C2A10234   5.360   2.685   6.210  0.3253 -0.0299 -0.0604
  683PSPI   C3A10235   4.946   2.600   6.444  0.1076  0.1888 -0.0380
  683PSPI   C4A10236   4.836   2.820   6.830 -0.1176 -0.1767  0.3611
  683PSPI   C1B10237   4.342   3.179   5.915  0.5657  0.0543  0.0638
  683PSPI   C2B10238   3.892   3.119   6.110  0.1894  0.0709 -0.3419
  683PSPI   C3B10239   3.498   2.966   6.186  0.1370 -0.1867 -0.1312
  683PSPI   C4B10240   3.326   2.631   6.360  0.0982 -0.0687 -0.0675
  684PSPI    C110241   3.783  12.864   5.698  0.1451  0.1634 -0.0665
  684PSPI    C210242   3.574  12.811   5.361  0.0047 -0.0525  0.0520
  684PSPI    C310243   3.710  13.175   5.457 -0.0892  0.0399 -0.1583
  684PSPI   PO410244   4.032  12.626   5.651 -0.1430  0.2590  0.2660
  684PSPI   GL110245   3.776  12.250   5.661  0.2684 -0.2841  0.2735
  684PSPI   GL210246   3.503  12.503   5.749  0.2383  0.0483 -0.0055
  684PSPI   C1A10247   3.606  12.095   6.056  0.0699  0.1032  0.1698
  684PSPI   C2A10248   3.561  12.281   6.424  0.0309 -0.1524  0.0819
  684PSPI   C3A10249   3.252  12.279   6.825 -0.0367 -0.0470  0.0947
  684PSPI   C4A10250   2.921  12.212   7.124  0.1814 -0.3979  0.2589
  684PSPI   C1B10251   3.597  12.780   6.202 -0.0260  0.0368 -0.1488
  684PSPI   C2B10252   3.504  13.075   6.568 -0.0858 -0.3443  0.1951
  684PSPI   C3B10253   3.282  13.068   6.897 -0.4415  0.2121 -0.2801
  684PSPI   C4B10254   3.249  12.999   7.415 -0.1406 -0.3106  0.2271
  685PSPI    C110255  10.095   6.506   5.435  0.0639 -0.0241 -0.1475
  685PSPI    C210256  10.488   6.568   5.396  0.0656 -0.0059 -0.1039
  685PSPI    C310257  10.235   6.704   5.118  0.0788  0.1000 -0.0644
  685PSPI   PO410258  10.091   6.538   5.677  0.0033 -0.1486 -0.0329
  685PSPI   GL110259  10.010   6.527   6.019  0.0540 -0.0008  0.2191
  685PSPI   GL210260   9.761   6.597   6.341  0.1587 -0.0746 -0.0249
  685PSPI   C1A10261  10.268   6.613   6.437  0.0212  0.2706  0.2221
  685PSPI   C2A10262  10.068   6.595   6.824  0.0550 -0.0608  0.3728
  685PSPI   C3A10263  10.097   6.834   7.283 -0.2456 -0.0264  0.1650
  685PSPI   C4A10264  10.227   6.852   7.660 -0.1282  0.0910  0.0590
  685PSPI   C1B10265   9.802   6.931   6.628 -0.2768  0.0437 -0.1794
  685PSPI   C2B10266   9.725   7.047   7.030  0.0335 -0.0552  0.1762
  685PSPI   C3B10267   9.869   7.193   7.499 -0.1976  0.0634 -0.1421
  685PSPI   C4B10268   9.735   6.906   7.860 -0.0980  0.2004  0.4683
  686PSPI    C110269  17.145   4.940   5.227  0.2913  0.1858  0.0043
  686PSPI    C210270  17.149   4.777   4.862 -0.1429  0.0596  0.0499
  686PSPI    C310271  17.294   4.573   5.173  0.3133  0.2041 -0.0605
  686PSPI   PO410272  16.929   4.996   5.297  0.0365 -0.1777 -0.0374
  686PSPI   GL110273  16.991   5.214   5.605 -0.1450  0.1219 -0.3268
  686PSPI   GL210274  17.324   5.221   5.659 -0.1156 -0.0618  0.1725
  686PSPI   C1A10275  16.887   5.055   6.003  0.0106  0.0230 -0.0448
  686PSPI   C2A10276  17.006   4.878   6.396 -0.1800  0.1265 -0.0062
  686PSPI   C3A10277  17.272   4.880   6.784 -0.1817 -0.1849  0.3698
  686PSPI   C4A10278  17.082   4.994   7.217 -0.0153 -0.1669 -0.3730
  686PSPI   C1B10279  17.226   5.327   6.125 -0.1331  0.0486 -0.0757
  686PSPI   C2B10280  17.125   5.366   6.503  0.3737  0.1532  0.1206
  686PSPI   C3B10281  16.845   5.377   6.799 -0.1257 -0.2266 -0.1871
  686PSPI   C4B10282  16.689   5.317   7.262 -0.1151 -0.0020  0.1036
  687PSPI    C110283   7.542  17.165   5.211  0.0056  0.2613 -0.0509
  687PSPI    C210284   7.829  17.235   4.942 -0.1253 -0.0832 -0.2874
  687PSPI    C310285   7.455  17.162   4.820 -0.2328 -0.0246  0.0004
  687PSPI   PO410286   7.637  17.205   5.518  0.0029  0.1027 -0.0605
  687PSPI   GL110287   7.522  17.220   6.019  0.2905  0.1740  0.5121
  687PSPI   GL210288   7.756  17.572   5.834 -0.1318  0.1447 -0.0549
  687PSPI   C1A10289   7.818  17.256   6.379  0.3041 -0.2646  0.2390
  687PSPI   C2A10290   7.955  17.382   6.735  0.0601  0.1151 -0.0078
  687PSPI   C3A10291   8.129  17.641   7.076  0.1757  0.0413 -0.2565
  687PSPI   C4A10292   8.383  17.816   7.314 -0.0756 -0.2322 -0.0647
  687PSPI   C1B10293   7.766  17.801   6.260 -0.0213 -0.2286 -0.1653
  687PSPI   C2B10294   7.415  17.976   6.503 -0.4473  0.2323  0.1673
  687PSPI   C3B10295   7.235  18.073   6.886  0.4660  0.2759  0.1657
  687PSPI   C4B10296   6.881  18.057   7.282  0.1637 -0.0595 -0.0444
  688PSPI    C110297   3.476   1.750   4.996  0.1355 -0.0647  0.0813
  688PSPI    C210298   3.393   1.528   4.675 -0.0824 -0.0029  0.0936
  688PSPI    C310299   3.757   1.688   4.718 -0.0920  0.1034 -0.1918
  688PSPI   PO410300   3.398   1.490   5.311 -0.1401  0.1350 -0.1344
  688PSPI   GL110301   3.476   1.400   5.693  0.1060 -0.0218 -0.0316
  688PSPI   GL210302   3.171   1.315   5.811 -0.1149  0.0233 -0.0478
  688PSPI   C1A10303   3.622   1.309   6.074 -0.0211  0.0346 -0.0424
  688PSPI   C2A10304   3.579   1.115   6.500 -0.1574  0.1844 -0.0996
  688PSPI   C3A10305   3.357   1.177   6.908 -0.5194  0.0259  0.0302
  688PSPI   C4A10306   2.945   1.037   7.037 -0.0813 -0.0360  0.2651
  688PSPI   C1B10307   3.257   0.972   6.205 -0.2070  0.2846  0.5122
  688PSPI   C2B10308   3.086   0.733   6.555  0.3615  0.0247  0.0637
  688PSPI   C3B10309   2.885   0.556   6.794 -0.1366 -0.1137 -0.0347
  688PSPI   C4B10310   2.778   0.586   7.274  0.1098  0.1389 -0.0848
  689PSPI    C110311  12.655  13.107   4.876 -0.0774 -0.0679  0.0845
  689PSPI    C210312  12.997  13.248   4.725 -0.1453 -0.1951 -0.1943
  689PSPI    C310313  12.651  13.316   4.536 -0.3326  0.2735  0.2909
  689PSPI   PO410314  12.679  13.046   5.109  0.1664  0.0860  0.1820
  689PSPI   GL110315  12.667  13.064   5.518 -0.3399  0.0862  0.0934
  689PSPI   GL210316  12.576  13.445   5.560 -0.1449  0.2415  0.0159
  689PSPI   C1A10317  12.906  12.706   5.704  0.0671  0.0682 -0.1016
  689PSPI   C2A10318  12.913  12.446   6.083  0.0586 -0.0874  0.2399
  689PSPI   C3A10319  12.657  12.324   6.377 -0.0221  0.0617 -0.4574
  689PSPI   C4A10320  12.556  12.103   6.774  0.2638 -0.0999 -0.0919
  689PSPI   C1B10321  12.646  13.481   5.914 -0.1375 -0.4679 -0.1159
  689PSPI   C2B10322  12.490  13.515   6.335 -0.2336 -0.2755 -0.0274
  689PSPI   C3B10323  12.649  13.511   6.692  0.0614  0.0322  0.0216
  689PSPI   C4B10324  12.928  13.271   6.908 -0.2456 -0.0669  0.0241
  690PSPI    C110325  11.272  15.216   5.491 -0.0516 -0.1178  0.0662
  690PSPI    C210326  11.143  15.122   5.124  0.0668  0.1322 -0.0420
  690PSPI    C310327  11.258  15.496   5.206 -0.0048  0.0899  0.2652
  690PSPI   PO410328  11.105  15.113   5.670  0.0054 -0.0661  0.1437
  690PSPI   GL110329  10.778  15.107   5.979 -0.3439  0.0909 -0.1700
  690PSPI   GL210330  10.472  15.322   6.138 -0.2778  0.0686  0.0572
  690PSPI   C1A10331  10.705  14.861   6.341  0.2346  0.2264 -0.1323
  690PSPI   C2A10332  10.522  14.606   6.783  0.0225 -0.2099 -0.1342
  690PSPI   C3A10333  10.475  14.305   7.062 -0.2482 -0.3386 -0.0424
  690PSPI   C4A10334  10.718  13.970   7.161 -0.4495  0.3702 -0.0836
  690PSPI   C1B10335  10.297  14.990   6.535 -0.3706 -0.1509 -0.1648
  690PSPI   C2B10336   9.987  14.914   6.924 -0.1782  0.0181  0.1105
  690PSPI   C3B10337   9.702  14.913   7.048 -0.1660  0.2556  0.0732
  690PSPI   C4B10338   9.335  14.816   7.253 -0.2356  0.0627 -0.0168
  691PSPI    C110339  14.587   0.157   5.211 -0.0480  0.0105  0.0114
  691PSPI    C210340  14.911  -0.003   5.041 -0.1981  0.0536 -0.3238
  691PSPI    C310341  14.621   0.150   4.812 -0.2270  0.4721 -0.0183
  691PSPI   PO410342  14.531  -0.005   5.436  0.0013 -0.0312  0.2040
  691PSPI   GL110343  14.460   0.118   5.905  0.1273  0.0743 -0.0518
  691PSPI   GL210344  14.172   0.188   5.942 -0.0170 -0.2876 -0.1286
  691PSPI   C1A10345  14.641   0.397   6.221 -0.0809  0.2407 -0.0436
  691PSPI   C2A10346  14.582   0.537   6.700 -0.1989  0.0897  0.1991
  691PSPI   C3A10347  14.490   0.437   7.145 -0.0757  0.1161  0.0389
  691PSPI   C4A10348  14.489   0.190   7.556  0.3345  0.2356  0.1460
  691PSPI   C1B10349  14.264   0.047   6.415 -0.0973 -0.0658 -0.1076
  691PSPI   C2B10350  14.478  -0.487   6.592 -0.1210  0.0822 -0.0424
  691PSPI   C3B10351  14.298  -0.782   6.926  0.0910  0.1782  0.0403
  691PSPI   C4B10352  14.266  -0.493   7.374  0.0592  0.1803  0.1409
  692PSPI    C110353  10.587  12.178   5.389  0.1360 -0.1539 -0.0625
  692PSPI    C210354  10.976  12.169   5.295  0.1250  0.1343 -0.1452
  692PSPI    C310355  10.701  12.089   5.016  0.1224 -0.0115 -0.1014
  692PSPI   PO410356  10.654  12.033   5.688  0.0285  0.0587 -0.0853
  692PSPI   GL110357  10.999  12.017   5.886  0.0258  0.4736 -0.1100
  692PSPI   GL210358  10.995  12.372   5.788 -0.0379  0.2135  0.3654
  692PSPI   C1A10359  11.113  12.074   6.225 -0.0825 -0.0907  0.1312
  692PSPI   C2A10360  11.235  11.836   6.717  0.1230 -0.0405 -0.4079
  692PSPI   C3A10361  11.328  11.843   7.102 -0.1182  0.3967  0.1435
  692PSPI   C4A10362  11.029  11.546   7.339  0.0834  0.2145  0.0372
  692PSPI   C1B10363  10.966  12.570   6.076  0.2730  0.1029  0.0870
  692PSPI   C2B10364  10.668  12.802   6.244  0.3611 -0.1157 -0.0616
  692PSPI   C3B10365  10.505  12.739   6.563  0.2620  0.3839  0.0012
  692PSPI   C4B10366  10.458  13.016   6.943  0.4095 -0.0219  0.2833
  693PSPI    C110367  16.827   3.640   5.443 -0.0234  0.0171 -0.1090
  693PSPI    C210368  17.097   3.544   5.163 -0.0849 -0.1237 -0.1203
  693PSPI    C310369  16.737   3.682   5.055 -0.0194  0.0604 -0.1053
  693PSPI   PO410370  17.012   3.775   5.598 -0.1629  0.2827  0.1676
  693PSPI   GL110371  17.278   3.615   5.898 -0.0068  0.0571  0.2120
  693PSPI   GL210372  17.569   3.742   5.890 -0.1569  0.0403 -0.1370
  693PSPI   C1A10373  16.963   3.453   6.149  0.0227  0.0657 -0.2502
  693PSPI   C2A10374  16.511   3.492   6.332 -0.1404  0.0393 -0.0119
  693PSPI   C3A10375  16.263   3.472   5.884 -0.1697  0.1212 -0.2279
  693PSPI   C4A10376  16.212   3.861   5.628  0.1271  0.1932  0.3514
  693PSPI   C1B10377  17.660   4.030   6.210 -0.2762 -0.3163 -0.0164
  693PSPI   C2B10378  17.566   4.021   6.639 -0.1941 -0.4007  0.1811
  693PSPI   C3B10379  17.630   4.434   6.854 -0.1363  0.1194 -0.0444
  693PSPI   C4B10380  17.701   4.521   7.194  0.0287 -0.0345 -0.0361
  694POPI    C110381   8.891  12.584   5.703 -0.0841 -0.1038  0.0525
  694POPI    C210382   8.937  12.319   5.407  0.0243  0.0754 -0.0934
  694POPI    C310383   8.949  12.711   5.328 -0.1115  0.1253  0.1243
  694POPI   PO410384   9.049  12.535   5.870 -0.5355 -0.2740  0.1388
  694POPI   GL110385   9.348  12.663   6.365  0.0108 -0.0796 -0.0116
  694POPI   GL210386   9.581  12.717   5.996 -0.0447  0.2030 -0.4332
  694POPI   C1A10387   9.387  12.697   6.741 -0.0694 -0.2751 -0.1011
  694POPI   D2A10388   9.640  12.713   7.102  0.2571 -0.0795 -0.2690
  694POPI   C3A10389   9.876  12.423   7.326 -0.1021 -0.1219 -0.1630
  694POPI   C4A10390  10.038  12.187   7.740 -0.0325  0.2535  0.0446
  694POPI   C1B10391   9.724  12.409   6.348  0.2389 -0.3147 -0.0030
  694POPI   C2B10392   9.699  12.235   6.662  0.0153  0.0675 -0.0665
  694POPI   C3B10393   9.712  12.049   7.067 -0.0438  0.2078  0.2707
  694POPI   C4B10394   9.982  11.754   7.397  0.0033 -0.0718 -0.2977
  695POPI    C110395  18.952   2.903   5.156  0.1643  0.0544  0.0408
  695POPI    C210396  18.687   2.908   4.856  0.0741  0.0807  0.1208
  695POPI    C310397  19.078   2.895   4.776  0.0648  0.4627 -0.0050
  695POPI   PO410398  18.884   3.099   5.275 -0.3314 -0.0521  0.2631
  695POPI   GL110399  19.030   3.338   5.687  0.0728 -0.0779  0.2109
  695POPI   GL210400  19.196   3.057   5.621 -0.0789 -0.1369  0.1698
  695POPI   C1A10401  18.945   3.359   6.050 -0.2856  0.1177 -0.2374
  695POPI   D2A10402  18.493   3.485   6.183  0.0475  0.1016 -0.1035
  695POPI   C3A10403  18.400   3.355   6.577 -0.0545 -0.0951  0.2485
  695POPI   C4A10404  18.371   3.520   6.904 -0.1039  0.0357 -0.1021
  695POPI   C1B10405  19.133   2.860   6.043 -0.2121 -0.0677  0.2217
  695POPI   C2B10406  18.924   2.428   6.178 -0.0741  0.2491  0.0865
  695POPI   C3B10407  19.014   1.949   6.203  0.2956  0.2555 -0.1344
  695POPI   C4B10408  19.111   1.774   6.589  0.0687  0.0397  0.0512
  696POPI    C110409  14.757   3.397   5.002 -0.1945 -0.1894  0.0747
  696POPI    C210410  14.793   3.288   5.385 -0.1402 -0.2941  0.0400
  696POPI    C310411  14.650   3.029   5.115 -0.1447 -0.2324 -0.0171
  696POPI   PO410412  14.717   3.738   5.115 -0.2769  0.1533 -0.1653
  696POPI   GL110413  14.618   3.779   5.561  0.0695  0.2562 -0.1370
  696POPI   GL210414  14.264   4.017   5.563 -0.1015  0.0189  0.0614
  696POPI   C1A10415  14.478   3.425   5.734 -0.1124 -0.0927 -0.1457
  696POPI   D2A10416  14.667   3.231   6.133  0.1684 -0.0349 -0.3311
  696POPI   C3A10417  14.849   3.379   6.564 -0.3052  0.2933  0.0242
  696POPI   C4A10418  15.174   3.672   6.597  0.0269 -0.0467 -0.1232
  696POPI   C1B10419  14.152   4.152   5.965  0.0986 -0.1302 -0.0813
  696POPI   C2B10420  14.185   4.009   6.380  0.1218 -0.0146  0.0149
  696POPI   C3B10421  14.352   4.103   6.849  0.0057 -0.1555 -0.3776
  696POPI   C4B10422  14.209   4.431   7.215 -0.0541 -0.1152  0.2274
  697POPI    C110423  12.617   8.842   5.060 -0.0018  0.1648  0.2799
  697POPI    C210424  12.613   9.201   4.884  0.0491 -0.0275 -0.1260
  697POPI    C310425  12.549   8.871   4.667  0.1599 -0.2783  0.2126
  697POPI   PO410426  12.761   8.874   5.247 -0.2813  0.1608 -0.1904
  697POPI   GL110427  12.721   8.837   5.691 -0.4102  0.2881 -0.0615
  697POPI   GL210428  12.959   9.087   5.664  0.0816 -0.0564  0.0020
  697POPI   C1A10429  12.745   8.802   6.108  0.3372  0.0904  0.2138
  697POPI   D2A10430  12.689   8.724   6.504  0.1184 -0.1464 -0.1885
  697POPI   C3A10431  12.397   8.738   6.795  0.1767  0.1519 -0.0136
  697POPI   C4A10432  12.006   8.894   6.955 -0.0394  0.1096  0.1067
  697POPI   C1B10433  12.851   9.324   6.111 -0.2378  0.0719  0.1531
  697POPI   C2B10434  12.943   9.343   6.456 -0.3303  0.0557 -0.2917
  697POPI   C3B10435  12.948   9.125   6.734 -0.2170 -0.0536  0.0828
  697POPI   C4B10436  13.227   8.942   7.114 -0.3371  0.0394  0.2488
  698POPI    C110437   6.942   4.336   5.345 -0.0161  0.2109 -0.1461
  698POPI    C210438   6.614   4.109   5.367  0.1066  0.0395 -0.0677
  698POPI    C310439   6.586   4.490   5.249 -0.1124  0.0100 -0.1142
  698POPI   PO410440   7.090   4.278   5.566  0.0789 -0.0474  0.0627
  698POPI   GL110441   7.442   4.208   5.802 -0.0718 -0.2860 -0.2262
  698POPI   GL210442   7.593   4.029   5.776  0.3010 -0.0235  0.0989
  698POPI   C1A10443   7.199   4.111   6.229  0.5160 -0.0841 -0.0279
  698POPI   D2A10444   6.813   4.050   6.276 -0.1439 -0.0266 -0.0787
  698POPI   C3A10445   6.590   3.879   6.635 -0.0201 -0.1776  0.1115
  698POPI   C4A10446   6.338   3.658   6.933  0.2036 -0.1020  0.1315
  698POPI   C1B10447   7.525   3.805   6.037  0.1281  0.1153 -0.0080
  698POPI   C2B10448   7.431   3.778   6.549 -0.4213 -0.2365 -0.3240
  698POPI   C3B10449   7.235   3.431   6.916 -0.2828  0.5024 -0.2385
  698POPI   C4B10450   7.118   3.042   6.809  0.0241 -0.1995 -0.1114
  699POPI    C110451   5.021  16.715   5.100  0.1014  0.0103  0.1299
  699POPI    C210452   4.634  16.676   5.008  0.1063 -0.1058  0.1569
  699POPI    C310453   4.808  17.035   4.991  0.0435 -0.0833 -0.0353
  699POPI   PO410454   4.999  16.506   5.391  0.1334 -0.1811 -0.0671
  699POPI   GL110455   4.986  16.450   5.883 -0.2695 -0.0668 -0.1772
  699POPI   GL210456   5.009  16.850   5.823 -0.1542 -0.0554  0.0191
  699POPI   C1A10457   4.809  16.344   6.205 -0.2386 -0.1461 -0.1109
  699POPI   D2A10458   4.514  16.489   6.629  0.0711  0.0018  0.2076
  699POPI   C3A10459   4.326  16.787   6.945  0.0949  0.0871  0.4761
  699POPI   C4A10460   4.304  17.129   7.021  0.1527 -0.5516  0.0936
  699POPI   C1B10461   5.056  16.793   6.237 -0.0726  0.1236 -0.0764
  699POPI   C2B10462   5.110  16.602   6.606 -0.1204  0.0732  0.2462
  699POPI   C3B10463   5.196  16.362   7.039 -0.2601 -0.0813  0.2732
  699POPI   C4B10464   5.349  16.215   7.457 -0.0006  0.1695 -0.1357
  700POPI    C110465   5.305   7.154   5.151  0.0007 -0.1295 -0.1654
  700POPI    C210466   4.928   7.191   5.282  0.0097 -0.3149 -0.0840
  700POPI    C310467   5.081   7.465   5.033 -0.1457 -0.1854 -0.0390
  700POPI   PO410468   5.421   6.951   5.358 -0.0072 -0.1151 -0.1865
  700POPI   GL110469   5.646   6.798   5.677  0.0051 -0.0401  0.0506
  700POPI   GL210470   5.847   6.627   5.519  0.2766 -0.4036 -0.0518
  700POPI   C1A10471   5.973   7.057   5.931  0.0584  0.0910  0.2961
  700POPI   D2A10472   6.081   7.410   6.226 -0.0126 -0.2942 -0.3526
  700POPI   C3A10473   5.900   7.398   6.586  0.0146  0.1426  0.2759
  700POPI   C4A10474   5.583   7.574   6.862 -0.2725 -0.0219  0.0533
  700POPI   C1B10475   6.078   6.555   5.927  0.2411  0.2081 -0.1452
  700POPI   C2B10476   6.028   6.453   6.370 -0.3199  0.0087 -0.1900
  700POPI   C3B10477   5.942   6.325   6.902  0.1043  0.0532 -0.0035
  700POPI   C4B10478   5.817   6.131   7.276 -0.1450 -0.2882  0.2012
  701POPI    C110479   9.617   9.364   5.896  0.1284  0.1823  0.0163
  701POPI    C210480   9.698   9.308   5.508  0.1307  0.1721  0.0182
  701POPI    C310481   9.602   9.673   5.642  0.2196  0.1934  0.0243
  701POPI   PO410482   9.607   9.148   6.019 -0.0690  0.1552  0.0312
  701POPI   GL110483   9.343   8.972   6.424 -0.2776 -0.3049  0.0654
  701POPI   GL210484   9.053   8.861   6.443 -0.0031  0.1791 -0.0311
  701POPI   C1A10485   9.456   9.181   6.823 -0.0739  0.2318 -0.0584
  701POPI   D2A10486   9.546   8.992   7.189 -0.0114 -0.2761  0.0042
  701POPI   C3A10487   9.443   8.959   7.689  0.0027 -0.2824  0.2057
  701POPI   C4A10488   9.349   8.880   8.145  0.2705 -0.1550  0.3001
  701POPI   C1B10489   9.089   8.783   6.923 -0.0612  0.4171 -0.3243
  701POPI   C2B10490   9.166   8.631   7.361 -0.0641  0.3528 -0.0733
  701POPI   C3B10491   8.886   8.689   7.757 -0.1458  0.1184 -0.0803
  701POPI   C4B10492   8.616   8.759   8.202 -0.2251  0.4029  0.1822
  702POPI    C110493   5.152   4.010   5.091 -0.1489  0.1357  0.1011
  702POPI    C210494   4.872   3.765   4.945 -0.0951 -0.0609  0.3216
  702POPI    C310495   4.765   4.106   5.123 -0.1796 -0.0091  0.1736
  702POPI   PO410496   5.273   3.856   5.347 -0.3428 -0.1781 -0.0793
  702POPI   GL110497   5.248   4.020   5.804 -0.0308 -0.0431 -0.0537
  702POPI   GL210498   4.845   4.005   5.879 -0.0294  0.0835  0.0206
  702POPI   C1A10499   5.258   4.259   6.176  0.1375  0.1274 -0.1463
  702POPI   D2A10500   5.086   4.690   6.337  0.0654  0.0888 -0.4231
  702POPI   C3A10501   5.017   4.686   6.748  0.2541  0.3164  0.2737
  702POPI   C4A10502   4.933   4.639   7.049 -0.1076  0.0803  0.2884
  702POPI   C1B10503   4.947   3.858   6.260 -0.0117  0.0238  0.1689
  702POPI   C2B10504   5.041   3.420   6.413  0.1188 -0.0418  0.1576
  702POPI   C3B10505   5.158   3.059   6.584 -0.0142  0.2513  0.1088
  702POPI   C4B10506   5.433   3.013   6.954 -0.1205 -0.0968  0.2536
  703POPI    C110507   2.687  16.429   5.325 -0.2271 -0.1178 -0.0209
  703POPI    C210508   2.838  16.798   5.360  0.1204 -0.2784  0.2297
  703POPI    C310509   2.485  16.742   5.182  0.2659  0.1274 -0.2049
  703POPI   PO410510   2.692  16.345   5.565  0.1186  0.0701  0.1136
  703POPI   GL110511   2.663  16.430   6.039  0.2524 -0.3592  0.1961
  703POPI   GL210512   2.910  16.145   6.031  0.1435 -0.2776  0.0941
  703POPI   C1A10513   2.955  16.555   6.310 -0.1203  0.0327  0.1168
  703POPI   D2A10514   2.979  16.899   6.507  0.0095  0.1823 -0.3202
  703POPI   C3A10515   3.356  16.847   6.717  0.3674 -0.1514 -0.1786
  703POPI   C4A10516   3.604  16.848   6.434  0.1709 -0.4221  0.3857
  703POPI   C1B10517   3.342  16.060   6.114 -0.0320  0.1619 -0.0678
  703POPI   C2B10518   3.619  15.935   6.453 -0.2639  0.1502 -0.3223
  703POPI   C3B10519   3.520  15.952   6.829  0.1657  0.1301  0.2734
  703POPI   C4B10520   3.673  15.943   7.249 -0.2175 -0.0871 -0.0707
  704POPI    C110521  13.304   9.839   5.074 -0.4072  0.1127 -0.1344
  704POPI    C210522  13.470  10.198   5.013  0.0454 -0.0748 -0.0518
  704POPI    C310523  13.089  10.171   5.131  0.0134  0.3767 -0.0331
  704POPI   PO410524  13.421   9.647   5.249  0.1960  0.2176  0.2011
  704POPI   GL110525  13.597   9.547   5.602 -0.0858 -0.0206 -0.0063
  704POPI   GL210526  13.441   9.173   5.552 -0.5073 -0.0510 -0.1495
  704POPI   C1A10527  13.639   9.539   6.019 -0.0358  0.2788 -0.0493
  704POPI   D2A10528  13.570   9.786   6.317  0.0309  0.3367 -0.1416
  704POPI   C3A10529  13.718  10.196   6.430  0.0291  0.0832  0.2138
  704POPI   C4A10530  13.914  10.539   6.734  0.3691  0.1760  0.0169
  704POPI   C1B10531  13.256   9.092   6.025  0.1720  0.1655 -0.0538
  704POPI   C2B10532  13.207   8.784   6.467 -0.2633  0.1396 -0.1227
  704POPI   C3B10533  12.996   8.568   6.870  0.2729  0.0095  0.2420
  704POPI   C4B10534  12.809   8.532   7.202 -0.1185 -0.0114 -0.0084
  705POPI    C110535   9.974  11.339   5.551  0.1232 -0.0702 -0.1058
  705POPI    C210536   9.997  11.729   5.465 -0.2833 -0.0119  0.0284
  705POPI    C310537   9.889  11.467   5.182 -0.1780 -0.0064 -0.0173
  705POPI   PO410538   9.878  11.409   5.862  0.1134  0.0883  0.0969
  705POPI   GL110539   9.858  11.765   6.160 -0.1680 -0.1227 -0.0015
  705POPI   GL210540   9.606  11.883   6.276 -0.2468 -0.1885 -0.0680
  705POPI   C1A10541   9.980  11.548   6.501  0.0200  0.1339 -0.1067
  705POPI   D2A10542  10.136  11.726   6.951 -0.0190 -0.1800  0.0620
  705POPI   C3A10543  10.233  12.080   7.078 -0.1406  0.0384 -0.0791
  705POPI   C4A10544  10.497  12.129   7.398  0.2549  0.1642 -0.1453
  705POPI   C1B10545   9.471  11.797   6.705 -0.1732 -0.0767  0.1873
  705POPI   C2B10546   9.047  11.786   7.035  0.0889 -0.0619 -0.0903
  705POPI   C3B10547   9.057  11.794   7.552  0.0217  0.1212 -0.1165
  705POPI   C4B10548   9.257  11.952   7.949  0.0194  0.2778  0.0163
  706POPI    C110549   5.708  12.499   5.556 -0.3809  0.1201 -0.1418
  706POPI    C210550   5.886  12.145   5.507 -0.0401  0.2277  0.2586
  706POPI    C310551   5.797  12.370   5.188  0.1395 -0.0228  0.0267
  706POPI   PO410552   5.678  12.391   5.873  0.3883  0.0589 -0.1524
  706POPI   GL110553   5.584  12.156   6.235 -0.0560 -0.1735 -0.0566
  706POPI   GL210554   5.544  11.893   6.299  0.2702  0.1968 -0.1448
  706POPI   C1A10555   5.504  12.227   6.785  0.0672 -0.1398 -0.2329
  706POPI   D2A10556   5.461  12.179   7.129 -0.0034 -0.3140  0.0033
  706POPI   C3A10557   5.619  11.885   7.334  0.1525 -0.0611  0.1648
  706POPI   C4A10558   5.635  11.461   7.506 -0.1316 -0.0308  0.5146
  706POPI   C1B10559   5.575  11.734   6.711 -0.2441 -0.1644 -0.0188
  706POPI   C2B10560   5.432  11.509   7.036  0.0215  0.1452 -0.2001
  706POPI   C3B10561   5.142  11.122   7.280  0.1378  0.0678 -0.2097
  706POPI   C4B10562   4.843  10.868   7.598 -0.2482  0.1064  0.1773
  707POPI    C110563   7.695  12.473   5.723  0.2192 -0.2561  0.1238
  707POPI    C210564   7.974  12.758   5.749  0.0787 -0.1128  0.0754
  707POPI    C310565   8.069  12.399   5.601  0.1784  0.0168 -0.1809
  707POPI   PO410566   7.579  12.368   5.979  0.1081 -0.2519 -0.1582
  707POPI   GL110567   7.345  12.315   6.368  0.2092 -0.1583  0.0046
  707POPI   GL210568   7.462  12.649   6.423  0.0130 -0.0113 -0.0268
  707POPI   C1A10569   7.492  12.213   6.792  0.1328  0.1240  0.1220
  707POPI   D2A10570   7.341  12.381   7.171 -0.2228 -0.3458  0.2258
  707POPI   C3A10571   7.326  12.160   7.547  0.1740  0.2558 -0.0611
  707POPI   C4A10572   7.316  12.314   8.006 -0.0710 -0.1877 -0.1522
  707POPI   C1B10573   7.524  12.732   6.820 -0.0674 -0.2152 -0.1425
  707POPI   C2B10574   7.673  12.769   7.203 -0.1832 -0.1205  0.1705
  707POPI   C3B10575   7.954  12.602   7.498 -0.0499 -0.2450 -0.0912
  707POPI   C4B10576   8.266  12.289   7.488  0.1737 -0.2681  0.0079
  708POPI    C110577  12.698   5.024   5.623 -0.0280  0.0959 -0.1483
  708POPI    C210578  12.394   5.272   5.542 -0.0380  0.0750 -0.1750
  708POPI    C310579  12.504   4.995   5.274  0.0884  0.1672 -0.2194
  708POPI   PO410580  12.791   5.141   5.826 -0.2281  0.0238 -0.1021
  708POPI   GL110581  13.099   5.143   6.067 -0.1804 -0.0518  0.3239
  708POPI   GL210582  12.946   5.116   6.332 -0.0987  0.1304 -0.0064
  708POPI   C1A10583  13.424   5.468   6.241  0.2486 -0.0437  0.2250
  708POPI   D2A10584  13.597   5.611   6.554  0.2164  0.0857 -0.1533
  708POPI   C3A10585  13.430   5.899   6.702  0.2219 -0.2858  0.0642
  708POPI   C4A10586  13.374   6.192   7.019  0.2603  0.0125  0.2618
  708POPI   C1B10587  13.311   5.140   6.621  0.2851  0.1179 -0.0538
  708POPI   C2B10588  13.516   5.286   6.981 -0.1024 -0.6300  0.1862
  708POPI   C3B10589  13.612   5.497   7.235  0.1308 -0.0203 -0.1030
  708POPI   C4B10590  13.774   5.687   7.542 -0.1985  0.1381 -0.0987
  709POPI    C110591  16.866   1.611   5.506  0.1007 -0.0099  0.1078
  709POPI    C210592  16.612   1.396   5.727  0.0613 -0.0202  0.0525
  709POPI    C310593  16.515   1.767   5.615  0.0833 -0.0132  0.0570
  709POPI   PO410594  17.161   1.576   5.535  0.0136  0.1891 -0.1130
  709POPI   GL110595  17.486   1.550   5.789 -0.2004 -0.0590  0.2228
  709POPI   GL210596  17.452   1.753   6.058 -0.1186  0.1137  0.3593
  709POPI   C1A10597  17.765   1.294   6.094 -0.0909  0.2632 -0.1216
  709POPI   D2A10598  17.698   1.289   6.524 -0.1988  0.1987 -0.0475
  709POPI   C3A10599  18.103   1.148   6.668 -0.0437  0.2486 -0.0707
  709POPI   C4A10600  18.296   1.359   6.838  0.0020 -0.0382  0.0035
  709POPI   C1B10601  17.820   1.776   6.251 -0.0806  0.0391  0.0525
  709POPI   C2B10602  18.130   1.597   6.463  0.2362 -0.3331 -0.1422
  709POPI   C3B10603  18.479   1.843   6.871  0.2260  0.1861 -0.2268
  709POPI   C4B10604  18.489   2.213   7.070 -0.3109 -0.2129  0.1572
  710POPI    C110605   4.382  14.621   5.313  0.1087 -0.2734  0.0767
  710POPI    C210606   4.195  14.950   5.182  0.1760 -0.3120 -0.1195
  710POPI    C310607   3.994  14.606   5.218  0.1326 -0.2765 -0.0222
  710POPI   PO410608   4.611  14.845   5.455 -0.1552  0.2352 -0.1443
  710POPI   GL110609   4.849  14.940   5.786  0.0148  0.1888 -0.2481
  710POPI   GL210610   4.611  15.115   5.827 -0.0180 -0.0127 -0.1389
  710POPI   C1A10611   4.985  15.022   6.169  0.1473  0.1352 -0.3506
  710POPI   D2A10612   5.043  15.427   6.348  0.0903 -0.0799 -0.0843
  710POPI   C3A10613   4.993  15.583   6.742 -0.0248 -0.0731 -0.0098
  710POPI   C4A10614   4.715  15.499   7.042 -0.1502  0.1425 -0.0684
  710POPI   C1B10615   4.712  15.498   6.002 -0.0537  0.1538 -0.1626
  710POPI   C2B10616   4.640  15.779   6.342 -0.1652  0.1577 -0.1643
  710POPI   C3B10617   4.374  15.645   6.731 -0.0713  0.0978  0.1118
  710POPI   C4B10618   4.282  15.313   6.894 -0.0179  0.0403  0.4470
  711POPI    C110619   8.780  15.209   5.580  0.0423  0.1907  0.2279
  711POPI    C210620   8.623  14.992   5.283  0.0476 -0.0711  0.4130
  711POPI    C310621   8.980  15.167   5.236 -0.1515  0.2666  0.1042
  711POPI   PO410622   8.566  15.335   5.686 -0.0004 -0.0192  0.0068
  711POPI   GL110623   8.212  15.381   5.894 -0.0675  0.2285  0.2063
  711POPI   GL210624   7.862  15.543   5.921 -0.3290  0.1036  0.0777
  711POPI   C1A10625   8.139  15.342   6.364  0.1738  0.3433  0.2302
  711POPI   D2A10626   8.263  15.706   6.633  0.0728 -0.0145 -0.4381
  711POPI   C3A10627   8.248  15.689   7.106  0.1699 -0.1190 -0.0293
  711POPI   C4A10628   8.582  15.803   7.432  0.4665 -0.1864 -0.0146
  711POPI   C1B10629   7.788  15.651   6.221 -0.0879 -0.1571 -0.1595
  711POPI   C2B10630   7.675  15.658   6.601  0.0245 -0.0451 -0.2707
  711POPI   C3B10631   7.237  15.681   6.803  0.1123 -0.1508 -0.0590
  711POPI   C4B10632   6.895  15.881   6.808 -0.2045  0.0823  0.0894
  712POPI    C110633   1.843  13.420   5.128 -0.0835  0.0927 -0.1101
  712POPI    C210634   2.064  13.175   4.903 -0.0989 -0.0935  0.0747
  712POPI    C310635   1.963  13.536   4.764  0.3611  0.0157  0.0067
  712POPI   PO410636   1.620  13.261   5.233  0.0922 -0.1136  0.0500
  712POPI   GL110637   1.620  13.319   5.623 -0.3765 -0.1744  0.0464
  712POPI   GL210638   1.912  13.457   5.638 -0.1383  0.2003  0.0591
  712POPI   C1A10639   1.387  13.201   5.963  0.0911  0.2980 -0.0011
  712POPI   D2A10640   0.897  13.242   6.016  0.0089 -0.1228 -0.2196
  712POPI   C3A10641   0.682  13.227   6.330  0.0309 -0.1059 -0.1601
  712POPI   C4A10642   0.358  12.992   6.634  0.2424 -0.2116 -0.0078
  712POPI   C1B10643   1.842  13.438   6.005 -0.0973  0.0290  0.4854
  712POPI   C2B10644   1.688  13.240   6.371 -0.0097 -0.3964 -0.0555
  712POPI   C3B10645   1.893  13.225   6.790 -0.0892  0.3845 -0.1294
  712POPI   C4B10646   1.898  13.572   7.047  0.1113  0.0412  0.3276
  713POPI    C110647   4.018  10.496   5.043 -0.3962  0.1511 -0.3393
  713POPI    C210648   3.964  10.163   4.827 -0.3675 -0.0854  0.0090
  713POPI    C310649   4.136  10.142   5.187 -0.3096  0.3183  0.0100
  713POPI   PO410650   3.807  10.653   5.009  0.1480  0.0391 -0.1724
  713POPI   GL110651   3.536  10.787   5.308 -0.1950  0.0402 -0.1532
  713POPI   GL210652   3.315  10.930   5.185 -0.1615  0.0766  0.1325
  713POPI   C1A10653   3.606  10.747   5.745 -0.0411 -0.0105  0.0263
  713POPI   D2A10654   3.849  10.682   6.016 -0.1297 -0.1885 -0.0551
  713POPI   C3A10655   4.101  10.215   6.182  0.1082 -0.1002 -0.3630
  713POPI   C4A10656   4.019   9.869   6.244  0.0932  0.0410 -0.2825
  713POPI   C1B10657   3.112  10.970   5.618  0.0117  0.0148 -0.0112
  713POPI   C2B10658   2.979  10.729   5.913 -0.0783 -0.1225 -0.0544
  713POPI   C3B10659   3.178  10.544   6.195 -0.2516  0.0374 -0.1510
  713POPI   C4B10660   3.271  10.465   6.612 -0.0177  0.2117 -0.1265
  714POPI    C110661  12.122  14.256   5.482 -0.0570  0.0078  0.1171
  714POPI    C210662  12.134  14.343   5.092  0.2774  0.0313  0.1295
  714POPI    C310663  12.035  13.974   5.212 -0.0540  0.0855  0.0347
  714POPI   PO410664  12.318  14.454   5.577  0.0189  0.0227 -0.1174
  714POPI   GL110665  12.530  14.528   5.954 -0.1053  0.0837 -0.0827
  714POPI   GL210666  12.764  14.615   5.698  0.4437  0.1383  0.0723
  714POPI   C1A10667  12.305  14.581   6.295 -0.1160 -0.2859  0.0658
  714POPI   D2A10668  12.093  14.407   6.653 -0.2642  0.1452  0.1933
  714POPI   C3A10669  12.069  14.018   6.927  0.1536  0.1150 -0.1505
  714POPI   C4A10670  12.227  13.769   7.279  0.0324 -0.0754  0.0689
  714POPI   C1B10671  12.779  14.869   6.126 -0.1523 -0.0031 -0.2119
  714POPI   C2B10672  12.928  14.915   6.517 -0.0227  0.0173 -0.2128
  714POPI   C3B10673  13.038  14.669   6.925 -0.1268 -0.1460  0.2578
  714POPI   C4B10674  12.901  14.316   7.235 -0.1764  0.0172  0.1900
  715POPI    C110675   9.769  15.760   5.662  0.0226  0.1231  0.0958
  715POPI    C210676  10.131  15.895   5.556  0.0281 -0.0983 -0.1794
  715POPI    C310677  10.057  15.501   5.561 -0.2143 -0.0541 -0.1406
  715POPI   PO410678   9.738  15.943   5.812  0.3312 -0.1364  0.0430
  715POPI   GL110679   9.698  16.039   6.176  0.4215  0.0522 -0.1267
  715POPI   GL210680   9.987  16.188   6.177  0.0665  0.1229 -0.2389
  715POPI   C1A10681   9.415  15.810   6.473  0.2673  0.1151  0.0744
  715POPI   D2A10682   9.144  15.740   6.766 -0.2562  0.1378  0.0540
  715POPI   C3A10683   9.294  15.827   7.139  0.1599  0.0167 -0.0364
  715POPI   C4A10684   9.519  15.916   7.548  0.3693 -0.1868 -0.0245
  715POPI   C1B10685  10.184  16.170   6.622  0.3069  0.0669  0.0606
  715POPI   C2B10686  10.310  15.929   6.921 -0.0928 -0.0725 -0.1892
  715POPI   C3B10687  10.075  15.669   7.182 -0.1244 -0.1085  0.1969
  715POPI   C4B10688  10.059  15.220   7.461  0.1117 -0.0468  0.0806
  716POPI    C110689  12.821  18.411   4.876  0.3406 -0.0680 -0.3504
  716POPI    C210690  12.663  18.209   4.569 -0.0209 -0.0973 -0.1510
  716POPI    C310691  12.564  18.592   4.629 -0.1977 -0.1803  0.1048
  716POPI   PO410692  12.769  18.199   5.218  0.2307  0.2714 -0.1195
  716POPI   GL110693  12.991  18.256   5.490 -0.4733 -0.3024  0.2181
  716POPI   GL210694  13.234  18.186   5.557 -0.1528 -0.5293 -0.1685
  716POPI   C1A10695  12.903  18.089   5.945  0.2586  0.1284 -0.5158
  716POPI   D2A10696  12.722  18.047   6.400 -0.2461 -0.3645  0.2126
  716POPI   C3A10697  12.725  17.742   6.726  0.1245  0.3308  0.0941
  716POPI   C4A10698  12.723  17.550   7.196  0.2059 -0.4779 -0.0569
  716POPI   C1B10699  13.366  17.974   5.932 -0.1873  0.0034 -0.1357
  716POPI   C2B10700  13.483  17.626   6.229  0.1509  0.0999 -0.6100
  716POPI   C3B10701  13.679  17.552   6.681  0.0082  0.1886  0.3729
  716POPI   C4B10702  14.033  17.471   7.076  0.1212 -0.1219  0.0288
  717POPI    C110703  18.922   1.895   5.057 -0.0801  0.0626 -0.0063
  717POPI    C210704  19.012   1.548   4.879 -0.3339 -0.0251  0.0332
  717POPI    C310705  19.155   1.891   4.731 -0.0453 -0.1484  0.0200
  717POPI   PO410706  18.712   1.942   5.066  0.0665  0.2943  0.0189
  717POPI   GL110707  18.376   2.076   5.439 -0.0816  0.0679 -0.0547
  717POPI   GL210708  18.394   1.786   5.444  0.0689  0.0283 -0.0026
  717POPI   C1A10709  18.515   2.318   5.769  0.0589  0.0905  0.0709
  717POPI   D2A10710  18.375   2.508   6.119  0.1460 -0.0137 -0.0591
  717POPI   C3A10711  18.561   2.522   6.529  0.0105  0.1269  0.2591
  717POPI   C4A10712  18.866   2.247   6.707  0.0783 -0.0937 -0.0559
  717POPI   C1B10713  18.632   1.807   5.771 -0.1484 -0.2346 -0.0216
  717POPI   C2B10714  18.488   1.957   6.142 -0.1240  0.0583  0.3509
  717POPI   C3B10715  18.235   2.149   6.521 -0.1133 -0.0679 -0.1014
  717POPI   C4B10716  17.855   1.945   6.806  0.2050  0.0503 -0.3406
  718POPI    C110717   0.417   9.891   5.038  0.0282 -0.1135 -0.1102
  718POPI    C210718   0.460   9.554   4.825 -0.5076  0.0248 -0.4570
  718POPI    C310719   0.616   9.897   4.691  0.2881 -0.1173  0.0359
  718POPI   PO410720   0.219   9.804   5.181  0.0638  0.0671 -0.1124
  718POPI   GL110721   0.090   9.601   5.528 -0.1158 -0.1139  0.0700
  718POPI   GL210722   0.092   9.839   5.727 -0.1022  0.0285  0.0664
  718POPI   C1A10723   0.446   9.423   5.716 -0.1023 -0.2670  0.0029
  718POPI   D2A10724   0.455   9.021   6.117  0.1777 -0.0626  0.1259
  718POPI   C3A10725   0.695   8.980   6.573 -0.2122 -0.0027 -0.1759
  718POPI   C4A10726   0.782   9.144   6.991  0.3151 -0.3817  0.0125
  718POPI   C1B10727  -0.083  10.073   6.082 -0.0348 -0.0978  0.0536
  718POPI   C2B10728  -0.019  10.412   6.310  0.2550 -0.0432  0.0486
  718POPI   C3B10729   0.189  10.513   6.532  0.2110 -0.0321  0.0119
  718POPI   C4B10730   0.218  10.321   6.883  0.2486 -0.1057 -0.0521
  719POPI    C110731   1.939   5.349   5.574  0.0249 -0.0540  0.3491
  719POPI    C210732   2.152   5.018   5.644 -0.0013 -0.1449  0.0176
  719POPI    C310733   2.316   5.323   5.443  0.0437  0.0740  0.3756
  719POPI   PO410734   1.822   5.528   5.823 -0.1141 -0.2110 -0.0143
  719POPI   GL110735   1.625   5.492   6.230 -0.2949 -0.2539 -0.0586
  719POPI   GL210736   1.674   5.805   6.213 -0.2676 -0.2278 -0.0806
  719POPI   C1A10737   1.486   5.356   6.665  0.1553  0.3136 -0.3390
  719POPI   D2A10738   1.506   5.099   7.011  0.0869 -0.2425  0.1042
  719POPI   C3A10739   1.181   4.972   7.212  0.0020  0.1359  0.1492
  719POPI   C4A10740   0.935   4.733   7.424  0.0689 -0.2476  0.0430
  719POPI   C1B10741   1.725   5.827   6.576  0.0099 -0.1260 -0.0434
  719POPI   C2B10742   1.638   5.788   6.964 -0.0917  0.2541  0.1631
  719POPI   C3B10743   1.221   5.667   7.066  0.1115 -0.0641  0.0740
  719POPI   C4B10744   0.972   5.442   7.388 -0.0593  0.0288 -0.0821
  720POPI    C110745   9.937   4.084   5.405  0.1082  0.1494 -0.1835
  720POPI    C210746  10.171   3.959   5.107  0.0742  0.0641 -0.1745
  720POPI    C310747   9.894   3.714   5.260  0.0519  0.1279 -0.1127
  720POPI   PO410748  10.187   4.276   5.519 -0.0093  0.2790 -0.2066
  720POPI   GL110749  10.263   4.034   5.892 -0.0311  0.1432  0.0350
  720POPI   GL210750  10.492   4.283   6.209  0.2701 -0.2943  0.0516
  720POPI   C1A10751   9.908   3.872   6.044 -0.1817  0.0307  0.0056
  720POPI   D2A10752   9.612   4.072   6.465  0.1784 -0.0945  0.1051
  720POPI   C3A10753   9.907   4.206   6.830  0.0203  0.3190  0.0748
  720POPI   C4A10754  10.221   4.089   7.198 -0.1201 -0.2371 -0.0216
  720POPI   C1B10755  10.204   4.017   6.436 -0.0104  0.0869 -0.0817
  720POPI   C2B10756  10.073   3.708   6.825  0.3420  0.1107 -0.0721
  720POPI   C3B10757  10.072   3.659   7.268  0.1022  0.2448  0.3939
  720POPI   C4B10758   9.842   3.383   7.456 -0.1609 -0.0111 -0.1028
  721POPI    C110759  17.484   9.697   4.795  0.1738 -0.1754 -0.0803
  721POPI    C210760  17.586   9.315   4.739 -0.0491 -0.2443 -0.0253
  721POPI    C310761  17.277   9.471   4.538 -0.2088 -0.2057  0.2453
  721POPI   PO410762  17.492   9.721   5.096  0.0390  0.2229 -0.0382
  721POPI   GL110763  17.636   9.753   5.467 -0.0313 -0.1899 -0.4242
  721POPI   GL210764  17.978   9.757   5.462 -0.1367 -0.0902  0.1041
  721POPI   C1A10765  17.396   9.439   5.739 -0.1254 -0.0046  0.0009
  721POPI   D2A10766  17.464   9.307   6.209 -0.0082 -0.1576 -0.0110
  721POPI   C3A10767  17.871   9.155   6.341 -0.0145  0.1162  0.0768
  721POPI   C4A10768  18.272   9.319   6.248 -0.0882 -0.2866  0.0252
  721POPI   C1B10769  18.252   9.394   5.746  0.1947  0.2726  0.2891
  721POPI   C2B10770  18.219   8.983   5.807 -0.0203  0.1358 -0.1357
  721POPI   C3B10771  17.955   8.632   5.842  0.3764  0.0907 -0.0329
  721POPI   C4B10772  17.596   8.409   5.492 -0.0912  0.0743  0.0899
  722POPI    C110773   6.187  14.506   5.686 -0.0363 -0.3762  0.0567
  722POPI    C210774   6.362  14.540   6.044 -0.1144 -0.0649  0.0681
  722POPI    C310775   6.584  14.475   5.717  0.0036  0.1149  0.1110
  722POPI   PO410776   5.988  14.338   5.770 -0.0420  0.4370  0.1295
  722POPI   GL110777   5.928  13.931   6.006  0.2034 -0.0099 -0.2312
  722POPI   GL210778   6.044  14.225   6.238 -0.0014  0.0025  0.0302
  722POPI   C1A10779   5.961  13.581   6.323 -0.0522  0.2037 -0.0759
  722POPI   D2A10780   5.978  13.298   6.665 -0.3373 -0.1383  0.2701
  722POPI   C3A10781   6.315  13.121   6.769  0.0057  0.3078  0.1655
  722POPI   C4A10782   6.802  13.174   6.765 -0.2926  0.1925 -0.0918
  722POPI   C1B10783   5.781  13.984   6.538  0.3101 -0.2969  0.2004
  722POPI   C2B10784   5.803  13.800   6.777  0.2855 -0.1430  0.1211
  722POPI   C3B10785   5.866  13.567   7.178 -0.2357 -0.0907 -0.2917
  722POPI   C4B10786   6.264  13.281   7.215 -0.0927 -0.1863 -0.0181
  723POPI    C110787  10.289  10.944   5.508  0.3980 -0.0433 -0.1784
  723POPI    C210788  10.355  11.251   5.261 -0.0073  0.1140 -0.0998
  723POPI    C310789  10.069  10.985   5.177 -0.0291  0.0693  0.1104
  723POPI   PO410790  10.329  11.008   5.739  0.2156  0.1261  0.0566
  723POPI   GL110791  10.279  11.234   6.149  0.1938 -0.0324 -0.1474
  723POPI   GL210792   9.965  11.054   6.269 -0.4083 -0.0139 -0.0035
  723POPI   C1A10793  10.581  11.020   6.464  0.2121  0.0599 -0.0449
  723POPI   D2A10794  10.740  10.595   6.561 -0.2718 -0.2595 -0.0853
  723POPI   C3A10795  10.776  10.592   7.008  0.2334 -0.0981  0.2983
  723POPI   C4A10796  11.066  10.496   7.295  0.2562  0.0744 -0.0472
  723POPI   C1B10797   9.933  10.896   6.616 -0.1814  0.2225 -0.1774
  723POPI   C2B10798   9.960  10.976   7.058 -0.2122 -0.2584  0.0270
  723POPI   C3B10799  10.068  11.245   7.266  0.0573  0.0797 -0.0635
  723POPI   C4B10800  10.252  11.384   7.704  0.3907 -0.4713  0.0157
  724POPI    C110801  13.587  10.652   4.657  0.1593 -0.0213  0.2601
  724POPI    C210802  13.248  10.441   4.630 -0.0044  0.2559  0.1115
  724POPI    C310803  13.474  10.500   4.305  0.1041  0.2069  0.1775
  724POPI   PO410804  13.723  10.600   4.801  0.0210  0.0023  0.2402
  724POPI   GL110805  13.826  10.634   5.208 -0.4509 -0.0281 -0.1271
  724POPI   GL210806  13.819  10.799   5.423  0.1776  0.0183  0.0864
  724POPI   C1A10807  13.742  10.268   5.431 -0.2199  0.0377 -0.4823
  724POPI   D2A10808  13.305  10.134   5.555  0.4643  0.1115 -0.3195
  724POPI   C3A10809  12.903  10.368   5.722 -0.1312 -0.3092  0.1484
  724POPI   C4A10810  12.559  10.377   5.992  0.0319 -0.5225 -0.1393
  724POPI   C1B10811  14.014  11.243   5.434 -0.1518 -0.0831 -0.0355
  724POPI   C2B10812  14.112  11.625   5.719  0.0316  0.0045 -0.0638
  724POPI   C3B10813  14.464  11.727   5.891  0.1442  0.3570 -0.0943
  724POPI   C4B10814  14.927  11.828   6.139 -0.1482 -0.0934 -0.1876
  725POPI    C110815   3.905   6.757   5.211 -0.1612  0.0563 -0.0199
  725POPI    C210816   4.216   6.790   4.962 -0.2552  0.0157 -0.1434
  725POPI    C310817   3.843   6.836   4.824 -0.3029  0.1001  0.0111
  725POPI   PO410818   4.067   6.809   5.433  0.2828  0.2118 -0.1618
  725POPI   GL110819   4.060   6.542   5.841 -0.0965  0.2844 -0.2296
  725POPI   GL210820   4.069   6.135   5.824  0.2314  0.2821 -0.1427
  725POPI   C1A10821   4.016   6.545   6.309 -0.2597 -0.3055 -0.4396
  725POPI   D2A10822   4.115   6.318   6.733  0.1086 -0.0535  0.0070
  725POPI   C3A10823   4.539   6.392   6.947  0.0779 -0.0365 -0.0211
  725POPI   C4A10824   4.996   6.281   6.943  0.1130  0.0334 -0.0685
  725POPI   C1B10825   3.836   6.079   6.194  0.1174 -0.0168  0.2870
  725POPI   C2B10826   3.621   6.359   6.461  0.2522 -0.2063 -0.0658
  725POPI   C3B10827   3.558   6.866   6.656  0.1003 -0.3405 -0.1510
  725POPI   C4B10828   3.970   6.880   6.682 -0.3693  0.1161 -0.0590
  726POPI    C110829  15.661   5.920   5.310 -0.1189  0.2084  0.0731
  726POPI    C210830  15.773   6.224   5.545  0.2744  0.1979 -0.0938
  726POPI    C310831  15.782   6.265   5.147  0.0753  0.0544 -0.1143
  726POPI   PO410832  15.400   5.807   5.492 -0.1183 -0.1183  0.3240
  726POPI   GL110833  15.116   5.758   5.822  0.1394  0.1318 -0.0380
  726POPI   GL210834  14.969   5.982   6.016 -0.0420 -0.0115  0.1613
  726POPI   C1A10835  15.188   5.335   6.038  0.0798  0.1621  0.0530
  726POPI   D2A10836  15.158   5.189   6.484  0.3803  0.3085  0.1421
  726POPI   C3A10837  15.045   5.392   6.820 -0.1247  0.2452 -0.0908
  726POPI   C4A10838  14.998   5.727   6.905  0.0960  0.2442 -0.1689
  726POPI   C1B10839  15.173   6.187   6.368  0.0363  0.0893 -0.1702
  726POPI   C2B10840  15.150   6.204   6.741  0.3051  0.0277  0.0726
  726POPI   C3B10841  14.885   6.232   7.077 -0.2009  0.0413  0.0880
  726POPI   C4B10842  14.700   6.056   7.330 -0.0700  0.0067 -0.1219
  727POPI    C110843  12.453   0.324   4.999  0.0302  0.2389  0.0333
  727POPI    C210844  12.696   0.043   5.148 -0.0597  0.1844  0.0783
  727POPI    C310845  12.682   0.106   4.754 -0.0658  0.1008  0.0648
  727POPI   PO410846  12.313   0.327   5.205  0.0986  0.0716  0.1496
  727POPI   GL110847  12.364   0.363   5.750  0.0779 -0.2056 -0.0943
  727POPI   GL210848  12.339   0.660   5.699  0.1117 -0.1110  0.0941
  727POPI   C1A10849  12.258   0.161   6.110  0.1222 -0.2109 -0.5216
  727POPI   D2A10850  12.301   0.027   6.593  0.4153  0.0060  0.0425
  727POPI   C3A10851  12.568  -0.346   6.627  0.0046 -0.2451  0.3525
  727POPI   C4A10852  12.911  -0.191   6.821 -0.2035 -0.2391 -0.0639
  727POPI   C1B10853  12.766   0.634   5.996 -0.3115 -0.1460 -0.2930
  727POPI   C2B10854  13.167   0.405   6.249  0.0066  0.0331 -0.0416
  727POPI   C3B10855  13.679   0.301   6.450  0.0978 -0.2142  0.0012
  727POPI   C4B10856  13.748  -0.085   6.746 -0.1430  0.0500  0.0443
  728POPI    C110857   6.494  14.935   5.483  0.0870  0.0164  0.0268
  728POPI    C210858   6.514  15.300   5.320  0.1256  0.0742  0.1585
  728POPI    C310859   6.829  15.151   5.516  0.1914 -0.1255 -0.0930
  728POPI   PO410860   6.332  15.006   5.719  0.0262  0.1391 -0.1202
  728POPI   GL110861   6.346  15.060   6.095 -0.1289 -0.3940  0.4106
  728POPI   GL210862   6.335  15.322   6.315  0.3659 -0.1158  0.0546
  728POPI   C1A10863   5.853  15.246   6.326  0.1330  0.0904  0.1043
  728POPI   D2A10864   5.543  15.437   6.500 -0.1160 -0.1477  0.4594
  728POPI   C3A10865   5.473  15.590   6.843 -0.0046  0.1195 -0.5061
  728POPI   C4A10866   5.306  15.775   7.175 -0.3542  0.2562 -0.0484
  728POPI   C1B10867   6.291  15.035   6.602 -0.0846 -0.1910  0.1944
  728POPI   C2B10868   6.279  14.997   7.072  0.3120 -0.0460 -0.1086
  728POPI   C3B10869   6.592  15.086   7.339  0.0469  0.0472 -0.0795
  728POPI   C4B10870   6.893  15.107   7.692 -0.0655 -0.0053  0.1589
  729POPI    C110871   1.366  14.433   5.341 -0.0363 -0.0933  0.0632
  729POPI    C210872   1.323  14.154   5.058  0.2570 -0.1168  0.0386
  729POPI    C310873   1.408  14.531   4.955  0.0027 -0.0467  0.0791
  729POPI   PO410874   1.619  14.230   5.471  0.1673  0.1588  0.2198
  729POPI   GL110875   1.903  13.962   5.856 -0.3741  0.3540 -0.1214
  729POPI   GL210876   2.034  14.270   5.952 -0.0398 -0.3046 -0.2267
  729POPI   C1A10877   1.553  14.156   6.173  0.3629  0.1620  0.0723
  729POPI   D2A10878   1.188  14.241   6.470 -0.1480  0.0801 -0.2607
  729POPI   C3A10879   1.010  13.947   6.819 -0.1785 -0.0878 -0.0775
  729POPI   C4A10880   1.035  13.784   7.261 -0.0146 -0.0498 -0.6090
  729POPI   C1B10881   2.013  14.208   6.395 -0.0889 -0.0711 -0.1871
  729POPI   C2B10882   2.075  14.401   6.863  0.0817 -0.0133  0.3459
  729POPI   C3B10883   2.370  14.340   7.299 -0.3562 -0.4084  0.1124
  729POPI   C4B10884   2.746  14.245   7.515 -0.4772 -0.4348  0.2919
  730POPI    C110885  11.476   4.303   5.079 -0.1927  0.2490 -0.3211
  730POPI    C210886  11.580   3.923   5.148 -0.2477  0.2863 -0.0190
  730POPI    C310887  11.840   4.173   4.976 -0.0515  0.2236  0.1804
  730POPI   PO410888  11.444   4.397   5.292 -0.3043 -0.2266  0.0100
  730POPI   GL110889  11.241   4.386   5.618  0.0885 -0.0536  0.0389
  730POPI   GL210890  11.110   4.663   5.797  0.3480  0.1230  0.1575
  730POPI   C1A10891  11.392   4.274   5.957  0.2531  0.0490 -0.2125
  730POPI   D2A10892  11.883   4.319   6.230  0.0108 -0.0265 -0.1477
  730POPI   C3A10893  11.947   4.326   6.704 -0.2637 -0.0764  0.0643
  730POPI   C4A10894  11.669   4.449   7.051  0.2108  0.1595  0.1194
  730POPI   C1B10895  10.901   4.588   6.148 -0.0728 -0.0891  0.1458
  730POPI   C2B10896  10.907   4.606   6.596  0.2801  0.2030 -0.1516
  730POPI   C3B10897  10.899   4.670   7.122 -0.0104  0.0018 -0.0343
  730POPI   C4B10898  11.021   4.617   7.502 -0.1998  0.4924 -0.0306
  731POPI    C110899   1.942   9.125   4.722 -0.0061 -0.0331 -0.0031
  731POPI    C210900   2.169   9.189   4.400  0.0730 -0.0891  0.0411
  731POPI    C310901   1.833   9.399   4.452  0.0382 -0.1087 -0.0985
  731POPI   PO410902   2.115   9.056   4.836 -0.0544 -0.3318  0.2704
  731POPI   GL110903   2.038   8.862   5.219  0.2105  0.1653  0.0365
  731POPI   GL210904   2.289   8.961   5.355  0.4107 -0.0694 -0.0220
  731POPI   C1A10905   1.744   9.055   5.540  0.2277  0.1979  0.0464
  731POPI   D2A10906   1.522   9.048   5.944 -0.0127 -0.0008 -0.1800
  731POPI   C3A10907   1.734   8.862   6.311  0.1528 -0.1784  0.0548
  731POPI   C4A10908   1.788   8.874   6.718  0.1732 -0.2462  0.0851
  731POPI   C1B10909   2.329   8.805   5.769  0.1299 -0.4278 -0.0255
  731POPI   C2B10910   2.222   8.647   6.230  0.0922  0.1674 -0.1145
  731POPI   C3B10911   2.131   8.575   6.532  0.1393  0.3138 -0.0524
  731POPI   C4B10912   1.905   8.311   6.861 -0.0751  0.1229  0.0079
  732POPI    C110913  14.914   9.132   5.159 -0.2075  0.1460 -0.1324
  732POPI    C210914  14.832   9.044   5.540 -0.1647  0.2186 -0.1062
  732POPI    C310915  15.006   8.771   5.305  0.0174  0.2509 -0.0102
  732POPI   PO410916  14.918   9.470   5.278 -0.3038  0.0122 -0.1296
  732POPI   GL110917  15.079   9.521   5.721  0.1125 -0.0955  0.0585
  732POPI   GL210918  15.076   9.872   5.709 -0.1392 -0.0616 -0.1070
  732POPI   C1A10919  14.782   9.395   5.964  0.0822 -0.0015  0.1969
  732POPI   D2A10920  14.624   9.262   6.388  0.3160 -0.1893 -0.1985
  732POPI   C3A10921  14.430   9.645   6.536 -0.0112  0.0601 -0.1281
  732POPI   C4A10922  14.112   9.884   6.297 -0.1958 -0.1269 -0.1365
  732POPI   C1B10923  15.019   9.849   6.135 -0.1111  0.0090 -0.2809
  732POPI   C2B10924  14.865   9.962   6.600  0.2642  0.2348  0.3727
  732POPI   C3B10925  14.653   9.970   6.946 -0.1606  0.3647  0.3219
  732POPI   C4B10926  14.430  10.201   7.306 -0.0268 -0.2336  0.2009
  733POPI    C110927   7.126   9.846   5.633  0.1094 -0.0024 -0.0241
  733POPI    C210928   7.009   9.463   5.618 -0.3458  0.1232  0.1467
  733POPI    C310929   7.180   9.633   5.299 -0.2071 -0.1992  0.0452
  733POPI   PO410930   7.317   9.990   5.800  0.0008 -0.1376  0.2942
  733POPI   GL110931   7.114  10.148   6.190  0.0947  0.2330 -0.0931
  733POPI   GL210932   6.961  10.035   6.400 -0.2171 -0.1408  0.0890
  733POPI   C1A10933   7.479  10.292   6.353 -0.0225 -0.3820  0.3102
  733POPI   D2A10934   7.944  10.366   6.482  0.3993 -0.0517 -0.2822
  733POPI   C3A10935   8.046  10.645   6.792  0.2707 -0.1038  0.0557
  733POPI   C4A10936   7.738  10.815   7.038  0.0326 -0.1317  0.0520
  733POPI   C1B10937   7.027   9.869   6.780  0.2049  0.0443  0.2810
  733POPI   C2B10938   7.145   9.977   7.214 -0.0296  0.0025  0.0306
  733POPI   C3B10939   7.057   9.938   7.627  0.2166  0.0442 -0.1977
  733POPI   C4B10940   6.799   9.634   7.782  0.1334 -0.0651  0.3085
  734POPI    C110941  17.003  12.827   4.691 -0.1585 -0.0559 -0.0396
  734POPI    C210942  16.613  12.800   4.609 -0.1193 -0.1038 -0.2144
  734POPI    C310943  16.882  12.740   4.320  0.0132  0.1618 -0.1485
  734POPI   PO410944  16.942  12.873   4.999 -0.1187 -0.0349  0.1353
  734POPI   GL110945  16.712  12.928   5.505  0.1567  0.0469 -0.1323
  734POPI   GL210946  16.438  13.036   5.610 -0.1025 -0.2759  0.2487
  734POPI   C1A10947  17.029  12.738   5.824  0.2052  0.1339 -0.1130
  734POPI   D2A10948  17.256  12.718   6.256 -0.1312 -0.1448 -0.2547
  734POPI   C3A10949  17.129  12.385   6.499 -0.0722 -0.0705 -0.1957
  734POPI   C4A10950  17.365  12.150   6.809 -0.0936  0.0512 -0.0911
  734POPI   C1B10951  16.180  12.645   5.801  0.0398  0.2476 -0.2424
  734POPI   C2B10952  15.762  12.503   5.806 -0.1408  0.1094  0.0080
  734POPI   C3B10953  15.432  12.619   5.734 -0.2137 -0.2666  0.1213
  734POPI   C4B10954  15.072  12.712   5.844  0.1808  0.1395 -0.2511
  735POPI    C110955  14.071  18.609   5.205 -0.1700  0.0412 -0.1499
  735POPI    C210956  13.962  18.833   4.892  0.2477  0.2347 -0.1639
  735POPI    C310957  14.062  19.007   5.238  0.1370  0.0410 -0.0323
  735POPI   PO410958  14.221  18.410   5.211  0.2188 -0.2571 -0.1081
  735POPI   GL110959  14.448  18.289   5.617 -0.1369  0.0977 -0.1293
  735POPI   GL210960  14.092  18.369   5.740  0.1575 -0.2739  0.1151
  735POPI   C1A10961  14.721  18.286   5.924  0.0031 -0.0319 -0.1003
  735POPI   D2A10962  14.917  18.289   6.317  0.0682  0.0056 -0.1509
  735POPI   C3A10963  14.906  18.689   6.339  0.0440 -0.2418 -0.0280
  735POPI   C4A10964  14.772  19.064   6.331 -0.0737 -0.0460  0.1185
  735POPI   C1B10965  14.250  18.122   6.050 -0.2270 -0.1987 -0.1510
  735POPI   C2B10966  14.433  18.080   6.548 -0.0540 -0.2457 -0.0983
  735POPI   C3B10967  14.565  17.935   6.989  0.0774  0.4194 -0.0359
  735POPI   C4B10968  14.734  17.480   7.035  0.1690 -0.1681 -0.1524
  736POPI    C110969   5.905  16.294   5.360  0.1332 -0.0338 -0.1818
  736POPI    C210970   5.893  16.663   5.514 -0.1445 -0.1340  0.0458
  736POPI    C310971   5.774  16.599   5.138  0.0737  0.0347 -0.0540
  736POPI   PO410972   5.947  16.195   5.639 -0.2779  0.2452 -0.1514
  736POPI   GL110973   6.019  16.301   6.122  0.2734  0.4135  0.1821
  736POPI   GL210974   5.828  16.044   6.253 -0.1741 -0.0958  0.0573
  736POPI   C1A10975   6.054  16.562   6.321 -0.2649 -0.1444  0.0526
  736POPI   D2A10976   6.143  16.629   6.850 -0.1437 -0.1940 -0.0338
  736POPI   C3A10977   6.479  16.728   7.256  0.0034  0.1807 -0.1803
  736POPI   C4A10978   6.665  16.557   7.680 -0.1110  0.1223 -0.0822
  736POPI   C1B10979   6.021  15.690   6.567  0.1982 -0.1805  0.0861
  736POPI   C2B10980   5.918  15.328   6.790  0.0811  0.3142  0.0207
  736POPI   C3B10981   5.743  15.173   7.108  0.0641  0.2631  0.0317
  736POPI   C4B10982   5.830  14.794   7.293 -0.0551 -0.0553 -0.1460
  737POPI    C110983  12.314   1.364   5.165 -0.1071 -0.0802  0.1033
  737POPI    C210984  12.600   1.397   4.888 -0.0425  0.0703  0.1870
  737POPI    C310985  12.236   1.270   4.785  0.0745 -0.1953  0.0932
  737POPI   PO410986  12.462   1.220   5.447  0.0022 -0.1421  0.0699
  737POPI   GL110987  12.507   1.049   5.839 -0.3512 -0.1626 -0.0984
  737POPI   GL210988  12.895   1.059   5.700 -0.0396  0.0014  0.0165
  737POPI   C1A10989  12.556   1.075   6.286 -0.2580  0.1647  0.0525
  737POPI   D2A10990  12.504   1.031   6.663  0.1348 -0.2490 -0.1806
  737POPI   C3A10991  12.986   0.983   6.943 -0.1438  0.0121 -0.0977
  737POPI   C4A10992  13.166   1.006   7.435  0.2478  0.0008 -0.1620
  737POPI   C1B10993  13.217   0.946   6.048 -0.2855  0.1008 -0.1333
  737POPI   C2B10994  13.639   0.733   6.181 -0.0105  0.1070  0.2063
  737POPI   C3B10995  13.841   0.807   6.618 -0.0301 -0.0836  0.0770
  737POPI   C4B10996  13.975   1.096   6.980 -0.2024  0.1316 -0.0427
  738POPI    C110997  11.122   9.008   5.330  0.2068 -0.0895  0.2629
  738POPI    C210998  11.263   9.205   5.011  0.1645  0.0755  0.3450
  738POPI    C310999  11.508   8.975   5.228  0.1386 -0.2425  0.0466
  738POPI   PO411000  11.042   9.188   5.517  0.1053 -0.1234 -0.2605
  738POPI   GL111001  11.148   9.251   5.935 -0.0703 -0.0570  0.0771
  738POPI   GL211002  11.286   9.557   6.021 -0.1428 -0.1799  0.2112
  738POPI   C1A11003  11.109   9.199   6.406  0.2201  0.3908  0.0085
  738POPI   D2A11004  11.111   9.147   6.815 -0.1753  0.0667 -0.2919
  738POPI   C3A11005  11.095   8.898   7.083 -0.2564 -0.0361 -0.2282
  738POPI   C4A11006  11.001   8.717   7.444  0.1972  0.1567 -0.0562
  738POPI   C1B11007  11.443   9.596   6.483  0.3102  0.4078 -0.1780
  738POPI   C2B11008  11.339   9.695   6.890  0.2778 -0.3240 -0.1626
  738POPI   C3B11009  11.198   9.442   7.242 -0.0700  0.0636 -0.1567
  738POPI   C4B11010  11.309   9.206   7.570 -0.0634 -0.0648 -0.0801
  739POPI    C111011   6.410   4.979   5.368 -0.0227  0.1994  0.1477
  739POPI    C211012   6.304   5.341   5.235 -0.0194  0.0724 -0.2120
  739POPI    C311013   6.575   5.126   5.035 -0.0331 -0.1368 -0.0101
  739POPI   PO411014   6.113   4.973   5.491  0.1469  0.0617 -0.1081
  739POPI   GL111015   5.869   5.280   5.783 -0.0039 -0.1274 -0.2593
  739POPI   GL211016   5.928   4.939   5.912 -0.0274  0.0213  0.0875
  739POPI   C1A11017   5.716   5.556   6.155 -0.2156  0.0592  0.0444
  739POPI   D2A11018   5.422   5.630   6.406  0.1492 -0.1420 -0.3415
  739POPI   C3A11019   5.189   6.084   6.477 -0.1204  0.1462  0.0462
  739POPI   C4A11020   4.735   6.272   6.480 -0.0069  0.0636 -0.3143
  739POPI   C1B11021   6.105   4.948   6.340 -0.4642  0.3408 -0.3916
  739POPI   C2B11022   6.090   4.811   6.856  0.1532  0.1747 -0.1471
  739POPI   C3B11023   6.240   4.553   7.157  0.0066  0.0219  0.2855
  739POPI   C4B11024   6.639   4.595   7.388  0.1878  0.1038  0.0888
  740POPI    C111025  13.158  17.919   5.153 -0.0847  0.0062  0.1720
  740POPI    C211026  13.216  18.013   4.768  0.0948 -0.0617  0.1812
  740POPI    C311027  12.865  17.862   4.887  0.0879 -0.1767  0.0175
  740POPI   PO411028  13.438  17.884   5.199  0.1662  0.1821  0.0749
  740POPI   GL111029  13.800  17.623   5.319 -0.0959 -0.2203  0.0113
  740POPI   GL211030  13.840  17.386   5.499 -0.3899 -0.0667 -0.0998
  740POPI   C1A11031  13.849  17.789   5.851 -0.0944 -0.0004 -0.1201
  740POPI   D2A11032  13.926  17.864   6.319  0.2246  0.0390 -0.0973
  740POPI   C3A11033  13.591  18.118   6.542 -0.1473 -0.1080  0.2534
  740POPI   C4A11034  13.382  18.045   6.823 -0.0532 -0.2397  0.0497
  740POPI   C1B11035  13.661  17.325   5.873  0.3294 -0.1053 -0.0277
  740POPI   C2B11036  13.521  17.156   6.326  0.1940  0.1306 -0.1155
  740POPI   C3B11037  13.400  17.013   6.627 -0.0134 -0.1227 -0.0590
  740POPI   C4B11038  13.259  16.705   6.840  0.2257 -0.2089 -0.2047
  741POPS   CNO11039   0.304  18.276   4.882  0.7139  0.2336 -0.1151
  741POPS   PO411040   0.412  18.520   5.269 -0.2470 -0.1559 -0.2447
  741POPS   GL111041   0.127  18.440   5.675  0.1975 -0.0594 -0.0151
  741POPS   GL211042  -0.156  18.575   5.640 -0.0422 -0.0075 -0.1861
  741POPS   C1A11043   0.160  18.480   6.100 -0.3630  0.2388 -0.0256
  741POPS   D2A11044   0.211  18.517   6.481 -0.0592 -0.1295 -0.2252
  741POPS   C3A11045   0.343  18.831   6.614  0.2609  0.1270  0.2461
  741POPS   C4A11046   0.697  19.107   6.527  0.0796 -0.0315  0.0698
  741POPS   C1B11047  -0.283  18.389   5.973  0.1045 -0.3573 -0.1579
  741POPS   C2B11048  -0.307  18.472   6.425 -0.0949 -0.0454 -0.0766
  741POPS   C3B11049  -0.129  18.498   6.902 -0.1709  0.0971  0.1155
  741POPS   C4B11050  -0.007  18.863   7.037 -0.2431 -0.1428 -0.1731
  742POPS   CNO11051   1.552   4.974   5.182  0.1353 -0.2173 -0.0793
  742POPS   PO411052   1.908   4.654   5.393 -0.1691  0.2131  0.1950
  742POPS   GL111053   1.425   4.519   5.590  0.3739 -0.2118 -0.3470
  742POPS   GL211054   1.145   4.662   5.733 -0.3502  0.1743 -0.0313
  742POPS   C1A11055   1.277   4.226   5.845  0.2092  0.1147 -0.3690
  742POPS   D2A11056   1.496   3.990   5.994  0.0055 -0.4105  0.0625
  742POPS   C3A11057   1.305   3.796   6.400  0.1215  0.0282  0.1403
  742POPS   C4A11058   1.164   3.769   6.795 -0.2711  0.0176 -0.1557
  742POPS   C1B11059   1.447   4.771   6.067  0.2053  0.3361  0.0915
  742POPS   C2B11060   1.644   4.828   6.422 -0.1031  0.2771 -0.2309
  742POPS   C3B11061   1.718   4.661   6.862  0.1527  0.0994 -0.1323
  742POPS   C4B11062   1.726   4.425   7.108 -0.1011  0.1657 -0.1041
  743POPS   CNO11063   3.904  14.006   5.658  0.1245 -0.2067  0.2158
  743POPS   PO411064   3.736  13.703   5.274 -0.2021  0.2207  0.1812
  743POPS   GL111065   3.661  13.570   5.814 -0.0619  0.3603 -0.2093
  743POPS   GL211066   3.320  13.459   5.776  0.1152 -0.2964 -0.1537
  743POPS   C1A11067   3.637  13.314   6.141  0.0513  0.1837 -0.1943
  743POPS   D2A11068   3.169  13.185   6.214 -0.2907 -0.0152 -0.0486
  743POPS   C3A11069   2.881  13.171   6.597 -0.0675 -0.3527 -0.5871
  743POPS   C4A11070   2.871  13.371   7.043 -0.2005  0.1279 -0.2333
  743POPS   C1B11071   3.255  13.679   6.133  0.0038 -0.3089 -0.1366
  743POPS   C2B11072   3.185  13.539   6.554 -0.0945 -0.1001  0.0815
  743POPS   C3B11073   3.370  13.577   6.942  0.0170 -0.2215 -0.2025
  743POPS   C4B11074   3.584  13.453   7.277  0.0253  0.5708 -0.3239
  744POPS   CNO11075   4.448   7.232   5.124 -0.0521  0.1457  0.3075
  744POPS   PO411076   4.632   7.612   5.297 -0.1711  0.0233  0.1971
  744POPS   GL111077   4.492   7.767   5.770 -0.2022 -0.2821 -0.0657
  744POPS   GL211078   4.393   8.036   5.864  0.0598  0.0964  0.2110
  744POPS   C1A11079   4.047   7.671   5.970  0.2794 -0.0349  0.1221
  744POPS   D2A11080   4.016   7.475   6.307  0.3698 -0.3470  0.0324
  744POPS   C3A11081   3.918   7.787   6.601 -0.3427 -0.0640  0.2628
  744POPS   C4A11082   3.837   7.815   7.024  0.2754  0.2507  0.2456
  744POPS   C1B11083   4.568   8.096   6.238  0.1611  0.0267 -0.1806
  744POPS   C2B11084   4.385   8.375   6.472  0.1103  0.0835 -0.1020
  744POPS   C3B11085   3.979   8.316   6.651 -0.1982  0.3599 -0.0958
  744POPS   C4B11086   3.608   8.354   6.399 -0.3258  0.1898  0.1046
  745POPS   CNO11087   3.109  12.376   4.917  0.1698  0.3916  0.0494
  745POPS   PO411088   2.832  12.265   5.146 -0.0146  0.0568 -0.1357
  745POPS   GL111089   2.604  12.276   5.611  0.0687 -0.2338 -0.3290
  745POPS   GL211090   2.746  12.331   5.874  0.0094  0.0738  0.0474
  745POPS   C1A11091   2.151  12.096   5.824  0.0351 -0.0612  0.1390
  745POPS   D2A11092   2.011  11.779   5.966 -0.0699  0.1279 -0.0530
  745POPS   C3A11093   1.834  11.761   6.347  0.1744  0.0311 -0.3103
  745POPS   C4A11094   1.693  11.661   6.754  0.2635 -0.2347  0.0923
  745POPS   C1B11095   2.640  12.262   6.244 -0.1854  0.2036 -0.1697
  745POPS   C2B11096   2.947  12.060   6.506  0.1060 -0.0099  0.0603
  745POPS   C3B11097   3.308  11.776   6.558 -0.3907 -0.2994  0.0918
  745POPS   C4B11098   3.708  11.740   6.412 -0.1809 -0.1284 -0.1772
  746POPS   CNO11099  13.514   1.710   5.248  0.0588  0.0024 -0.1327
  746POPS   PO411100  13.729   1.528   5.507 -0.2768  0.1596  0.3099
  746POPS   GL111101  13.823   1.617   5.876 -0.0153  0.0918  0.0073
  746POPS   GL211102  13.758   1.874   5.877 -0.2379 -0.1240 -0.0905
  746POPS   C1A11103  13.928   1.686   6.331  0.1871 -0.2509 -0.2283
  746POPS   D2A11104  14.269   1.963   6.416 -0.2969 -0.0135  0.3428
  746POPS   C3A11105  14.341   1.939   6.754 -0.1569 -0.0488  0.1678
  746POPS   C4A11106  14.605   2.060   7.069 -0.0714 -0.3378 -0.1030
  746POPS   C1B11107  13.459   1.810   6.222 -0.2483  0.0249 -0.4220
  746POPS   C2B11108  13.537   1.799   6.660  0.3049  0.0686  0.3107
  746POPS   C3B11109  13.916   1.609   6.857  0.0932  0.4131  0.1099
  746POPS   C4B11110  14.290   1.660   7.285  0.1524  0.0417  0.3004
  747POPS   CNO11111   1.093   9.064   4.201 -0.1071  0.0434 -0.0600
  747POPS   PO411112   1.084   8.984   4.629 -0.1979 -0.1134 -0.1164
  747POPS   GL111113   1.123   9.187   5.039 -0.0283 -0.1367  0.0378
  747POPS   GL211114   0.981   9.369   5.288 -0.2038  0.1707 -0.0076
  747POPS   C1A11115   1.274   9.016   5.462  0.2118  0.1962 -0.4233
  747POPS   D2A11116   1.351   8.607   5.701  0.1903 -0.2686 -0.0014
  747POPS   C3A11117   1.832   8.546   5.902 -0.0522 -0.1594  0.0246
  747POPS   C4A11118   2.276   8.258   5.952 -0.0638  0.0783  0.1720
  747POPS   C1B11119   0.960   9.452   5.696 -0.2564  0.1129  0.3169
  747POPS   C2B11120   0.732   9.447   6.111 -0.2503 -0.0652  0.0118
  747POPS   C3B11121   0.534   9.483   6.438 -0.3240  0.1774  0.3814
  747POPS   C4B11122   0.279   9.348   6.808  0.0072  0.3481 -0.0007
  748POPS   CNO11123  10.775  10.875   5.892 -0.1000 -0.2173  0.1623
  748POPS   PO411124  10.765  11.147   5.635  0.1543  0.1415  0.0233
  748POPS   GL111125  10.826  11.343   6.047 -0.1800 -0.1759  0.2929
  748POPS   GL211126  11.064  11.597   6.083  0.0557  0.0619  0.0835
  748POPS   C1A11127  11.130  11.243   6.384 -0.3285  0.4499  0.1045
  748POPS   D2A11128  11.091  11.369   6.842  0.2228  0.0146 -0.2150
  748POPS   C3A11129  11.407  11.286   7.166  0.0821  0.2662  0.0694
  748POPS   C4A11130  11.855  11.044   7.405 -0.4020 -0.3557  0.1403
  748POPS   C1B11131  10.738  11.607   6.493  0.0041 -0.1845 -0.0825
  748POPS   C2B11132  10.457  11.929   6.661 -0.1601  0.2113  0.0881
  748POPS   C3B11133  10.230  12.297   6.647  0.0574  0.0837  0.2499
  748POPS   C4B11134  10.094  12.628   6.898  0.0822 -0.3585 -0.5118
  749POPS   CNO11135   8.567  18.106   5.551 -0.0109 -0.1753 -0.0098
  749POPS   PO411136   8.762  17.838   5.260 -0.0725 -0.2228  0.3937
  749POPS   GL111137   8.940  17.660   5.609  0.2731 -0.0984  0.1061
  749POPS   GL211138   9.248  17.540   5.730 -0.0194 -0.1819 -0.1978
  749POPS   C1A11139   8.892  17.565   6.087 -0.2014 -0.0045  0.0154
  749POPS   D2A11140   8.732  17.127   6.326  0.1734 -0.1950 -0.1747
  749POPS   C3A11141   8.301  16.992   6.466 -0.1673 -0.2589  0.3534
  749POPS   C4A11142   7.993  16.908   6.774 -0.0204 -0.3010  0.2747
  749POPS   C1B11143   9.196  17.997   5.860  0.0071  0.1685 -0.1254
  749POPS   C2B11144   9.099  18.321   6.116 -0.1847  0.1079  0.1357
  749POPS   C3B11145   9.000  18.404   6.502  0.0853  0.0751  0.5549
  749POPS   C4B11146   8.824  18.542   6.796  0.1308 -0.0779 -0.1245
  750POPS   CNO11147   5.258   2.875   5.006 -0.0684  0.0028 -0.0259
  750POPS   PO411148   4.872   2.552   4.970  0.0125 -0.1478 -0.0201
  750POPS   GL111149   4.986   2.672   5.400  0.0340  0.1453 -0.2155
  750POPS   GL211150   4.763   2.544   5.609 -0.1698  0.0629  0.1987
  750POPS   C1A11151   5.244   2.530   5.699  0.0519  0.0823  0.1219
  750POPS   D2A11152   5.636   2.317   5.922 -0.0042  0.1452 -0.0521
  750POPS   C3A11153   5.857   2.415   6.320  0.0011  0.1536 -0.0552
  750POPS   C4A11154   5.949   2.476   6.633  0.0810 -0.1659 -0.0909
  750POPS   C1B11155   4.435   2.602   5.820 -0.1048 -0.1259 -0.1861
  750POPS   C2B11156   4.118   2.554   6.112  0.0319  0.0626  0.0346
  750POPS   C3B11157   4.074   2.358   6.563 -0.1586 -0.0283 -0.2672
  750POPS   C4B11158   3.824   1.900   6.579 -0.0456  0.0240  0.2397
  751POPS   CNO11159   4.166  19.140   5.156 -0.3802 -0.1439  0.1922
  751POPS   PO411160   4.621  19.148   5.194 -0.0972  0.0648  0.2351
  751POPS   GL111161   4.480  19.030   5.564  0.4065 -0.2747 -0.3078
  751POPS   GL211162   4.099  19.097   5.737 -0.0755  0.1128 -0.0100
  751POPS   C1A11163   4.514  19.120   5.976 -0.1150  0.1750 -0.0912
  751POPS   D2A11164   4.589  19.315   6.387 -0.3652  0.1217 -0.0407
  751POPS   C3A11165   4.693  19.023   6.667  0.1472  0.3004 -0.0513
  751POPS   C4A11166   5.043  18.769   6.818  0.1305 -0.0866 -0.2017
  751POPS   C1B11167   3.952  19.119   6.190  0.0788 -0.2769 -0.2161
  751POPS   C2B11168   3.788  19.465   6.362  0.2314 -0.0570  0.1981
  751POPS   C3B11169   3.834  19.855   6.607 -0.0390 -0.1212 -0.0064
  751POPS   C4B11170   3.441  19.837   6.945 -0.3316  0.1770  0.0313
  752POPS   CNO11171  17.928  11.836   4.853 -0.1581 -0.1059 -0.0351
  752POPS   PO411172  18.225  11.938   5.095  0.1459  0.3922  0.0189
  752POPS   GL111173  18.141  11.931   5.549  0.1269  0.0227  0.0783
  752POPS   GL211174  18.374  11.657   5.758  0.1692 -0.0442 -0.0497
  752POPS   C1A11175  18.186  12.124   5.891  0.1569  0.0487  0.0883
  752POPS   D2A11176  18.290  11.914   6.270 -0.3038 -0.1938  0.0574
  752POPS   C3A11177  18.461  12.209   6.553 -0.1271 -0.0687  0.2616
  752POPS   C4A11178  18.495  12.667   6.682 -0.0259  0.0870  0.0464
  752POPS   C1B11179  18.722  11.988   5.825 -0.2962  0.0638 -0.0291
  752POPS   C2B11180  18.637  12.329   6.035  0.0715 -0.2488  0.1493
  752POPS   C3B11181  18.714  12.698   6.184  0.1378  0.2170  0.2708
  752POPS   C4B11182  19.129  12.893   6.146 -0.2022  0.2470 -0.0618
  753POPS   CNO11183  18.391  13.341   5.301 -0.0183  0.1224 -0.1612
  753POPS   PO411184  18.805  13.595   5.242  0.1198  0.1374 -0.0270
  753POPS   GL111185  19.020  13.411   5.595  0.2196 -0.3959 -0.0599
  753POPS   GL211186  19.237  13.617   5.498 -0.2054 -0.1760  0.0868
  753POPS   C1A11187  18.953  13.338   6.069 -0.0050 -0.1998 -0.0662
  753POPS   D2A11188  19.369  13.449   6.348  0.1237  0.3247 -0.1493
  753POPS   C3A11189  19.371  13.653   6.660  0.0492  0.2407 -0.0212
  753POPS   C4A11190  19.274  13.855   7.033  0.1720  0.2644  0.2671
  753POPS   C1B11191  18.994  13.895   5.907 -0.1496 -0.1443  0.0821
  753POPS   C2B11192  18.959  13.863   6.368 -0.2771 -0.1405  0.0200
  753POPS   C3B11193  18.907  13.510   6.704  0.0431 -0.4713  0.2400
  753POPS   C4B11194  18.824  13.071   6.539  0.0393 -0.0392  0.1463
  754POPS   CNO11195   1.310  15.910   5.004 -0.3409 -0.1653 -0.1658
  754POPS   PO411196   1.185  16.136   5.284  0.0431  0.2920 -0.1377
  754POPS   GL111197   1.114  15.916   5.628  0.4558 -0.0704  0.0175
  754POPS   GL211198   1.105  16.185   5.914 -0.1303 -0.0085 -0.1227
  754POPS   C1A11199   1.009  15.746   6.002 -0.2303  0.1491 -0.2545
  754POPS   D2A11200   1.022  15.398   6.208  0.1141  0.1485 -0.1988
  754POPS   C3A11201   1.154  15.475   6.526 -0.0756 -0.0390 -0.0811
  754POPS   C4A11202   1.229  15.441   7.025  0.0936  0.4428 -0.3624
  754POPS   C1B11203   0.820  16.145   6.265  0.0928 -0.2141  0.0551
  754POPS   C2B11204   0.800  15.900   6.642  0.4112 -0.3122 -0.0577
  754POPS   C3B11205   0.819  15.638   6.859  0.0918  0.2479  0.4114
  754POPS   C4B11206   0.787  15.371   7.297  0.4291  0.2319  0.0553
  755POPS   CNO11207  16.648  15.475   5.089  0.0052  0.2196  0.0771
  755POPS   PO411208  16.338  15.267   5.367 -0.2184  0.1687  0.0315
  755POPS   GL111209  16.607  15.142   5.724  0.1600 -0.1836  0.2269
  755POPS   GL211210  16.816  15.231   5.870 -0.0589  0.1363 -0.1891
  755POPS   C1A11211  16.429  15.153   6.208  0.1085  0.1539 -0.2769
  755POPS   D2A11212  16.407  15.185   6.684 -0.2652 -0.1279  0.1989
  755POPS   C3A11213  16.728  15.215   7.003 -0.2526  0.3494  0.0874
  755POPS   C4A11214  16.682  15.037   7.464  0.0802  0.0142 -0.0171
  755POPS   C1B11215  17.177  15.234   6.214  0.0354 -0.0474  0.0989
  755POPS   C2B11216  17.364  14.873   6.544  0.1516 -0.3946  0.0963
  755POPS   C3B11217  17.495  14.641   6.894  0.2355 -0.0102  0.0858
  755POPS   C4B11218  17.410  14.444   7.227  0.3339 -0.1992  0.2597
  756POPS   CNO11219   8.218   5.513   5.170  0.0870 -0.1116 -0.5570
  756POPS   PO411220   8.010   5.662   5.544 -0.0030 -0.1590 -0.0676
  756POPS   GL111221   7.765   5.786   5.947  0.1286 -0.0336 -0.0876
  756POPS   GL211222   7.797   6.197   5.865 -0.1099  0.2756 -0.1911
  756POPS   C1A11223   7.801   5.598   6.331  0.1945  0.1241 -0.0925
  756POPS   D2A11224   7.499   5.245   6.498 -0.3823  0.0757 -0.2320
  756POPS   C3A11225   7.569   5.165   6.817 -0.1935 -0.1775 -0.0594
  756POPS   C4A11226   7.621   5.288   7.275 -0.0534  0.1102  0.0668
  756POPS   C1B11227   7.521   6.095   6.289  0.0397 -0.3970  0.1641
  756POPS   C2B11228   7.481   5.803   6.654  0.0529 -0.0709 -0.1622
  756POPS   C3B11229   7.854   5.651   6.938 -0.0724 -0.1541  0.2202
  756POPS   C4B11230   8.345   5.831   7.029  0.0949  0.0709 -0.1665
  757POPS   CNO11231  10.516   8.249   5.688 -0.0315  0.0043  0.3158
  757POPS   PO411232  10.191   8.630   5.514 -0.0539 -0.0282 -0.0232
  757POPS   GL111233  10.432   8.737   5.926 -0.3426 -0.2480 -0.2168
  757POPS   GL211234  10.656   9.059   6.096  0.1001 -0.0257 -0.2657
  757POPS   C1A11235  10.367   8.681   6.351 -0.2420 -0.1498  0.1438
  757POPS   D2A11236  10.313   8.606   6.825  0.2271  0.4625 -0.1070
  757POPS   C3A11237  10.459   8.721   7.225  0.1932 -0.0469 -0.2420
  757POPS   C4A11238  10.531   8.773   7.641 -0.3412  0.0773  0.0406
  757POPS   C1B11239  10.623   9.038   6.586 -0.4334  0.1652 -0.0280
  757POPS   C2B11240  10.557   9.149   6.955  0.0192 -0.1779  0.2848
  757POPS   C3B11241  10.769   9.193   7.368  0.1263 -0.0158 -0.0552
  757POPS   C4B11242  10.909   9.508   7.656  0.0914 -0.1049 -0.1375
  758POPS   CNO11243   6.361  17.793   5.281 -0.0472  0.0038  0.1256
  758POPS   PO411244   6.149  17.929   5.616 -0.0942 -0.0071 -0.2064
  758POPS   GL111245   5.763  17.925   5.915  0.3496  0.2278 -0.0860
  758POPS   GL211246   5.774  17.641   6.099 -0.1953  0.1934 -0.1493
  758POPS   C1A11247   5.649  18.066   6.317  0.0449  0.3710 -0.1327
  758POPS   D2A11248   5.586  18.080   6.801 -0.0276  0.0978 -0.1606
  758POPS   C3A11249   5.998  18.045   7.079  0.1950 -0.1818 -0.3112
  758POPS   C4A11250   6.150  18.327   7.555 -0.2233 -0.0488  0.0662
  758POPS   C1B11251   5.754  17.510   6.494 -0.0203  0.2493 -0.0570
  758POPS   C2B11252   5.785  17.578   6.918 -0.1656  0.0803 -0.4191
  758POPS   C3B11253   5.615  17.808   7.305  0.0684  0.1353  0.1007
  758POPS   C4B11254   5.661  18.275   7.461 -0.1152  0.2957 -0.1875
  759POPS   CNO11255  13.667   4.730   5.098  0.3856  0.0801  0.2119
  759POPS   PO411256  13.722   4.919   5.451 -0.0772 -0.0295 -0.0410
  759POPS   GL111257  13.693   4.809   5.796  0.0450  0.1099  0.2023
  759POPS   GL211258  13.945   4.585   5.877 -0.1363 -0.0626  0.0818
  759POPS   C1A11259  13.546   4.871   6.163  0.1280  0.2875 -0.1611
  759POPS   D2A11260  13.333   4.605   6.462  0.0501 -0.2211 -0.0195
  759POPS   C3A11261  13.557   4.610   6.862  0.2109 -0.2342 -0.1828
  759POPS   C4A11262  13.784   4.735   7.201  0.1386 -0.2149 -0.2823
  759POPS   C1B11263  14.033   4.785   6.323  0.3005  0.0471 -0.1920
  759POPS   C2B11264  13.878   5.191   6.490 -0.2797  0.1066  0.1261
  759POPS   C3B11265  14.166   5.506   6.795  0.1668  0.3590  0.0371
  759POPS   C4B11266  14.178   5.648   7.222 -0.1175 -0.3157 -0.1143
  760POPS   CNO11267  14.189  17.876   5.493 -0.0718  0.0098  0.0063
  760POPS   PO411268  14.563  17.899   5.241  0.1366  0.1168 -0.2211
  760POPS   GL111269  14.709  17.738   5.724 -0.0162  0.3287  0.2324
  760POPS   GL211270  14.944  17.380   5.703  0.1278  0.2495 -0.1621
  760POPS   C1A11271  14.520  17.627   6.135  0.0780  0.0743  0.0920
  760POPS   D2A11272  14.389  17.593   6.603  0.0529 -0.2733 -0.0777
  760POPS   C3A11273  14.041  17.356   6.351 -0.1749 -0.1150 -0.2228
  760POPS   C4A11274  14.143  17.357   5.890 -0.0444  0.1148 -0.2105
  760POPS   C1B11275  14.941  17.240   6.161  0.1115  0.0756  0.0004
  760POPS   C2B11276  14.597  17.181   6.462  0.2722 -0.0860  0.1390
  760POPS   C3B11277  14.545  17.059   6.826  0.0523  0.2515 -0.2453
  760POPS   C4B11278  14.355  17.191   7.238 -0.3817 -0.1005  0.1180
  761POPS   CNO11279   9.019  17.353   5.254 -0.0366 -0.1400  0.0049
  761POPS   PO411280   9.569  17.343   5.290 -0.4242  0.1188 -0.3180
  761POPS   GL111281   9.708  17.290   5.767  0.0241 -0.0480  0.2260
  761POPS   GL211282  10.054  17.364   5.774 -0.1924 -0.1550  0.1446
  761POPS   C1A11283   9.769  17.416   6.148 -0.1151 -0.5589 -0.2328
  761POPS   D2A11284   9.575  17.446   6.647  0.1149  0.3018  0.2231
  761POPS   C3A11285   9.564  17.697   6.910  0.2271 -0.1519  0.0142
  761POPS   C4A11286   9.125  17.772   6.942  0.1407  0.3200  0.1381
  761POPS   C1B11287  10.328  17.705   5.853 -0.0736  0.1101 -0.2422
  761POPS   C2B11288  10.850  17.885   6.046 -0.0614 -0.2373 -0.2594
  761POPS   C3B11289  11.156  17.944   6.269 -0.0449  0.1363  0.0493
  761POPS   C4B11290  11.461  17.937   6.631  0.0769 -0.1656  0.2212
  762POPS   CNO11291   0.892   1.031   5.432 -0.0750  0.2351  0.3314
  762POPS   PO411292   0.490   0.867   5.271 -0.3150 -0.1031  0.0033
  762POPS   GL111293   0.471   0.694   5.687 -0.3241  0.1543  0.2137
  762POPS   GL211294   0.554   0.995   5.808 -0.1191  0.2011  0.1369
  762POPS   C1A11295   0.598   0.369   6.047  0.0562 -0.0038  0.1052
  762POPS   D2A11296   0.951   0.353   6.249 -0.0746  0.2888  0.1284
  762POPS   C3A11297   0.935   0.361   6.653 -0.1181  0.0486 -0.0751
  762POPS   C4A11298   0.720   0.291   7.169 -0.0778 -0.2750  0.2282
  762POPS   C1B11299   0.753   1.399   5.966  0.0930  0.1782  0.0463
  762POPS   C2B11300   0.855   1.801   6.223 -0.2510 -0.0694 -0.3293
  762POPS   C3B11301   0.763   1.927   6.617  0.0965  0.1695 -0.2098
  762POPS   C4B11302   0.707   2.210   6.829  0.0667 -0.3094 -0.1011
  763POPS   CNO11303   6.137   3.546   4.959  0.0347  0.4586 -0.2402
  763POPS   PO411304   6.233   3.781   5.246 -0.2130 -0.3126  0.2087
  763POPS   GL111305   6.103   3.611   5.515 -0.0867 -0.1046 -0.1090
  763POPS   GL211306   6.185   3.352   5.783  0.3501  0.1656  0.2200
  763POPS   C1A11307   5.860   3.676   5.936  0.2836  0.0409  0.4463
  763POPS   D2A11308   5.475   3.591   6.142 -0.0083  0.0220 -0.0283
  763POPS   C3A11309   5.506   3.417   6.546 -0.1238 -0.0252  0.1893
  763POPS   C4A11310   5.430   3.521   6.946 -0.2098 -0.0835 -0.3963
  763POPS   C1B11311   5.930   3.351   6.323  0.2739  0.0240 -0.3025
  763POPS   C2B11312   5.961   3.350   6.746 -0.0106 -0.1823 -0.3260
  763POPS   C3B11313   5.911   2.931   6.948 -0.2437  0.0297  0.1186
  763POPS   C4B11314   5.724   2.534   7.170  0.1451 -0.1639  0.0302
  764POPS   CNO11315   9.108   1.135   5.169  0.1818  0.1939 -0.0049
  764POPS   PO411316   9.251   0.821   5.402 -0.0562 -0.2245 -0.0608
  764POPS   GL111317   9.610   0.910   5.745  0.0338 -0.0797 -0.0679
  764POPS   GL211318   9.882   1.130   5.535  0.0201 -0.1084  0.1761
  764POPS   C1A11319   9.794   0.620   6.074 -0.2270 -0.0005  0.0370
  764POPS   D2A11320   9.813   0.381   6.504  0.0194  0.1527  0.0756
  764POPS   C3A11321   9.834  -0.059   6.464  0.2145  0.1447  0.0297
  764POPS   C4A11322   9.798  -0.541   6.318 -0.2151  0.1479 -0.2484
  764POPS   C1B11323   9.615   1.406   5.865  0.1636 -0.3223  0.1260
  764POPS   C2B11324   9.772   1.623   6.303  0.0499 -0.1728  0.3417
  764POPS   C3B11325   9.837   1.593   6.739  0.1273 -0.2418 -0.2368
  764POPS   C4B11326   9.857   1.651   7.260  0.1820  0.3500  0.1407
  765POPS   CNO11327  10.419  16.387   5.772  0.1459  0.0346  0.2083
  765POPS   PO411328  10.444  16.048   5.906 -0.2418 -0.3479  0.2020
  765POPS   GL111329  10.548  16.112   6.257  0.2688 -0.1462  0.4509
  765POPS   GL211330  10.559  15.788   6.349 -0.0879 -0.3607  0.1074
  765POPS   C1A11331  10.705  16.235   6.700 -0.0576 -0.0878  0.3257
  765POPS   D2A11332  10.816  15.982   7.006  0.0111  0.2472 -0.1712
  765POPS   C3A11333  10.587  15.541   7.091 -0.1071  0.0831 -0.0711
  765POPS   C4A11334  10.336  15.347   6.955  0.0814  0.0688  0.2042
  765POPS   C1B11335  10.684  15.444   6.590 -0.2058 -0.0347 -0.1935
  765POPS   C2B11336  10.800  14.997   6.854  0.0124 -0.0483  0.0341
  765POPS   C3B11337  10.879  14.744   7.199 -0.2232 -0.2779 -0.2543
  765POPS   C4B11338  10.799  14.424   7.453  0.1722  0.1911  0.0962
  766POPS   CNO11339   0.833   5.602   5.476  0.3108 -0.1246 -0.0117
  766POPS   PO411340   1.174   5.942   5.556  0.0446  0.4588  0.0480
  766POPS   GL111341   1.238   5.711   5.943  0.0371 -0.4450  0.0892
  766POPS   GL211342   1.150   5.353   5.923 -0.1170 -0.1392 -0.1623
  766POPS   C1A11343   1.198   5.642   6.438  0.0454 -0.2009  0.0822
  766POPS   D2A11344   0.955   5.327   6.759  0.0812  0.1921 -0.1062
  766POPS   C3A11345   0.494   5.420   6.882  0.1839  0.1608 -0.2970
  766POPS   C4A11346   0.226   5.114   6.763  0.0471  0.2052 -0.1620
  766POPS   C1B11347   1.195   5.097   6.362  0.0801 -0.0542  0.3205
  766POPS   C2B11348   1.177   4.845   6.736 -0.0623 -0.0137  0.2531
  766POPS   C3B11349   1.141   4.505   7.010  0.0402  0.0566  0.0864
  766POPS   C4B11350   0.886   4.135   7.078 -0.3824 -0.2870  0.0214
  767POPS   CNO11351  15.389   6.477   4.832 -0.1349 -0.0033 -0.1037
  767POPS   PO411352  15.387   6.627   5.273 -0.5558  0.2673  0.0115
  767POPS   GL111353  15.450   6.673   5.670 -0.1036 -0.2546  0.2693
  767POPS   GL211354  15.691   6.906   5.661  0.2231  0.0505 -0.1935
  767POPS   C1A11355  15.159   6.769   6.086  0.1148 -0.0049  0.0976
  767POPS   D2A11356  14.989   6.647   6.475  0.0018  0.0621  0.0714
  767POPS   C3A11357  14.925   6.673   6.846  0.1285  0.0087  0.1494
  767POPS   C4A11358  15.101   6.813   7.195  0.1846 -0.0851  0.0818
  767POPS   C1B11359  15.555   7.109   5.928 -0.1190 -0.1182  0.0905
  767POPS   C2B11360  15.430   7.477   6.146 -0.0762 -0.0688  0.0681
  767POPS   C3B11361  15.104   7.754   6.091 -0.1364 -0.2246 -0.1870
  767POPS   C4B11362  14.933   8.091   5.815 -0.0712 -0.1666  0.1285
  768POPS   CNO11363   1.445  10.814   4.879  0.1141 -0.0340  0.0707
  768POPS   PO411364   1.445  11.218   4.920 -0.0266  0.2020  0.0819
  768POPS   GL111365   1.535  11.446   5.407 -0.1235 -0.0114 -0.2335
  768POPS   GL211366   1.369  11.743   5.483 -0.3214  0.2246 -0.0025
  768POPS   C1A11367   1.726  11.341   5.767 -0.0351  0.3487  0.1854
  768POPS   D2A11368   1.708  11.289   6.183  0.2660 -0.3745  0.1865
  768POPS   C3A11369   1.424  11.238   6.462  0.0782  0.0456 -0.1470
  768POPS   C4A11370   0.961  11.340   6.571 -0.2331 -0.4145 -0.0087
  768POPS   C1B11371   1.528  12.072   5.685  0.0918 -0.0872  0.0780
  768POPS   C2B11372   1.659  12.278   6.005  0.0619  0.1554 -0.0762
  768POPS   C3B11373   1.366  12.272   6.421  0.2642  0.1947  0.1233
  768POPS   C4B11374   1.424  12.313   6.898  0.2367  0.1971  0.0608
  769POPS   CNO11375   7.142   6.952   5.521 -0.0715 -0.1913  0.0401
  769POPS   PO411376   6.769   6.727   5.665 -0.4077  0.1944 -0.1802
  769POPS   GL111377   6.728   6.679   6.089  0.0099  0.1403  0.2699
  769POPS   GL211378   6.876   6.737   6.278 -0.1462  0.1281  0.1264
  769POPS   C1A11379   6.424   6.987   6.220 -0.1312 -0.2690  0.0321
  769POPS   D2A11380   6.065   6.922   6.524 -0.1247  0.1527 -0.1358
  769POPS   C3A11381   6.224   6.728   6.934  0.2109 -0.2451  0.1885
  769POPS   C4A11382   6.296   6.364   7.229 -0.0155  0.1215 -0.1690
  769POPS   C1B11383   6.547   6.594   6.526 -0.3307  0.0174 -0.2025
  769POPS   C2B11384   6.421   6.295   6.723 -0.3638  0.1542  0.2388
  769POPS   C3B11385   6.084   5.950   6.653  0.0419  0.1810 -0.2106
  769POPS   C4B11386   5.841   5.699   6.966 -0.2445 -0.0042  0.2784
  770POPS   CNO11387  10.144   1.387   4.728 -0.0378 -0.0993  0.0970
  770POPS   PO411388  10.436   1.236   5.059  0.1091  0.0356 -0.1220
  770POPS   GL111389  10.326   1.305   5.545 -0.2994 -0.0247  0.0624
  770POPS   GL211390  10.601   1.335   5.752  0.1040 -0.0055 -0.0494
  770POPS   C1A11391  10.184   1.468   5.951 -0.0638  0.1171 -0.2084
  770POPS   D2A11392  10.512   1.545   6.284 -0.0171 -0.1099 -0.0016
  770POPS   C3A11393  10.450   1.791   6.516  0.2656 -0.2440 -0.0470
  770POPS   C4A11394  10.309   1.888   6.972  0.0824 -0.0245  0.1478
  770POPS   C1B11395  10.812   0.918   5.857 -0.0395  0.1623 -0.1408
  770POPS   C2B11396  10.994   0.619   6.043  0.1386  0.2091  0.3521
  770POPS   C3B11397  11.267   0.393   6.323 -0.0047  0.1448  0.0198
  770POPS   C4B11398  11.718   0.465   6.526  0.0359  0.2701 -0.2351
  771POPS   CNO11399   8.659  10.996   5.570  0.3064  0.0580 -0.2378
  771POPS   PO411400   8.898  10.703   5.627  0.1174 -0.0869 -0.2680
  771POPS   GL111401   9.066  10.903   5.985  0.0535 -0.1106 -0.2178
  771POPS   GL211402   8.830  11.245   6.010  0.0051  0.3059  0.0127
  771POPS   C1A11403   9.109  10.970   6.434 -0.1299  0.1078  0.1278
  771POPS   D2A11404   9.133  11.167   6.930 -0.0257 -0.0996 -0.0869
  771POPS   C3A11405   9.436  10.985   7.171 -0.1488  0.0163  0.0931
  771POPS   C4A11406   9.523  10.703   7.466  0.2391 -0.2528 -0.0507
  771POPS   C1B11407   8.623  11.021   6.350  0.0280 -0.0240  0.3366
  771POPS   C2B11408   8.442  10.635   6.410 -0.0049 -0.0087  0.5149
  771POPS   C3B11409   8.510  10.290   6.711 -0.0611 -0.1597 -0.0411
  771POPS   C4B11410   8.930  10.056   6.836  0.0160 -0.0349 -0.0112
  772POPS   CNO11411   3.608   2.658   5.074 -0.1402 -0.0455  0.0146
  772POPS   PO411412   3.481   2.864   5.345 -0.1242 -0.0053  0.0161
  772POPS   GL111413   3.675   2.597   5.836 -0.1434 -0.1548 -0.0577
  772POPS   GL211414   3.764   2.166   5.747 -0.0526 -0.3760 -0.0040
  772POPS   C1A11415   3.735   2.321   6.233 -0.0813  0.0283  0.1696
  772POPS   D2A11416   3.569   2.280   6.726 -0.0566 -0.2052  0.1887
  772POPS   C3A11417   3.418   2.582   6.900  0.1100 -0.0146 -0.0861
  772POPS   C4A11418   3.513   2.905   7.163 -0.2567 -0.1797 -0.2619
  772POPS   C1B11419   3.547   1.848   6.091 -0.5516 -0.3725 -0.1012
  772POPS   C2B11420   3.363   1.593   6.379  0.1256  0.0932 -0.0930
  772POPS   C3B11421   3.022   1.332   6.565 -0.0533  0.3160 -0.0105
  772POPS   C4B11422   2.619   1.409   6.793  0.1938 -0.2839 -0.0618
  773POPS   CNO11423   3.740  16.235   5.329 -0.0665  0.1007  0.0094
  773POPS   PO411424   3.990  16.351   5.621 -0.2084  0.0222  0.1326
  773POPS   GL111425   3.633  16.424   5.837  0.1159 -0.0453 -0.1892
  773POPS   GL211426   3.656  16.435   6.207 -0.0343  0.4415  0.2139
  773POPS   C1A11427   3.502  16.863   5.919  0.2680  0.3006 -0.1245
  773POPS   D2A11428   3.067  17.057   6.047 -0.2152 -0.1064  0.3342
  773POPS   C3A11429   2.828  17.462   6.154  0.0811  0.0278 -0.1856
  773POPS   C4A11430   2.577  17.836   5.837 -0.1169 -0.1293 -0.0638
  773POPS   C1B11431   3.354  16.343   6.494  0.0346  0.1113  0.3989
  773POPS   C2B11432   3.011  16.455   6.772 -0.1115  0.0370 -0.4074
  773POPS   C3B11433   2.708  16.756   6.906 -0.1873  0.0879 -0.0169
  773POPS   C4B11434   2.435  16.748   7.342  0.0750  0.0069 -0.0025
  774POPS   CNO11435   1.155  13.116   5.379 -0.0976 -0.1168  0.0170
  774POPS   PO411436   0.728  13.032   5.372 -0.1389 -0.1036 -0.3631
  774POPS   GL111437   0.908  12.692   5.684 -0.0233 -0.1347  0.3226
  774POPS   GL211438   1.093  12.801   5.944 -0.1283 -0.0188 -0.0547
  774POPS   C1A11439   0.632  12.793   6.101 -0.1407  0.2159 -0.2720
  774POPS   D2A11440   0.638  12.598   6.534 -0.2059  0.3535 -0.1206
  774POPS   C3A11441   0.371  12.570   6.873  0.0194  0.0047  0.0358
  774POPS   C4A11442   0.122  12.577   7.263 -0.3327  0.2247  0.3814
  774POPS   C1B11443   1.094  12.888   6.527 -0.1493  0.1957  0.3134
  774POPS   C2B11444   1.364  12.928   6.914  0.2402 -0.1012 -0.1201
  774POPS   C3B11445   1.691  13.118   7.294 -0.0233 -0.0942  0.0197
  774POPS   C4B11446   1.947  13.430   7.536 -0.0825 -0.0867 -0.2499
  775POPS   CNO11447  15.295  13.511   4.880  0.1569  0.0811  0.3327
  775POPS   PO411448  15.377  13.262   5.233  0.4498  0.4016  0.0342
  775POPS   GL111449  15.379  13.188   5.601  0.1143 -0.1115 -0.1853
  775POPS   GL211450  15.088  13.183   5.691  0.1475 -0.1448  0.2699
  775POPS   C1A11451  15.467  13.030   6.022  0.0924 -0.0908  0.2269
  775POPS   D2A11452  15.302  12.784   6.345 -0.0684  0.0710 -0.3385
  775POPS   C3A11453  15.528  12.476   6.711 -0.3724 -0.1535  0.1810
  775POPS   C4A11454  16.059  12.540   6.706 -0.1005 -0.0710  0.0914
  775POPS   C1B11455  14.947  13.114   6.094  0.1101  0.2342 -0.0879
  775POPS   C2B11456  14.727  12.870   6.431  0.3225 -0.1296 -0.0033
  775POPS   C3B11457  14.648  12.915   6.830 -0.2728 -0.1575  0.0845
  775POPS   C4B11458  14.678  13.149   7.104  0.0431 -0.0624 -0.2243
  776POPS   CNO11459   3.693  15.167   5.107 -0.0498  0.1127 -0.1299
  776POPS   PO411460   3.461  14.792   5.260 -0.0362 -0.0409  0.1794
  776POPS   GL111461   3.676  14.736   5.646 -0.1041 -0.0275 -0.3517
  776POPS   GL211462   3.963  14.491   5.733 -0.2023 -0.0260  0.0109
  776POPS   C1A11463   3.759  14.802   6.045  0.2342  0.1354 -0.1038
  776POPS   D2A11464   4.069  14.847   6.322 -0.0316 -0.3692  0.1032
  776POPS   C3A11465   3.900  14.597   6.577  0.0707 -0.0926 -0.2066
  776POPS   C4A11466   3.592  14.453   6.908 -0.0342  0.8271 -0.1084
  776POPS   C1B11467   4.068  14.363   6.157  0.0835  0.1128 -0.1715
  776POPS   C2B11468   4.068  14.124   6.507  0.1034 -0.1499  0.5483
  776POPS   C3B11469   4.198  14.007   6.823  0.1105 -0.0646 -0.0535
  776POPS   C4B11470   4.369  14.026   7.270 -0.0890 -0.0856 -0.0970
  777POPS   CNO11471  11.467  17.601   5.284 -0.2369 -0.3180 -0.0217
  777POPS   PO411472  11.774  17.288   5.008  0.1715 -0.3061  0.1102
  777POPS   GL111473  11.940  17.327   5.346  0.3047  0.2006 -0.2341
  777POPS   GL211474  12.108  17.093   5.477 -0.3388  0.3500 -0.0048
  777POPS   C1A11475  12.142  17.589   5.739  0.0857  0.1239  0.1257
  777POPS   D2A11476  12.149  17.437   6.116  0.0958  0.1172 -0.2163
  777POPS   C3A11477  12.109  17.087   6.414  0.1683 -0.4265 -0.1127
  777POPS   C4A11478  11.896  16.748   6.311 -0.1131 -0.0606  0.2389
  777POPS   C1B11479  11.983  17.021   5.912 -0.1230 -0.0637 -0.4031
  777POPS   C2B11480  11.615  17.176   6.186  0.1207 -0.3689  0.2996
  777POPS   C3B11481  11.374  16.917   6.557 -0.0198  0.0413 -0.1281
  777POPS   C4B11482  10.999  16.898   6.720 -0.1043  0.0189 -0.1935
  778POPS   CNO11483  17.878   5.898   5.126 -0.3209 -0.2566 -0.0472
  778POPS   PO411484  18.242   5.829   4.932  0.2739 -0.1540 -0.1716
  778POPS   GL111485  18.202   5.682   5.414 -0.0773 -0.0045  0.2370
  778POPS   GL211486  18.578   5.593   5.580  0.0738  0.4072 -0.1773
  778POPS   C1A11487  18.084   5.716   5.777 -0.0731  0.1209 -0.0427
  778POPS   D2A11488  17.958   5.852   6.135 -0.1672 -0.0658 -0.0415
  778POPS   C3A11489  17.800   6.173   6.061  0.0240  0.0337  0.4149
  778POPS   C4A11490  17.921   6.558   5.908  0.0975 -0.0747  0.0746
  778POPS   C1B11491  18.604   5.421   5.938 -0.1872  0.2410 -0.2236
  778POPS   C2B11492  18.724   5.418   6.396 -0.2294 -0.0435  0.2698
  778POPS   C3B11493  18.703   5.268   6.789  0.0567  0.3519 -0.0066
  778POPS   C4B11494  18.826   5.322   7.229  0.1632 -0.0883  0.4190
  779POPS   CNO11495  13.463  18.833   4.810 -0.2946 -0.0698  0.0090
  779POPS   PO411496  13.219  18.996   5.238  0.1145 -0.1473  0.0364
  779POPS   GL111497  13.432  19.154   5.570  0.1352  0.0920 -0.1286
  779POPS   GL211498  13.792  19.106   5.668 -0.1341  0.1570  0.0960
  779POPS   C1A11499  13.322  19.052   6.058 -0.2545  0.0148 -0.1951
  779POPS   D2A11500  13.319  19.032   6.495  0.5980  0.0054  0.2078
  779POPS   C3A11501  13.336  18.704   6.780  0.0685  0.0662  0.1465
  779POPS   C4A11502  13.344  18.698   7.218 -0.1722  0.0608  0.1004
  779POPS   C1B11503  13.763  19.065   6.168 -0.1870 -0.0663 -0.0776
  779POPS   C2B11504  13.666  18.694   6.398  0.1582 -0.3779 -0.4227
  779POPS   C3B11505  13.832  18.556   6.852 -0.0721 -0.0760 -0.1783
  779POPS   C4B11506  13.809  18.415   7.245 -0.1375  0.1618 -0.1302
  780POPS   CNO11507  11.059   0.616   5.530  0.0382  0.2955 -0.0151
  780POPS   PO411508  10.774   0.295   5.420 -0.1516  0.2945  0.0531
  780POPS   GL111509  10.540   0.454   5.690  0.1665  0.2255 -0.1070
  780POPS   GL211510  10.253   0.682   5.571  0.0469 -0.1381 -0.2800
  780POPS   C1A11511  10.273   0.446   6.052 -0.2309 -0.0178  0.0291
  780POPS   D2A11512  10.249   0.674   6.400  0.2399  0.0587  0.0593
  780POPS   C3A11513  10.458   1.030   6.458  0.0084  0.1086  0.1242
  780POPS   C4A11514  10.799   1.138   6.342 -0.1441  0.3025  0.2278
  780POPS   C1B11515  10.258   0.939   5.947 -0.0606  0.1500  0.1230
  780POPS   C2B11516   9.914   1.092   6.120  0.0544 -0.4528 -0.1340
  780POPS   C3B11517   9.801   0.897   6.548  0.1092  0.3885 -0.1692
  780POPS   C4B11518   9.421   0.720   6.818 -0.1603  0.1950  0.0423
  781POPS   CNO11519   5.625  11.840   5.283 -0.2265  0.1752 -0.0863
  781POPS   PO411520   5.999  11.699   5.666  0.0603  0.0408  0.3857
  781POPS   GL111521   5.731  11.530   5.960  0.4079 -0.1279 -0.2303
  781POPS   GL211522   6.010  11.582   6.144  0.0378  0.1148 -0.3345
  781POPS   C1A11523   5.574  11.116   5.965  0.1394 -0.2716  0.0403
  781POPS   D2A11524   5.531  10.725   6.174  0.1174 -0.0270 -0.2668
  781POPS   C3A11525   5.387  10.422   6.296  0.1106 -0.0725 -0.0851
  781POPS   C4A11526   5.002  10.393   6.555  0.2019 -0.2351  0.2538
  781POPS   C1B11527   5.794  11.280   6.369  0.1165 -0.3454 -0.2752
  781POPS   C2B11528   5.275  11.367   6.534 -0.2267 -0.0683  0.0163
  781POPS   C3B11529   4.964  11.392   6.763 -0.1024  0.1402  0.1708
  781POPS   C4B11530   4.616  11.707   6.757 -0.4645 -0.2564 -0.0625
  782POPS   CNO11531   0.533  11.778   5.300 -0.4516  0.1293  0.2798
  782POPS   PO411532   0.120  11.920   5.306 -0.0808 -0.1782 -0.0138
  782POPS   GL111533   0.208  11.978   5.685  0.0567  0.3094 -0.2775
  782POPS   GL211534   0.498  12.148   5.593  0.3233 -0.3394 -0.4261
  782POPS   C1A11535  -0.072  11.782   6.120  0.3756  0.2709 -0.0531
  782POPS   D2A11536  -0.345  11.713   6.393  0.0063  0.3183  0.1485
  782POPS   C3A11537  -0.184  12.009   6.803  0.1552 -0.0903 -0.2044
  782POPS   C4A11538  -0.262  12.312   6.988 -0.2333 -0.1627  0.1795
  782POPS   C1B11539   0.547  12.229   6.067 -0.1658  0.1528  0.0793
  782POPS   C2B11540   0.323  12.229   6.399  0.0016 -0.0025 -0.0878
  782POPS   C3B11541   0.284  12.083   6.838 -0.2897 -0.3360 -0.1092
  782POPS   C4B11542   0.619  12.223   7.247  0.0455 -0.0068  0.0501
  783POPS   CNO11543  17.302   4.225   5.587 -0.3015 -0.1333 -0.0617
  783POPS   PO411544  17.622   4.465   5.509 -0.1118 -0.0199 -0.1559
  783POPS   GL111545  17.609   4.593   5.992 -0.0437  0.1677 -0.1218
  783POPS   GL211546  17.510   4.900   6.112 -0.0523 -0.0781 -0.0352
  783POPS   C1A11547  17.420   4.462   6.410 -0.1847 -0.0905 -0.0639
  783POPS   D2A11548  17.131   4.399   6.772 -0.3113  0.1859 -0.0497
  783POPS   C3A11549  17.269   4.047   7.076  0.0448 -0.4412 -0.0338
  783POPS   C4A11550  16.946   3.823   7.326  0.0087 -0.2214  0.1758
  783POPS   C1B11551  17.735   4.840   6.577  0.2362  0.1516 -0.2945
  783POPS   C2B11552  17.908   4.920   6.967  0.2568  0.1558  0.0044
  783POPS   C3B11553  18.270   5.084   7.010 -0.1789 -0.1739 -0.1954
  783POPS   C4B11554  18.367   5.357   7.362  0.0716  0.0460  0.0256
  784POPS   CNO11555   9.691  10.224   5.759 -0.3286  0.0488  0.0061
  784POPS   PO411556  10.054  10.148   5.655  0.0671  0.1427 -0.1125
  784POPS   GL111557   9.934  10.370   6.156 -0.1283  0.1085 -0.1108
  784POPS   GL211558   9.718  10.631   6.234 -0.0405  0.0189  0.2730
  784POPS   C1A11559  10.183  10.461   6.525  0.2705 -0.0935  0.1243
  784POPS   D2A11560  10.244  10.609   6.960 -0.0833 -0.0997 -0.0713
  784POPS   C3A11561  10.452  10.415   7.371  0.2197  0.0583  0.2183
  784POPS   C4A11562  10.730  10.219   7.651 -0.2041 -0.3533  0.3817
  784POPS   C1B11563   9.479  10.713   6.573 -0.0321 -0.0648  0.0582
  784POPS   C2B11564   9.265  10.493   6.871 -0.2369 -0.4562  0.3686
  784POPS   C3B11565   9.183  10.314   7.275  0.0016  0.3306 -0.2166
  784POPS   C4B11566   9.256  10.125   7.607  0.0066 -0.1355  0.0259
  785POPS   CNO11567   1.468   2.241   5.359 -0.1816 -0.2170  0.0263
  785POPS   PO411568   1.036   2.388   5.244 -0.0159  0.2114  0.0013
  785POPS   GL111569   1.010   2.098   5.678  0.0510  0.1953 -0.0075
  785POPS   GL211570   1.199   1.912   5.820  0.0644  0.1359  0.1086
  785POPS   C1A11571   0.792   2.264   5.992  0.1059 -0.2542  0.1406
  785POPS   D2A11572   0.952   2.352   6.422  0.1988  0.4405 -0.1654
  785POPS   C3A11573   1.204   2.275   6.708 -0.1811  0.1688  0.1393
  785POPS   C4A11574   1.132   2.210   7.120  0.1723  0.1633 -0.1423
  785POPS   C1B11575   1.400   1.864   6.263 -0.0149 -0.1216 -0.2379
  785POPS   C2B11576   1.267   1.735   6.716  0.0013  0.0172 -0.0942
  785POPS   C3B11577   1.282   1.763   7.154  0.3493  0.1876  0.2053
  785POPS   C4B11578   1.447   1.520   7.523  0.0183 -0.0299 -0.0276
  786POPS   CNO11579   6.996   3.268   4.844 -0.1184 -0.0389  0.2139
  786POPS   PO411580   6.936   3.322   5.328 -0.2266  0.0546 -0.1414
  786POPS   GL111581   6.989   3.387   5.834 -0.0451 -0.0097  0.1199
  786POPS   GL211582   7.264   3.341   5.916  0.1238  0.1234  0.0354
  786POPS   C1A11583   7.050   3.407   6.348 -0.0044 -0.2559 -0.0612
  786POPS   D2A11584   6.790   3.475   6.707 -0.1989  0.4730 -0.2339
  786POPS   C3A11585   6.732   3.413   7.171 -0.2650  0.0810  0.2489
  786POPS   C4A11586   6.679   3.608   7.621  0.4703 -0.1602 -0.2250
  786POPS   C1B11587   7.474   3.225   6.322  0.0724 -0.3213  0.3313
  786POPS   C2B11588   7.639   3.101   6.738  0.4583 -0.0409 -0.0834
  786POPS   C3B11589   7.774   3.014   7.100  0.2485  0.1978 -0.1857
  786POPS   C4B11590   7.833   2.918   7.560 -0.3427 -0.0314 -0.0489
  787POPS   CNO11591   4.592   4.475   4.833 -0.2002  0.2379  0.3892
  787POPS   PO411592   4.568   4.627   5.238  0.1236 -0.0207 -0.0915
  787POPS   GL111593   4.578   4.733   5.723 -0.4510 -0.3070  0.0566
  787POPS   GL211594   4.539   4.577   5.820  0.1800  0.1843 -0.0416
  787POPS   C1A11595   4.634   4.798   6.229 -0.0033  0.3409  0.3557
  787POPS   D2A11596   4.566   4.709   6.648 -0.1689  0.0259  0.1579
  787POPS   C3A11597   4.561   4.284   6.819  0.2888 -0.2206  0.0936
  787POPS   C4A11598   4.219   4.191   7.035 -0.2781 -0.3489 -0.1960
  787POPS   C1B11599   4.167   4.638   6.101 -0.0843 -0.1750 -0.1099
  787POPS   C2B11600   4.083   4.742   6.589  0.1415 -0.2999 -0.0672
  787POPS   C3B11601   4.031   5.083   6.889 -0.0737  0.0296  0.2410
  787POPS   C4B11602   4.029   5.105   7.275 -0.1982  0.2044 -0.2507
  788POPS   CNO11603  15.261   9.313   4.894  0.2833 -0.1615 -0.1224
  788POPS   PO411604  15.422   8.974   5.077 -0.1433  0.0525 -0.4203
  788POPS   GL111605  15.310   9.115   5.453  0.2287  0.2091 -0.1764
  788POPS   GL211606  15.546   9.049   5.674 -0.1937  0.0770 -0.0250
  788POPS   C1A11607  15.084   9.055   5.946  0.0182  0.0761 -0.0795
  788POPS   D2A11608  15.090   8.989   6.415  0.1935 -0.0267  0.0967
  788POPS   C3A11609  15.116   8.872   6.840 -0.2097 -0.0024 -0.1199
  788POPS   C4A11610  15.008   8.969   7.150 -0.0467  0.3065  0.1887
  788POPS   C1B11611  15.528   9.376   5.909 -0.1053 -0.0245 -0.0551
  788POPS   C2B11612  15.385   9.443   6.262 -0.0471  0.1529 -0.0360
  788POPS   C3B11613  15.112   9.501   6.594  0.1027  0.2625 -0.1451
  788POPS   C4B11614  14.886   9.537   6.936  0.1583 -0.0844  0.0150
  789POPS   CNO11615  18.705  16.159   4.855 -0.1413  0.0778  0.0121
  789POPS   PO411616  18.527  16.149   5.320 -0.2678  0.1495  0.2613
  789POPS   GL111617  18.308  16.129   5.730  0.1210 -0.1522  0.1964
  789POPS   GL211618  18.374  15.863   5.777 -0.3919  0.0876 -0.0817
  789POPS   C1A11619  18.068  16.172   6.114 -0.0498 -0.0359 -0.1877
  789POPS   D2A11620  18.093  16.127   6.541  0.0202  0.3444 -0.3087
  789POPS   C3A11621  17.968  16.371   6.903 -0.0249 -0.0944 -0.1082
  789POPS   C4A11622  17.704  16.358   7.313 -0.2790 -0.1977  0.2028
  789POPS   C1B11623  18.706  16.077   6.059  0.1849 -0.1425  0.2627
  789POPS   C2B11624  18.980  16.271   6.256  0.0233  0.4093  0.1924
  789POPS   C3B11625  19.048  16.196   6.711  0.1750 -0.1933 -0.1260
  789POPS   C4B11626  19.028  16.023   7.003 -0.1148 -0.1503  0.0462
  790POPS   CNO11627   2.382   3.384   4.756 -0.0092  0.1225 -0.0359
  790POPS   PO411628   2.296   3.200   5.206 -0.2694  0.1071  0.1730
  790POPS   GL111629   2.143   3.273   5.557 -0.4062 -0.0412 -0.2885
  790POPS   GL211630   2.014   2.996   5.684  0.0708 -0.2005  0.0544
  790POPS   C1A11631   2.163   3.332   6.047 -0.2039 -0.0339  0.0231
  790POPS   D2A11632   2.224   3.130   6.448 -0.3007 -0.0510 -0.1330
  790POPS   C3A11633   2.079   3.260   6.828 -0.0365  0.1469  0.0455
  790POPS   C4A11634   1.728   3.557   6.657 -0.1317  0.1768 -0.0113
  790POPS   C1B11635   1.570   3.187   5.828 -0.0614 -0.1751  0.0185
  790POPS   C2B11636   1.256   3.556   5.910  0.0516 -0.2003  0.1587
  790POPS   C3B11637   0.923   3.809   6.022  0.2127  0.0332 -0.1136
  790POPS   C4B11638   0.717   4.141   6.007 -0.0382 -0.1624  0.1781
  791POPS   CNO11639   8.414   8.043   5.484 -0.2340  0.1645 -0.1118
  791POPS   PO411640   8.391   7.916   5.816 -0.2144 -0.2009  0.0321
  791POPS   GL111641   8.509   8.188   6.215  0.1634  0.0396 -0.3452
  791POPS   GL211642   8.145   8.294   6.324 -0.0231  0.0482 -0.0317
  791POPS   C1A11643   8.466   8.012   6.644  0.1095  0.5195 -0.3405
  791POPS   D2A11644   8.154   7.741   6.842  0.1294  0.0577 -0.0249
  791POPS   C3A11645   7.746   7.860   7.144  0.0908 -0.0769 -0.0036
  791POPS   C4A11646   7.508   7.611   7.475 -0.2015  0.0998 -0.1560
  791POPS   C1B11647   7.999   8.234   6.851 -0.1565  0.1864  0.0769
  791POPS   C2B11648   7.939   8.318   7.312  0.2618  0.1397  0.2149
  791POPS   C3B11649   7.707   8.252   7.699  0.0385 -0.0463  0.1723
  791POPS   C4B11650   7.524   7.943   7.834 -0.2220 -0.0645  0.1116
  792POPS   CNO11651   0.025   6.652   5.199 -0.1010  0.1349  0.1440
  792POPS   PO411652  -0.040   7.098   5.277 -0.0762  0.3667 -0.0839
  792POPS   GL111653  -0.108   7.442   5.460 -0.2893 -0.2216 -0.3268
  792POPS   GL211654   0.201   7.493   5.634  0.1968 -0.1003 -0.2711
  792POPS   C1A11655  -0.494   7.669   5.662 -0.2082  0.0170  0.0442
  792POPS   D2A11656  -0.580   7.972   5.984 -0.1514 -0.2194 -0.3328
  792POPS   C3A11657  -0.874   7.946   6.330 -0.1969 -0.1001 -0.0361
  792POPS   C4A11658  -1.006   8.023   6.777  0.5015 -0.0825  0.0193
  792POPS   C1B11659   0.443   7.726   5.973 -0.1572  0.0584 -0.2750
  792POPS   C2B11660   0.382   7.956   6.411 -0.0713 -0.1502 -0.2092
  792POPS   C3B11661   0.319   7.692   6.770 -0.2034  0.2268 -0.4016
  792POPS   C4B11662   0.467   7.287   7.052 -0.0886 -0.3156 -0.1545
  793POPS   CNO11663   8.618   2.575   5.075  0.3166 -0.0507  0.5256
  793POPS   PO411664   8.955   2.642   5.204 -0.2153 -0.1296  0.1171
  793POPS   GL111665   8.927   2.682   5.641  0.2188  0.2569 -0.0764
  793POPS   GL211666   9.105   2.364   5.703  0.0064 -0.0882  0.2617
  793POPS   C1A11667   8.879   2.660   6.087 -0.0713 -0.0144 -0.2321
  793POPS   D2A11668   9.090   2.757   6.394  0.3036 -0.0013 -0.0791
  793POPS   C3A11669   9.023   2.666   6.866  0.1582  0.4259 -0.0659
  793POPS   C4A11670   8.837   2.521   7.188  0.1976 -0.0873  0.1523
  793POPS   C1B11671   9.157   2.254   6.128 -0.0621  0.2485  0.0860
  793POPS   C2B11672   8.999   2.282   6.547  0.3249 -0.1465 -0.3975
  793POPS   C3B11673   8.905   2.018   6.951 -0.3743  0.0297 -0.1361
  793POPS   C4B11674   8.832   1.567   7.201 -0.0440 -0.1599  0.2395
  794POPS   CNO11675   1.528  14.935   5.361 -0.0535  0.1746 -0.0718
  794POPS   PO411676   1.947  15.031   5.572  0.2074  0.1184  0.1873
  794POPS   GL111677   1.916  15.170   6.035 -0.2687 -0.1578 -0.0975
  794POPS   GL211678   1.735  15.433   6.173  0.0620  0.3421 -0.1587
  794POPS   C1A11679   1.717  15.061   6.459  0.1546  0.0648  0.2556
  794POPS   D2A11680   1.384  14.970   6.644  0.1047 -0.3039 -0.3646
  794POPS   C3A11681   1.106  14.734   6.496  0.1252 -0.1516  0.0850
  794POPS   C4A11682   0.854  14.547   6.735 -0.4923 -0.2507 -0.0486
  794POPS   C1B11683   1.610  15.563   6.633  0.4081  0.2114 -0.0695
  794POPS   C2B11684   1.797  15.643   6.950  0.0152  0.1435  0.2189
  794POPS   C3B11685   1.909  15.570   7.325  0.2437  0.2409 -0.1431
  794POPS   C4B11686   1.774  15.564   7.713  0.1128 -0.0452 -0.0055
  795POPS   CNO11687  11.315  15.989   5.348 -0.2885  0.1973 -0.0087
  795POPS   PO411688  11.757  15.982   5.322 -0.3093  0.1251  0.1394
  795POPS   GL111689  12.090  16.108   5.583  0.0410  0.0660 -0.2727
  795POPS   GL211690  12.085  16.360   5.786 -0.0427  0.1083  0.5847
  795POPS   C1A11691  12.497  15.945   5.764  0.1302  0.0793 -0.0081
  795POPS   D2A11692  12.604  15.676   6.057 -0.0931 -0.0107 -0.1782
  795POPS   C3A11693  12.757  15.853   6.350  0.2399 -0.1411 -0.0749
  795POPS   C4A11694  12.835  16.094   6.764 -0.0658 -0.0932 -0.0774
  795POPS   C1B11695  11.999  16.262   6.212  0.3557  0.2003 -0.2712
  795POPS   C2B11696  12.123  16.190   6.684 -0.0630  0.1174  0.1924
  795POPS   C3B11697  12.388  16.266   6.962  0.0649  0.1822 -0.0353
  795POPS   C4B11698  12.474  16.705   7.218  0.0837  0.0788 -0.2354
  796POPS   CNO11699  16.410  17.453   5.182 -0.0295  0.4407  0.1164
  796POPS   PO411700  16.630  17.652   5.446 -0.3807  0.2800  0.1766
  796POPS   GL111701  16.949  17.755   5.696 -0.0596  0.0095 -0.0192
  796POPS   GL211702  16.688  18.061   5.772  0.0468  0.1151  0.0518
  796POPS   C1A11703  17.238  17.977   5.930  0.0670  0.0463 -0.2969
  796POPS   D2A11704  17.426  18.150   6.296  0.2015 -0.0405 -0.0304
  796POPS   C3A11705  17.465  18.039   6.804 -0.0100  0.2604 -0.0608
  796POPS   C4A11706  17.227  17.687   7.061 -0.0443  0.2008 -0.1755
  796POPS   C1B11707  16.647  18.000   6.132 -0.0045 -0.2887 -0.1030
  796POPS   C2B11708  16.462  18.246   6.452  0.1134 -0.0625  0.1652
  796POPS   C3B11709  16.421  18.210   6.898  0.0086 -0.0957 -0.1036
  796POPS   C4B11710  16.142  18.165   7.139  0.0095  0.1904  0.1022
  797POPS   CNO11711   2.762   5.111   5.532 -0.1839 -0.3273  0.0336
  797POPS   PO411712   3.078   4.905   5.120 -0.3385  0.0380  0.2640
  797POPS   GL111713   3.106   4.648   5.559 -0.1381 -0.0506 -0.0983
  797POPS   GL211714   2.834   4.645   5.689  0.2641 -0.2136  0.2075
  797POPS   C1A11715   3.247   4.322   5.800 -0.3766 -0.2122  0.0216
  797POPS   D2A11716   3.435   3.991   6.158  0.0977  0.1674 -0.0394
  797POPS   C3A11717   3.520   4.003   6.485  0.1397 -0.1571 -0.0976
  797POPS   C4A11718   3.825   3.958   6.823  0.2717  0.0826 -0.4427
  797POPS   C1B11719   3.091   4.727   6.111  0.1806 -0.2945  0.4180
  797POPS   C2B11720   3.204   4.502   6.433 -0.1001 -0.0159 -0.0249
  797POPS   C3B11721   3.416   4.411   6.864 -0.1608 -0.1527  0.4119
  797POPS   C4B11722   3.581   4.127   7.193  0.0608  0.0590  0.1422
  798POPS   CNO11723   3.743   0.138   5.447  0.1892  0.2795  0.3952
  798POPS   PO411724   3.374   0.383   5.339 -0.0754 -0.3549  0.2817
  798POPS   GL111725   3.625   0.620   5.650  0.0592  0.3223 -0.1271
  798POPS   GL211726   3.717   0.941   5.703 -0.1218  0.1939  0.0860
  798POPS   C1A11727   4.095   0.431   5.824  0.0027  0.0225 -0.1891
  798POPS   D2A11728   4.601   0.399   5.751  0.0916  0.2011  0.0159
  798POPS   C3A11729   4.850   0.664   6.092 -0.1615  0.1676 -0.1932
  798POPS   C4A11730   4.741   0.918   6.493  0.0427 -0.0304  0.1889
  798POPS   C1B11731   3.908   0.852   6.111  0.3615  0.0156 -0.0976
  798POPS   C2B11732   4.201   1.039   6.404  0.2075 -0.0841  0.1540
  798POPS   C3B11733   4.334   0.934   6.796 -0.3619  0.2645 -0.0325
  798POPS   C4B11734   4.761   0.893   6.992 -0.0214 -0.2211  0.2029
  799POPS   CNO11735  12.890   8.434   4.833 -0.2301 -0.0438 -0.1647
  799POPS   PO411736  13.146   8.594   5.209 -0.1325  0.0210  0.0816
  799POPS   GL111737  13.265   8.706   5.577 -0.1948  0.1641  0.1996
  799POPS   GL211738  13.642   8.686   5.465 -0.1685 -0.1688  0.1398
  799POPS   C1A11739  13.476   8.523   6.016  0.1778 -0.0297 -0.1140
  799POPS   D2A11740  13.547   8.392   6.382  0.1309  0.0741  0.0778
  799POPS   C3A11741  13.906   8.435   6.561 -0.5059  0.0872  0.3210
  799POPS   C4A11742  14.146   8.712   6.867 -0.1553  0.3343 -0.2064
  799POPS   C1B11743  13.776   8.311   5.610 -0.1204  0.4224  0.2471
  799POPS   C2B11744  13.888   8.267   6.029  0.0500  0.0429 -0.1372
  799POPS   C3B11745  14.144   8.009   6.304 -0.3471 -0.2179  0.0065
  799POPS   C4B11746  14.207   8.119   6.770  0.0749 -0.2596 -0.0857
  800POPS   CNO11747   7.886   7.903   5.506  0.0527  0.1820  0.6120
  800POPS   PO411748   7.986   7.504   5.598 -0.1950  0.0765  0.0055
  800POPS   GL111749   7.922   7.595   6.046 -0.0663 -0.0806 -0.0213
  800POPS   GL211750   7.840   7.933   5.985  0.1539  0.4027 -0.3545
  800POPS   C1A11751   8.075   7.582   6.406 -0.0732  0.3035 -0.3679
  800POPS   D2A11752   8.055   7.290   6.736 -0.0208  0.0185  0.2971
  800POPS   C3A11753   7.745   6.919   6.792  0.0591 -0.1219  0.1887
  800POPS   C4A11754   7.555   6.563   7.094 -0.0501  0.0358 -0.0430
  800POPS   C1B11755   7.762   8.028   6.424 -0.3321 -0.0624  0.2039
  800POPS   C2B11756   7.519   7.942   6.724 -0.2442 -0.0552  0.0521
  800POPS   C3B11757   7.226   7.916   7.009 -0.0790 -0.2895  0.0767
  800POPS   C4B11758   7.046   7.728   7.319  0.1694  0.2305  0.2350
  801POPS   CNO11759   0.864   6.884   5.190 -0.1308 -0.1014 -0.0647
  801POPS   PO411760   0.543   6.640   5.417  0.2355 -0.1594 -0.1801
  801POPS   GL111761   0.293   6.418   5.670 -0.1643 -0.1147  0.2175
  801POPS   GL211762   0.563   6.418   5.879 -0.0281 -0.1980  0.4032
  801POPS   C1A11763   0.233   6.096   5.966  0.2173 -0.1502 -0.1361
  801POPS   D2A11764   0.354   5.995   6.411  0.0582 -0.1469 -0.0441
  801POPS   C3A11765   0.360   5.986   6.872 -0.2216  0.0709 -0.0657
  801POPS   C4A11766   0.053   5.750   7.136  0.1161 -0.0814  0.1909
  801POPS   C1B11767   0.636   6.777   6.134  0.1613  0.0288 -0.5497
  801POPS   C2B11768   0.583   7.016   6.536 -0.0616  0.0138  0.1517
  801POPS   C3B11769   0.135   7.146   6.646  0.2544  0.0310  0.3190
  801POPS   C4B11770  -0.244   7.258   6.546  0.3657 -0.0627  0.0008
  802POPS   CNO11771   5.026  16.024   5.461 -0.2458  0.3511  0.0877
  802POPS   PO411772   4.645  15.903   5.467  0.0328  0.0569 -0.3871
  802POPS   GL111773   4.374  15.759   5.768  0.6084  0.1670 -0.0037
  802POPS   GL211774   4.089  15.818   5.680  0.0027 -0.2349  0.3189
  802POPS   C1A11775   4.222  15.513   6.107  0.4997  0.0606 -0.0330
  802POPS   D2A11776   4.071  15.410   6.423  0.0576  0.1983 -0.1093
  802POPS   C3A11777   3.839  15.577   6.667  0.3627 -0.3441 -0.0499
  802POPS   C4A11778   3.849  15.466   7.071 -0.1189  0.1162 -0.2231
  802POPS   C1B11779   3.838  15.752   6.072 -0.0137  0.1478  0.2001
  802POPS   C2B11780   3.686  15.382   6.087 -0.1263 -0.1987  0.0618
  802POPS   C3B11781   3.606  15.128   6.484  0.1259 -0.0679 -0.2220
  802POPS   C4B11782   3.419  14.886   6.785  0.1190  0.3071 -0.0442
  803POPS   CNO11783  17.966  16.980   5.537  0.4423 -0.0018 -0.0363
  803POPS   PO411784  17.610  17.235   5.455  0.2072  0.2229 -0.2195
  803POPS   GL111785  17.812  17.410   5.831  0.0930  0.3033  0.2361
  803POPS   GL211786  18.076  17.698   5.870 -0.2283  0.1532 -0.2063
  803POPS   C1A11787  17.660  17.678   6.208 -0.1195 -0.0096 -0.1691
  803POPS   D2A11788  17.780  17.789   6.534  0.2188 -0.0460  0.1469
  803POPS   C3A11789  17.669  17.573   6.933 -0.0434 -0.0160 -0.0787
  803POPS   C4A11790  17.715  17.782   7.311 -0.1701  0.1423 -0.0697
  803POPS   C1B11791  18.247  17.810   6.298  0.2021 -0.2933 -0.2580
  803POPS   C2B11792  18.541  18.002   6.628  0.2981 -0.1111 -0.2471
  803POPS   C3B11793  18.621  18.196   7.005  0.1556  0.0853  0.2175
  803POPS   C4B11794  18.882  18.257   7.328  0.2948  0.1404 -0.2744
  804POPS   CNO11795  16.599   7.830   4.912  0.0985  0.0242  0.2552
  804POPS   PO411796  16.563   7.694   5.385 -0.1361  0.1930  0.1303
  804POPS   GL111797  16.775   7.846   5.667  0.1349  0.4339  0.0585
  804POPS   GL211798  16.861   8.060   5.391  0.0541 -0.0408  0.0128
  804POPS   C1A11799  16.870   7.705   6.084 -0.0845 -0.3308  0.2716
  804POPS   D2A11800  16.717   7.626   6.479  0.0703  0.3010 -0.2257
  804POPS   C3A11801  16.887   7.340   6.878  0.1126 -0.0670  0.2295
  804POPS   C4A11802  17.117   7.249   7.227  0.0378  0.1901  0.2343
  804POPS   C1B11803  17.207   8.142   5.644  0.0817 -0.0213  0.1096
  804POPS   C2B11804  17.571   7.981   5.806 -0.0346  0.0025 -0.1108
  804POPS   C3B11805  17.821   7.820   6.178  0.0071 -0.1663  0.3260
  804POPS   C4B11806  18.034   7.522   6.455  0.1875  0.0890  0.1478
  805POPS   CNO11807  16.219  11.186   4.990 -0.0284 -0.1123  0.1260
  805POPS   PO411808  16.213  11.633   5.185 -0.1522  0.0049 -0.1945
  805POPS   GL111809  16.085  11.678   5.594 -0.3492 -0.2434 -0.1199
  805POPS   GL211810  16.196  11.286   5.682 -0.3065 -0.0753 -0.1838
  805POPS   C1A11811  16.060  12.009   5.855  0.1067 -0.0116 -0.2253
  805POPS   D2A11812  16.306  12.234   6.246  0.2456  0.0204  0.1831
  805POPS   C3A11813  16.347  12.106   6.653  0.3028 -0.0545 -0.0920
  805POPS   C4A11814  16.130  11.831   6.842  0.0546  0.2278 -0.1480
  805POPS   C1B11815  16.490  11.038   5.876  0.0337  0.1123  0.1459
  805POPS   C2B11816  16.471  10.766   6.342  0.2205 -0.3094  0.1934
  805POPS   C3B11817  16.124  10.767   6.590 -0.1666  0.0339 -0.1591
  805POPS   C4B11818  16.230  10.842   6.998 -0.0928 -0.1016  0.0590
  806POPS   CNO11819  14.472   4.912   5.554  0.2529  0.3681  0.1737
  806POPS   PO411820  14.191   4.567   5.340  0.1799  0.1122  0.1665
  806POPS   GL111821  14.587   4.378   5.546  0.1194  0.1970 -0.2887
  806POPS   GL211822  14.954   4.528   5.558  0.1866 -0.1310 -0.0384
  806POPS   C1A11823  14.780   4.178   5.904 -0.0120  0.0463 -0.3877
  806POPS   D2A11824  14.919   4.213   6.309 -0.0477  0.1395 -0.0974
  806POPS   C3A11825  14.941   4.313   6.763 -0.2554 -0.1440 -0.2963
  806POPS   C4A11826  15.084   4.280   7.163 -0.2251  0.0560 -0.1308
  806POPS   C1B11827  14.900   4.769   5.975 -0.0907 -0.1807 -0.0134
  806POPS   C2B11828  14.895   4.693   6.445  0.0056 -0.2844  0.1049
  806POPS   C3B11829  15.006   4.854   6.854 -0.1661 -0.2963 -0.2330
  806POPS   C4B11830  14.983   5.064   7.286  0.1162 -0.0563 -0.2531
  807POPS   CNO11831   8.041   1.275   5.106  0.3470 -0.2216  0.0698
  807POPS   PO411832   8.189   0.990   5.406 -0.1146 -0.0725 -0.0234
  807POPS   GL111833   8.347   1.015   5.802  0.0103  0.2800  0.3651
  807POPS   GL211834   8.631   1.178   5.924  0.2403 -0.1568 -0.1547
  807POPS   C1A11835   8.331   0.747   6.046 -0.1771  0.0027 -0.1657
  807POPS   D2A11836   8.272   0.635   6.530  0.0115  0.2856 -0.0230
  807POPS   C3A11837   8.525   0.718   6.924 -0.2659 -0.1835  0.2896
  807POPS   C4A11838   8.910   0.724   7.209 -0.0584  0.0213  0.1625
  807POPS   C1B11839   8.826   0.827   6.052  0.0382  0.1911 -0.1435
  807POPS   C2B11840   8.813   0.549   6.393  0.1261  0.2436  0.0232
  807POPS   C3B11841   8.624   0.172   6.558  0.2133 -0.1543  0.2709
  807POPS   C4B11842   8.470  -0.177   6.776  0.1119  0.0889  0.0367
  808POPS   CNO11843  12.392   2.746   4.998  0.0576  0.1014  0.0247
  808POPS   PO411844  12.511   2.745   5.527 -0.2939  0.2445 -0.1035
  808POPS   GL111845  12.320   2.467   5.698  0.0809  0.2273  0.1247
  808POPS   GL211846  12.115   2.707   5.783  0.4047 -0.2867 -0.2046
  808POPS   C1A11847  12.383   2.347   6.193  0.0505  0.1963 -0.3153
  808POPS   D2A11848  12.657   2.231   6.535 -0.0219  0.1334  0.1105
  808POPS   C3A11849  12.642   2.137   7.061  0.2011 -0.0667 -0.0571
  808POPS   C4A11850  12.692   1.898   7.364 -0.0268  0.0011  0.0062
  808POPS   C1B11851  12.004   2.750   6.182  0.0860  0.2183  0.0604
  808POPS   C2B11852  11.998   2.828   6.651  0.0163 -0.1770 -0.0724
  808POPS   C3B11853  12.093   2.750   7.091 -0.0964  0.1916  0.4178
  808POPS   C4B11854  12.126   2.717   7.582  0.1247 -0.0335  0.0652
  809POPS   CNO11855  17.685   2.818   5.094  0.2325  0.0664  0.0639
  809POPS   PO411856  17.905   3.168   5.377 -0.2483 -0.0715  0.2246
  809POPS   GL111857  17.723   2.839   5.622  0.0719 -0.2713  0.0916
  809POPS   GL211858  17.436   2.830   5.800  0.0950  0.0987 -0.0489
  809POPS   C1A11859  17.817   2.842   6.119  0.0811 -0.1499 -0.3765
  809POPS   D2A11860  18.123   2.879   6.387  0.0608 -0.0274 -0.1878
  809POPS   C3A11861  18.095   2.984   6.764  0.2448  0.0379  0.1995
  809POPS   C4A11862  17.827   2.815   7.153  0.0954 -0.1905 -0.0348
  809POPS   C1B11863  17.459   3.197   6.101  0.1565 -0.0534 -0.0946
  809POPS   C2B11864  17.522   3.593   6.356  0.4419  0.0228  0.1033
  809POPS   C3B11865  17.450   3.566   6.838 -0.3805 -0.0432 -0.3536
  809POPS   C4B11866  17.435   3.587   7.173  0.0197 -0.0184 -0.2986
  810POPS   CNO11867  11.012  13.117   5.126 -0.2253  0.0992 -0.0448
  810POPS   PO411868  11.016  13.132   5.650  0.1700  0.0846  0.0863
  810POPS   GL111869  11.305  13.281   6.046  0.1017 -0.2817 -0.0993
  810POPS   GL211870  11.584  13.331   5.941  0.2800 -0.3012 -0.1293
  810POPS   C1A11871  11.325  13.324   6.523 -0.2340  0.2371  0.2642
  810POPS   D2A11872  11.120  13.711   6.822  0.0208  0.1171 -0.1497
  810POPS   C3A11873  11.305  13.726   7.226  0.2920  0.0566  0.4354
  810POPS   C4A11874  11.129  14.030   7.501  0.1138 -0.0191 -0.0813
  810POPS   C1B11875  11.805  13.224   6.259 -0.0450 -0.1610 -0.6290
  810POPS   C2B11876  11.710  13.079   6.704 -0.0579 -0.1839 -0.0891
  810POPS   C3B11877  11.442  13.036   6.977  0.0752  0.0265  0.1029
  810POPS   C4B11878  11.036  13.167   7.102  0.0740 -0.0453 -0.2716
  811YOPS   CNO11879   4.027  17.825   5.285 -0.3650 -0.0074 -0.4519
  811YOPS   PO411880   4.245  17.647   5.567 -0.0729 -0.0288  0.1169
  811YOPS   GL111881   4.419  17.837   5.966  0.1477  0.6134 -0.0362
  811YOPS   GL211882   4.335  17.735   6.199  0.3279  0.2628 -0.0342
  811YOPS   C1A11883   4.290  18.229   6.231 -0.0943  0.0546  0.0987
  811YOPS   D2A11884   4.126  18.409   6.622 -0.0757 -0.4984  0.3369
  811YOPS   C3A11885   4.082  18.611   7.032  0.2542 -0.0654 -0.0752
  811YOPS   C4A11886   3.659  18.685   7.297 -0.1875 -0.3116 -0.2815
  811YOPS   C1B11887   4.159  17.835   6.568  0.2072  0.0700 -0.0382
  811YOPS   C2B11888   4.074  18.041   6.932  0.0272  0.0090  0.0837
  811YOPS   D3B11889   3.854  18.095   7.239 -0.1021 -0.0297  0.0833
  811YOPS   C4B11890   4.028  18.278   7.516  0.1509  0.1716 -0.2715
  812YOPS   CNO11891  16.264  10.863   5.398  0.0271  0.1118 -0.0213
  812YOPS   PO411892  15.823  10.779   5.292 -0.0829 -0.4292 -0.0539
  812YOPS   GL111893  15.901  10.565   5.659  0.3596 -0.2494 -0.2280
  812YOPS   GL211894  16.180  10.444   5.560  0.1251  0.3994 -0.1850
  812YOPS   C1A11895  15.678  10.454   6.033  0.1463 -0.0503 -0.2922
  812YOPS   D2A11896  15.562  10.094   6.311 -0.0194 -0.1654  0.2012
  812YOPS   C3A11897  15.453   9.920   6.555  0.1139  0.3094 -0.0145
  812YOPS   C4A11898  15.641   9.652   6.769  0.1594 -0.0243 -0.1179
  812YOPS   C1B11899  16.357  10.518   5.811  0.2142 -0.0114 -0.1436
  812YOPS   C2B11900  16.806  10.551   5.845  0.3213  0.1962 -0.2776
  812YOPS   D3B11901  17.229  10.412   5.723 -0.2595  0.0085  0.2701
  812YOPS   C4B11902  17.293  10.003   5.864 -0.0326 -0.2186 -0.0459
  813YOPS   CNO11903  12.161   5.837   6.302  0.1631 -0.3178  0.1004
  813YOPS   PO411904  12.026   5.483   5.897 -0.0209  0.0562 -0.0141
  813YOPS   GL111905  12.420   5.228   6.126  0.2697  0.2156 -0.1499
  813YOPS   GL211906  12.538   5.465   6.334 -0.0212  0.2439  0.1926
  813YOPS   C1A11907  12.503   4.936   6.416 -0.0998  0.1278  0.0047
  813YOPS   D2A11908  12.478   4.791   6.910 -0.2883 -0.0132  0.1788
  813YOPS   C3A11909  12.659   4.800   7.318  0.1448 -0.1173  0.0651
  813YOPS   C4A11910  13.217   4.936   7.244 -0.3338 -0.1531 -0.0433
  813YOPS   C1B11911  12.158   5.429   6.548  0.2947 -0.4509  0.1606
  813YOPS   C2B11912  12.137   5.441   7.025 -0.0696 -0.0062 -0.2118
  813YOPS   D3B11913  12.147   5.385   7.511  0.0307 -0.0191  0.3000
  813YOPS   C4B11914  11.745   5.159   7.686 -0.1754 -0.0132 -0.0196
  814YOPS   CNO11915  11.471  18.965   5.338  0.0285 -0.0750  0.0044
  814YOPS   PO411916  11.017  18.943   5.301  0.2563 -0.0926  0.1621
  814YOPS   GL111917  11.024  18.979   5.688 -0.0959 -0.0380  0.0812
  814YOPS   GL211918  11.195  19.376   5.805 -0.0243 -0.1369  0.2187
  814YOPS   C1A11919  11.112  18.984   6.082  0.0395 -0.2399 -0.0339
  814YOPS   D2A11920  11.282  19.060   6.384  0.1018 -0.0241 -0.0925
  814YOPS   C3A11921  11.444  19.304   6.776 -0.0088  0.0381 -0.2127
  814YOPS   C4A11922  11.130  19.370   7.072 -0.1236  0.2437 -0.0665
  814YOPS   C1B11923  11.632  19.204   6.010  0.2978  0.0155  0.1317
  814YOPS   C2B11924  11.800  19.171   6.408  0.1234 -0.1042 -0.1343
  814YOPS   D3B11925  11.950  19.308   6.873  0.1085 -0.2369  0.2826
  814YOPS   C4B11926  11.702  19.537   7.123  0.2155  0.1800 -0.1292
  815YOPS   CNO11927  12.724  17.192   4.764  0.0252  0.4121 -0.1776
  815YOPS   PO411928  12.518  16.890   5.109 -0.1099  0.0422  0.0439
  815YOPS   GL111929  12.599  16.907   5.437 -0.0209 -0.1250 -0.0769
  815YOPS   GL211930  12.596  17.220   5.565  0.1217 -0.3119  0.0079
  815YOPS   C1A11931  12.499  16.747   5.792  0.2721 -0.0129  0.0485
  815YOPS   D2A11932  12.532  16.793   6.238  0.2157  0.0142  0.1239
  815YOPS   C3A11933  12.338  16.782   6.738  0.1014  0.0186  0.0445
  815YOPS   C4A11934  12.379  17.146   6.901 -0.1924 -0.0772  0.1407
  815YOPS   C1B11935  12.523  17.208   5.945  0.2490  0.1896  0.1783
  815YOPS   C2B11936  12.529  17.284   6.404 -0.0268  0.0748 -0.3282
  815YOPS   D3B11937  12.877  17.095   6.696 -0.3538 -0.0350  0.1831
  815YOPS   C4B11938  12.961  17.142   7.158  0.2804  0.1644 -0.0607
  816YOPS   CNO11939  10.454  18.214   5.261  0.0202  0.0315  0.0513
  816YOPS   PO411940  10.723  18.569   5.474 -0.5419  0.1179  0.2151
  816YOPS   GL111941  10.604  18.780   5.894  0.0232  0.3353  0.0328
  816YOPS   GL211942  10.553  19.005   5.909 -0.0005 -0.3387  0.0653
  816YOPS   C1A11943  10.726  18.777   6.384 -0.1960  0.1892 -0.1400
  816YOPS   D2A11944  11.037  18.797   6.723  0.0275  0.4043  0.3207
  816YOPS   C3A11945  10.825  18.823   7.180 -0.0883  0.2402  0.0320
  816YOPS   C4A11946  10.724  18.429   7.422  0.0280  0.1599  0.0849
  816YOPS   C1B11947  10.300  19.146   6.204 -0.0998 -0.0664  0.0012
  816YOPS   C2B11948  10.259  19.391   6.607  0.0612  0.2407  0.1698
  816YOPS   D3B11949  10.333  19.434   7.026  0.0303 -0.1826 -0.2106
  816YOPS   C4B11950  10.640  19.349   7.302  0.3395  0.0446  0.0907
  817YOPS   CNO11951   0.729   7.693   4.570 -0.0050 -0.0320 -0.1237
  817YOPS   PO411952   0.802   7.461   4.959 -0.2602  0.1966  0.2672
  817YOPS   GL111953   0.728   7.657   5.306  0.1039 -0.1709  0.2624
  817YOPS   GL211954   0.691   7.302   5.504  0.0771  0.1277 -0.0630
  817YOPS   C1A11955   0.898   7.826   5.736  0.0622  0.1955 -0.1563
  817YOPS   D2A11956   0.864   7.859   6.202 -0.1011  0.4349  0.2902
  817YOPS   C3A11957   0.861   7.736   6.643  0.1507 -0.0452  0.2640
  817YOPS   C4A11958   0.940   8.089   6.938 -0.0215  0.1983 -0.0906
  817YOPS   C1B11959   0.776   7.338   5.910 -0.0079 -0.1283 -0.0079
  817YOPS   C2B11960   0.924   7.189   6.255 -0.0053 -0.1621  0.0466
  817YOPS   D3B11961   1.355   7.117   6.410  0.2879 -0.3871 -0.0593
  817YOPS   C4B11962   1.581   6.750   6.631  0.0587  0.1133  0.0752
  818YOPS   CNO11963  10.631  15.633   5.744 -0.4075  0.1137 -0.1018
  818YOPS   PO411964  11.050  15.605   5.636 -0.3904  0.0368 -0.0303
  818YOPS   GL111965  11.220  15.886   5.947 -0.3518  0.1015 -0.1114
  818YOPS   GL211966  11.482  15.982   5.800  0.0589  0.0718  0.2393
  818YOPS   C1A11967  11.117  15.899   6.547  0.0211 -0.2924 -0.0598
  818YOPS   D2A11968  11.480  15.793   6.811 -0.1877  0.2369 -0.1406
  818YOPS   C3A11969  11.752  16.037   6.977 -0.2188  0.1248 -0.1112
  818YOPS   C4A11970  12.106  15.771   7.075  0.0537  0.1824  0.0681
  818YOPS   C1B11971  11.549  16.340   5.982  0.1565 -0.0819  0.0465
  818YOPS   C2B11972  11.473  16.747   6.031  0.3573 -0.0292 -0.1007
  818YOPS   D3B11973  11.126  16.951   6.026 -0.2389  0.3713 -0.1029
  818YOPS   C4B11974  10.744  16.910   6.222  0.0202 -0.4224  0.1732
  819YOPS   CNO11975  12.261   9.464   5.129 -0.1417  0.1180 -0.1213
  819YOPS   PO411976  12.640   9.399   5.389  0.0463  0.2493 -0.1733
  819YOPS   GL111977  12.921   9.557   5.599  0.0820  0.4648 -0.0122
  819YOPS   GL211978  12.907   9.847   5.425 -0.0676  0.1833 -0.1891
  819YOPS   C1A11979  13.198   9.668   5.823  0.0359  0.1789  0.0436
  819YOPS   D2A11980  13.103   9.798   6.327 -0.1454  0.1780  0.1261
  819YOPS   C3A11981  13.206   9.829   6.717  0.0993 -0.2468 -0.2810
  819YOPS   C4A11982  13.623   9.902   6.813  0.3710  0.2371  0.2051
  819YOPS   C1B11983  12.771   9.917   5.938  0.3275  0.5654  0.1104
  819YOPS   C2B11984  12.794  10.142   6.481  0.1127  0.1779  0.1978
  819YOPS   D3B11985  12.824  10.238   6.805  0.1482 -0.2611  0.0923
  819YOPS   C4B11986  12.710  10.444   6.967  0.0063  0.1296 -0.1004
  820YOPS   CNO11987   5.083  15.162   5.055 -0.1420  0.0973  0.0918
  820YOPS   PO411988   5.243  15.109   5.478  0.1382  0.0569  0.0347
  820YOPS   GL111989   5.342  14.699   5.818  0.0195 -0.0845  0.1261
  820YOPS   GL211990   5.081  14.543   5.936  0.0101 -0.3063  0.2843
  820YOPS   C1A11991   5.448  14.755   6.281  0.3221 -0.0721 -0.1436
  820YOPS   D2A11992   5.315  14.996   6.613  0.1361  0.1386  0.1394
  820YOPS   C3A11993   5.199  15.147   7.017 -0.3179 -0.1401 -0.2142
  820YOPS   C4A11994   5.086  15.417   7.388 -0.2090 -0.2625  0.0688
  820YOPS   C1B11995   5.015  14.458   6.405 -0.1269  0.0008 -0.2078
  820YOPS   C2B11996   4.882  14.756   6.747  0.2783  0.0923 -0.0548
  820YOPS   D3B11997   4.716  15.122   6.690 -0.1468 -0.1960  0.1307
  820YOPS   C4B11998   4.573  15.263   6.400  0.3950  0.0832 -0.4095
  821YOPS   CNO11999  11.232  11.122   5.223 -0.2650 -0.0024  0.0087
  821YOPS   PO412000  11.130  10.719   5.518 -0.1906  0.3387 -0.2242
  821YOPS   GL112001  11.286  10.549   5.903 -0.2518 -0.2113 -0.1179
  821YOPS   GL212002  11.131  10.741   6.191 -0.1296  0.2549  0.3382
  821YOPS   C1A12003  11.415  10.317   6.350 -0.1608  0.0023  0.0565
  821YOPS   D2A12004  11.607  10.035   6.613  0.1213  0.0019  0.3343
  821YOPS   C3A12005  11.827   9.946   6.928 -0.0344  0.1273  0.4687
  821YOPS   C4A12006  12.250   9.709   6.837 -0.4875  0.3272 -0.1003
  821YOPS   C1B12007  11.254  10.687   6.616 -0.2671 -0.0333  0.0784
  821YOPS   C2B12008  11.239  10.862   6.940 -0.1819  0.2021 -0.1429
  821YOPS   D3B12009  11.402  10.837   7.360  0.0215  0.0856 -0.3392
  821YOPS   C4B12010  11.756  10.557   7.564 -0.0886  0.2372  0.2427
  822YOPS   CNO12011   7.231  13.272   5.931  0.1114 -0.3392 -0.2884
  822YOPS   PO412012   7.256  13.743   5.895  0.0175  0.3271  0.1577
  822YOPS   GL112013   7.273  13.686   6.296  0.1906  0.3049  0.1981
  822YOPS   GL212014   6.953  13.632   6.291 -0.3784 -0.4638  0.2511
  822YOPS   C1A12015   7.323  13.950   6.727  0.3417  0.1348 -0.0039
  822YOPS   D2A12016   7.476  14.397   6.936  0.0039 -0.3155 -0.0636
  822YOPS   C3A12017   7.421  14.819   7.207  0.3613 -0.2367 -0.3930
  822YOPS   C4A12018   7.106  15.069   7.258  0.1645  0.0401  0.1067
  822YOPS   C1B12019   6.763  14.007   6.478  0.0892  0.0238  0.1786
  822YOPS   C2B12020   6.546  14.465   6.461  0.0428  0.2243 -0.0331
  822YOPS   D3B12021   6.470  14.539   6.881 -0.0180 -0.1012  0.1631
  822YOPS   C4B12022   6.284  14.506   7.288  0.3725  0.3286 -0.0964
  823YOPS   CNO12023   0.289  17.175   5.371 -0.2183  0.1192  0.0478
  823YOPS   PO412024   0.070  17.521   5.357  0.3414  0.2471 -0.4118
  823YOPS   GL112025  -0.181  17.480   5.691  0.1348 -0.2257 -0.1401
  823YOPS   GL212026  -0.061  17.218   5.774 -0.0582  0.0500 -0.1348
  823YOPS   C1A12027  -0.415  17.512   6.118 -0.2695 -0.0783 -0.4382
  823YOPS   D2A12028  -0.579  17.480   6.531  0.0555 -0.0716  0.0499
  823YOPS   C3A12029  -0.496  17.140   6.832  0.1147  0.0105 -0.1245
  823YOPS   C4A12030  -0.696  17.161   7.196 -0.0821 -0.1008  0.0267
  823YOPS   C1B12031  -0.120  17.117   6.324 -0.4457 -0.3142  0.0093
  823YOPS   C2B12032  -0.057  16.901   6.789  0.0498  0.0264 -0.3860
  823YOPS   D3B12033   0.177  17.062   7.071  0.3448  0.4315 -0.0002
  823YOPS   C4B12034   0.566  17.397   7.066 -0.2091  0.2857  0.0478
  824YOPS   CNO12035   7.529  16.728   5.419 -0.0945  0.1220 -0.0265
  824YOPS   PO412036   7.365  16.761   5.741  0.1207 -0.1849  0.3829
  824YOPS   GL112037   7.023  16.907   6.029 -0.1511 -0.1746 -0.2008
  824YOPS   GL212038   6.776  16.731   6.031  0.2133  0.0867  0.0560
  824YOPS   C1A12039   6.923  17.013   6.418 -0.4026 -0.0400 -0.0165
  824YOPS   D2A12040   7.048  17.213   6.817  0.2011  0.1069  0.1125
  824YOPS   C3A12041   6.978  17.055   7.208 -0.0136  0.3359  0.0289
  824YOPS   C4A12042   7.116  16.624   7.384  0.0050 -0.0185 -0.0910
  824YOPS   C1B12043   6.514  16.796   6.405  0.4183 -0.4322 -0.0473
  824YOPS   C2B12044   6.525  16.924   6.757  0.0613  0.0017  0.0487
  824YOPS   D3B12045   6.567  17.334   6.991  0.1443  0.0275  0.0727
  824YOPS   C4B12046   6.455  17.852   6.995 -0.0393  0.3012  0.2638
  825YOPS   CNO12047   3.012   7.036   4.804  0.1343 -0.1483 -0.1189
  825YOPS   PO412048   2.997   6.728   5.016 -0.1199  0.1561  0.1493
  825YOPS   GL112049   3.066   6.988   5.355  0.0810 -0.0657 -0.0623
  825YOPS   GL212050   3.088   7.336   5.216 -0.0540 -0.0659  0.3360
  825YOPS   C1A12051   3.048   7.185   5.816  0.0939 -0.6921 -0.0906
  825YOPS   D2A12052   3.153   7.601   6.023  0.0286  0.0232 -0.0944
  825YOPS   C3A12053   3.482   7.857   6.308 -0.0726  0.0879  0.1767
  825YOPS   C4A12054   3.395   7.934   6.686  0.4345  0.2525 -0.3067
  825YOPS   C1B12055   2.733   7.673   5.356  0.1160  0.0282 -0.1467
  825YOPS   C2B12056   2.332   7.825   5.664  0.0153 -0.1795 -0.1230
  825YOPS   D3B12057   2.004   7.812   5.989 -0.0751  0.2791  0.0284
  825YOPS   C4B12058   1.790   7.461   6.039  0.1457 -0.2587 -0.1947
  826YOPS   CNO12059   9.878   5.566   5.820 -0.1129 -0.0174 -0.3421
  826YOPS   PO412060  10.307   5.631   5.800  0.0182 -0.4929  0.1942
  826YOPS   GL112061  10.668   5.430   6.122  0.0578 -0.2969 -0.1023
  826YOPS   GL212062  10.930   5.199   6.018  0.0114 -0.2984  0.1521
  826YOPS   C1A12063  11.052   5.573   6.438  0.0605  0.6283 -0.3275
  826YOPS   D2A12064  11.228   5.597   6.766 -0.0325  0.0188  0.0792
  826YOPS   C3A12065  11.526   5.389   6.964 -0.2178  0.2116 -0.0565
  826YOPS   C4A12066  11.671   5.214   7.194  0.1384  0.2810 -0.4971
  826YOPS   C1B12067  11.063   5.058   6.359  0.1167  0.0181  0.1038
  826YOPS   C2B12068  11.003   5.093   6.861  0.3470  0.1234  0.0315
  826YOPS   D3B12069  11.122   5.357   7.194  0.1117 -0.0200  0.0217
  826YOPS   C4B12070  11.279   5.138   7.592 -0.2900 -0.0679  0.0402
  827YOPS   CNO12071  11.456   4.886   5.447  0.5982  0.1408  0.3035
  827YOPS   PO412072  11.754   5.105   5.622  0.1070  0.3059  0.1480
  827YOPS   GL112073  11.461   5.096   5.931 -0.1416  0.2825 -0.0153
  827YOPS   GL212074  11.574   5.274   6.061  0.1737  0.2850 -0.3038
  827YOPS   C1A12075  11.470   4.696   6.208  0.1062  0.0423  0.0635
  827YOPS   D2A12076  11.400   4.469   6.639 -0.2509  0.1687  0.0607
  827YOPS   C3A12077  11.148   4.216   7.025 -0.2002 -0.1945 -0.1374
  827YOPS   C4A12078  11.033   3.856   7.044 -0.0988  0.0251  0.0638
  827YOPS   C1B12079  11.578   5.304   6.469 -0.1089  0.3204 -0.0495
  827YOPS   C2B12080  11.473   4.936   6.696  0.1682 -0.0933 -0.1291
  827YOPS   D3B12081  11.344   4.845   7.089  0.0122 -0.0088 -0.1946
  827YOPS   C4B12082  11.692   4.765   7.419 -0.0296 -0.4395  0.2730
  828YOPS   CNO12083  13.210  11.755   5.199  0.0908  0.1032  0.5009
  828YOPS   PO412084  13.040  12.104   5.081 -0.2143 -0.3013 -0.1304
  828YOPS   GL112085  12.924  11.997   5.532  0.2016  0.0322  0.1811
  828YOPS   GL212086  12.692  12.087   5.743  0.2342 -0.0955 -0.0724
  828YOPS   C1A12087  13.267  12.085   5.847  0.0105 -0.0876 -0.3111
  828YOPS   D2A12088  13.306  12.193   6.272 -0.0842  0.0437  0.2551
  828YOPS   C3A12089  13.382  12.415   6.631  0.0920  0.0969 -0.1355
  828YOPS   C4A12090  13.761  12.680   6.739  0.0581  0.0381 -0.1655
  828YOPS   C1B12091  12.849  11.967   6.147 -0.0058  0.0741 -0.1697
  828YOPS   C2B12092  13.005  11.978   6.594 -0.3655  0.2155  0.0862
  828YOPS   D3B12093  13.228  11.939   6.932 -0.3578  0.0212  0.1585
  828YOPS   C4B12094  13.215  11.856   7.328 -0.0134  0.1387 -0.1696
  829YOPS   CNO12095  11.375   2.277   5.417  0.0808  0.2101 -0.0327
  829YOPS   PO412096  11.721   2.407   5.491 -0.0733  0.0147  0.3854
  829YOPS   GL112097  11.728   2.363   5.924  0.0833 -0.3085 -0.1799
  829YOPS   GL212098  11.560   2.671   6.044 -0.2096  0.1819 -0.1272
  829YOPS   C1A12099  11.811   2.327   6.377 -0.1501  0.3072 -0.1386
  829YOPS   D2A12100  12.112   2.294   6.730 -0.1084  0.0552 -0.0283
  829YOPS   C3A12101  12.116   2.255   7.231  0.2823 -0.0200  0.0132
  829YOPS   C4A12102  12.547   2.446   7.388  0.1765 -0.1981 -0.1081
  829YOPS   C1B12103  11.547   2.710   6.518  0.0281  0.2041  0.1995
  829YOPS   C2B12104  11.612   2.598   6.937  0.1675 -0.1625  0.1214
  829YOPS   D3B12105  11.637   3.005   7.083 -0.0244  0.2236 -0.0179
  829YOPS   C4B12106  11.746   3.080   7.478  0.0514  0.1123 -0.4447
  830YOPS   CNO12107   7.153   2.326   4.540  0.0182 -0.5122 -0.1858
  830YOPS   PO412108   7.083   2.429   5.009 -0.1085 -0.2780 -0.3397
  830YOPS   GL112109   7.062   2.406   5.397  0.0349  0.1374 -0.0311
  830YOPS   GL212110   7.457   2.533   5.466  0.2848  0.1353  0.3431
  830YOPS   C1A12111   6.968   2.227   5.728  0.1784  0.2688 -0.1105
  830YOPS   D2A12112   7.093   2.279   6.161  0.0184 -0.2691  0.1740
  830YOPS   C3A12113   6.974   2.130   6.550  0.1371  0.2760 -0.0382
  830YOPS   C4A12114   7.064   1.758   6.596  0.0035 -0.0825 -0.0420
  830YOPS   C1B12115   7.497   2.120   5.814  0.1547 -0.3416 -0.2242
  830YOPS   C2B12116   7.832   1.976   5.985  0.3482  0.2478  0.0616
  830YOPS   D3B12117   8.136   1.836   6.318  0.1543 -0.3761 -0.0623
  830YOPS   C4B12118   7.975   1.904   6.764  0.0283 -0.1054  0.0462
  831YOPS   CNO12119  18.344  15.401   5.567 -0.0553 -0.3277  0.2867
  831YOPS   PO412120  17.910  15.306   5.463 -0.1436 -0.1279  0.1467
  831YOPS   GL112121  17.836  15.271   5.843 -0.1646 -0.1882 -0.2006
  831YOPS   GL212122  18.154  15.220   6.002 -0.0176  0.1101 -0.0124
  831YOPS   C1A12123  17.688  14.891   5.984 -0.2778  0.2440 -0.0833
  831YOPS   D2A12124  17.776  14.633   6.345  0.2506  0.0411 -0.2771
  831YOPS   C3A12125  17.957  14.497   6.774 -0.1939  0.0585 -0.2352
  831YOPS   C4A12126  17.723  14.109   6.945 -0.0317 -0.0495 -0.0138
  831YOPS   C1B12127  18.337  15.119   6.431 -0.1454 -0.0269  0.2489
  831YOPS   C2B12128  18.298  14.980   6.904 -0.4172  0.0531  0.2158
  831YOPS   D3B12129  18.047  14.812   7.202  0.1255  0.2820  0.0108
  831YOPS   C4B12130  18.299  14.529   7.314 -0.1551 -0.1872  0.1215
  832YOPS   CNO12131   9.534  13.504   5.616  0.0588  0.0221 -0.0698
  832YOPS   PO412132   9.387  13.872   5.636 -0.1617 -0.2378  0.0446
  832YOPS   GL112133   9.336  13.807   6.209 -0.1787  0.2782  0.1051
  832YOPS   GL212134   8.949  13.923   6.186 -0.0667  0.4827 -0.0798
  832YOPS   C1A12135   9.339  13.829   6.626 -0.0256  0.3422  0.4380
  832YOPS   D2A12136   9.131  13.803   7.024  0.0597 -0.1426 -0.2331
  832YOPS   C3A12137   9.078  13.995   7.425  0.0241  0.2409  0.0805
  832YOPS   C4A12138   9.222  14.396   7.575 -0.3263 -0.1740  0.3137
  832YOPS   C1B12139   9.075  14.241   6.437 -0.1785  0.2216  0.1424
  832YOPS   C2B12140   8.959  14.557   6.700 -0.0930 -0.0921  0.2294
  832YOPS   D3B12141   8.890  14.628   7.158 -0.0305 -0.1756 -0.2088
  832YOPS   C4B12142   8.938  15.113   7.186 -0.2222 -0.0595  0.0253
  833YOPS   CNO12143  15.390   0.897   5.419 -0.1571  0.0227 -0.0117
  833YOPS   PO412144  15.523   0.568   5.554 -0.4185 -0.1200  0.5357
  833YOPS   GL112145  15.509   0.427   5.868  0.3138 -0.0084  0.1366
  833YOPS   GL212146  15.440   0.598   6.218 -0.0432 -0.2805 -0.0914
  833YOPS   C1A12147  15.705   0.171   6.284  0.0098 -0.0409  0.0858
  833YOPS   D2A12148  15.626   0.172   6.681 -0.4939 -0.4310  0.2272
  833YOPS   C3A12149  15.246   0.265   6.871  0.2173 -0.0405 -0.2531
  833YOPS   C4A12150  15.013   0.591   6.978 -0.0905 -0.0675 -0.1303
  833YOPS   C1B12151  15.765   0.782   6.554 -0.0908  0.4403  0.0559
  833YOPS   C2B12152  15.916   0.955   6.832  0.3899  0.1119 -0.1430
  833YOPS   D3B12153  16.068   1.022   7.241 -0.3150  0.2419  0.1444
  833YOPS   C4B12154  15.712   1.080   7.329  0.0996 -0.1074 -0.1546
  834YOPS   CNO12155  10.809   7.381   5.165  0.0253  0.0780 -0.1257
  834YOPS   PO412156  10.939   7.087   5.480 -0.1320  0.2382  0.0686
  834YOPS   GL112157  11.023   7.193   5.914 -0.1188  0.0857 -0.0459
  834YOPS   GL212158  11.317   7.309   5.935 -0.0953 -0.0009  0.1573
  834YOPS   C1A12159  11.126   6.996   6.375  0.1792  0.3635 -0.0752
  834YOPS   D2A12160  11.191   6.849   6.801  0.3192  0.0150 -0.1168
  834YOPS   C3A12161  11.039   6.839   7.227  0.1568  0.5135  0.1877
  834YOPS   C4A12162  11.321   6.678   7.493  0.0766  0.0593 -0.2549
  834YOPS   C1B12163  10.974   7.498   6.295 -0.3604  0.2539  0.2608
  834YOPS   C2B12164  10.581   7.769   6.537  0.2576 -0.1920 -0.0200
  834YOPS   D3B12165  10.419   8.041   6.808  0.0199  0.0326 -0.0076
  834YOPS   C4B12166  10.225   8.029   7.145  0.4204 -0.0992 -0.1384
  835YOPS   CNO12167  14.403   9.316   5.229 -0.0472  0.3768 -0.0905
  835YOPS   PO412168  14.539   8.862   5.130 -0.1598  0.1092 -0.2281
  835YOPS   GL112169  14.307   8.817   5.538  0.0759 -0.2839 -0.0840
  835YOPS   GL212170  14.129   8.654   5.670  0.4409 -0.1416 -0.0234
  835YOPS   C1A12171  14.366   9.042   5.899 -0.0550  0.1129 -0.3856
  835YOPS   D2A12172  14.234   9.407   6.114 -0.4004  0.1874  0.0308
  835YOPS   C3A12173  13.919   9.451   6.509  0.3738  0.1873  0.1048
  835YOPS   C4A12174  13.430   9.418   6.596  0.0002 -0.3545  0.4797
  835YOPS   C1B12175  14.216   8.609   6.124  0.2117 -0.0622 -0.0218
  835YOPS   C2B12176  14.244   8.896   6.396 -0.3555 -0.1154  0.2932
  835YOPS   D3B12177  14.235   9.168   6.701  0.1226  0.0790 -0.1605
  835YOPS   C4B12178  14.511   9.154   7.124 -0.0112 -0.0466  0.0430
  836YOPS   CNO12179  18.015   2.403   5.151  0.1076 -0.2916  0.1843
  836YOPS   PO412180  17.900   2.114   5.200 -0.2125  0.0820  0.1369
  836YOPS   GL112181  17.877   1.816   5.539 -0.0941  0.0262  0.0175
  836YOPS   GL212182  17.983   1.937   5.847 -0.3303  0.0242 -0.1401
  836YOPS   C1A12183  18.044   1.508   5.692  0.0926 -0.2846  0.2155
  836YOPS   D2A12184  18.260   1.319   6.074 -0.2345 -0.0785  0.1456
  836YOPS   C3A12185  18.484   1.090   6.340 -0.0726 -0.1214  0.1452
  836YOPS   C4A12186  18.531   0.959   6.769 -0.1620 -0.2638  0.2222
  836YOPS   C1B12187  17.869   2.320   6.047  0.3818 -0.2679  0.0244
  836YOPS   C2B12188  17.860   2.391   6.520  0.2029 -0.0791  0.2627
  836YOPS   D3B12189  18.039   2.425   6.937  0.1065  0.0493  0.3480
  836YOPS   C4B12190  18.427   2.701   6.977 -0.4005 -0.2500  0.0202
  837YOPS   CNO12191  11.582   6.416   5.500  0.0033  0.1637 -0.2921
  837YOPS   PO412192  11.277   6.694   5.640 -0.2226  0.2284  0.4478
  837YOPS   GL112193  11.250   6.754   6.008 -0.0539  0.2225  0.1592
  837YOPS   GL212194  10.949   6.723   5.995  0.0718 -0.0485 -0.1018
  837YOPS   C1A12195  11.474   6.632   6.439  0.0219  0.0491 -0.3760
  837YOPS   D2A12196  11.758   6.251   6.544 -0.1103  0.0732 -0.3044
  837YOPS   C3A12197  11.784   5.797   6.686  0.1854  0.2657  0.2236
  837YOPS   C4A12198  11.507   5.838   7.067  0.0739  0.0686 -0.0176
  837YOPS   C1B12199  10.666   6.995   6.230  0.0581  0.1766  0.1576
  837YOPS   C2B12200  10.780   7.153   6.668  0.1665 -0.6411 -0.1713
  837YOPS   D3B12201  10.797   7.196   7.051 -0.0807  0.2018  0.0235
  837YOPS   C4B12202  10.556   7.110   7.323 -0.0997  0.4903 -0.2247
  838YOPS   CNO12203   7.038  16.142   5.449  0.0352  0.0046  0.1517
  838YOPS   PO412204   6.948  15.682   5.628  0.1202  0.0082  0.3442
  838YOPS   GL112205   6.972  15.550   6.000 -0.0204 -0.0610 -0.0721
  838YOPS   GL212206   6.860  15.158   6.067 -0.0904 -0.2721  0.1950
  838YOPS   C1A12207   6.815  15.452   6.492  0.3349  0.3083  0.4722
  838YOPS   D2A12208   6.396  15.446   6.868 -0.0558  0.0934  0.1761
  838YOPS   C3A12209   6.193  15.417   7.329 -0.0629  0.2236 -0.0080
  838YOPS   C4A12210   6.062  15.625   7.640  0.1722 -0.2759 -0.3769
  838YOPS   C1B12211   6.784  14.911   6.424  0.2238  0.2559  0.0951
  838YOPS   C2B12212   6.718  15.059   6.842 -0.3167 -0.1016  0.1801
  838YOPS   D3B12213   6.884  15.459   7.034 -0.2438  0.0760  0.0063
  838YOPS   C4B12214   7.157  15.787   7.283 -0.1416 -0.1495 -0.3740
  839YOPS   CNO12215  14.631  13.802   4.664 -0.1486  0.0543  0.1869
  839YOPS   PO412216  14.791  13.700   5.009 -0.1205  0.2924  0.2170
  839YOPS   GL112217  14.527  13.827   5.400 -0.3836  0.0482 -0.1079
  839YOPS   GL212218  14.385  13.483   5.360 -0.1283 -0.2296 -0.3247
  839YOPS   C1A12219  14.727  13.933   5.716 -0.0848  0.1444  0.0453
  839YOPS   D2A12220  14.936  14.423   5.817  0.3157 -0.1065 -0.3344
  839YOPS   C3A12221  14.778  14.837   5.939  0.3532  0.1026 -0.0028
  839YOPS   C4A12222  14.386  14.777   6.049  0.0368  0.1341 -0.1844
  839YOPS   C1B12223  14.698  13.419   5.755  0.3442 -0.1140 -0.3325
  839YOPS   C2B12224  14.676  13.675   6.135 -0.0418 -0.0210  0.2218
  839YOPS   D3B12225  14.889  14.036   6.220 -0.0006 -0.0801  0.1204
  839YOPS   C4B12226  14.576  14.274   6.177  0.0280 -0.4933 -0.1368
  840YOPS   CNO12227  11.644  10.399   5.523  0.0053 -0.2030 -0.0539
  840YOPS   PO412228  11.374  10.062   5.768 -0.2598  0.1013  0.1601
  840YOPS   GL112229  11.646   9.872   6.131 -0.1597 -0.4251 -0.1376
  840YOPS   GL212230  11.832   9.724   5.871  0.4090 -0.0434 -0.2010
  840YOPS   C1A12231  11.920   9.631   6.416 -0.0983  0.2080  0.0270
  840YOPS   D2A12232  11.840   9.422   6.771  0.1940  0.3968 -0.2214
  840YOPS   C3A12233  11.695   9.313   7.192  0.2424 -0.0168  0.2224
  840YOPS   C4A12234  11.803   9.374   7.605  0.0667 -0.0991 -0.2638
  840YOPS   C1B12235  12.276   9.807   6.121  0.2800 -0.1292  0.1157
  840YOPS   C2B12236  12.536   9.724   6.418 -0.1136  0.3611 -0.5645
  840YOPS   D3B12237  12.745   9.659   6.798  0.1662 -0.1565  0.0753
  840YOPS   C4B12238  12.899   9.935   7.125 -0.0721  0.2469  0.0521
  841POPE   NH312239  14.070  12.603   5.213 -0.1294  0.2166  0.1486
  841POPE   PO412240  14.402  12.912   5.052 -0.2347 -0.1198  0.1457
  841POPE   GL112241  14.452  12.843   5.483 -0.1886  0.3961 -0.1492
  841POPE   GL212242  14.659  12.615   5.445 -0.0477  0.0576 -0.1845
  841POPE   C1A12243  14.594  12.845   5.870  0.2744 -0.1998  0.1553
  841POPE   D2A12244  14.643  12.437   6.176 -0.2184  0.0390  0.0074
  841POPE   C3A12245  14.583  12.372   6.694  0.2356 -0.2629  0.2573
  841POPE   C4A12246  14.390  12.015   6.956 -0.2275 -0.1240 -0.0334
  841POPE   C1B12247  14.900  12.333   5.539  0.1334 -0.2995  0.2116
  841POPE   C2B12248  15.131  12.211   5.917 -0.2268  0.1094 -0.0477
  841POPE   C3B12249  15.147  12.318   6.429 -0.0378  0.3234  0.0239
  841POPE   C4B12250  15.004  12.032   6.700  0.1444 -0.3010  0.3165
  842POPE   NH312251   6.668   4.266   5.825  0.0296  0.0418  0.0217
  842POPE   PO412252   6.361   4.558   5.686 -0.1286 -0.0641  0.1486
  842POPE   GL112253   6.365   4.587   6.062 -0.2759  0.3979  0.2141
  842POPE   GL212254   6.628   4.550   6.288  0.1582  0.0915  0.4286
  842POPE   C1A12255   6.165   4.418   6.458 -0.0585 -0.1727 -0.0270
  842POPE   D2A12256   5.895   4.287   6.759  0.4422  0.0985  0.0073
  842POPE   C3A12257   6.241   4.110   7.059  0.1392 -0.0718 -0.2445
  842POPE   C4A12258   6.625   3.923   7.242  0.1972 -0.1778  0.0249
  842POPE   C1B12259   6.566   4.713   6.636  0.1523  0.1384 -0.0423
  842POPE   C2B12260   6.786   4.844   6.972 -0.0722  0.0970  0.1964
  842POPE   C3B12261   6.993   5.182   7.019 -0.2443 -0.2100 -0.0391
  842POPE   C4B12262   7.299   5.615   7.152 -0.0971 -0.1345  0.0145
  843POPE   NH312263   8.308   4.831   5.644  0.1616  0.0578  0.1305
  843POPE   PO412264   8.219   5.204   5.606 -0.2069  0.0598 -0.0906
  843POPE   GL112265   8.506   5.171   5.904  0.0607  0.0170  0.0876
  843POPE   GL212266   8.692   4.934   6.116 -0.2558  0.1626 -0.3024
  843POPE   C1A12267   8.412   5.380   6.289  0.0388 -0.3323 -0.2208
  843POPE   D2A12268   8.065   5.222   6.661 -0.1719 -0.1751  0.2335
  843POPE   C3A12269   8.208   5.305   7.085 -0.1860 -0.4949 -0.2013
  843POPE   C4A12270   8.292   5.485   7.498 -0.1652  0.0377  0.1587
  843POPE   C1B12271   8.800   4.956   6.535  0.1790 -0.1745 -0.0484
  843POPE   C2B12272   8.962   4.938   6.906  0.1248 -0.2054  0.1236
  843POPE   C3B12273   8.946   4.750   7.225  0.0352 -0.1733  0.4144
  843POPE   C4B12274   8.744   4.426   7.475 -0.0282 -0.1999  0.2148
  844POPE   NH312275  10.566   1.699   5.381  0.0783 -0.0040  0.2583
  844POPE   PO412276  10.883   2.032   5.611  0.1478 -0.1237  0.2637
  844POPE   GL112277  10.922   1.784   5.922  0.1765 -0.2309 -0.0290
  844POPE   GL212278  10.895   1.922   6.272  0.0072  0.4239 -0.0106
  844POPE   C1A12279  11.142   1.511   6.077 -0.1812 -0.0732  0.0587
  844POPE   D2A12280  11.499   1.364   6.386 -0.3960 -0.0521  0.0944
  844POPE   C3A12281  11.700   1.543   6.775 -0.3321 -0.1639  0.2013
  844POPE   C4A12282  11.698   2.039   6.976 -0.0334 -0.1973  0.0152
  844POPE   C1B12283  10.933   1.521   6.561 -0.1509 -0.1167 -0.1925
  844POPE   C2B12284  10.648   1.394   6.793 -0.0980  0.1493  0.0373
  844POPE   C3B12285  10.282   1.339   6.783  0.0650 -0.0198 -0.1752
  844POPE   C4B12286   9.900   1.144   7.009 -0.0860 -0.2677  0.3819
  845POPE   NH312287  15.435  18.032   5.154 -0.1596  0.1592  0.0100
  845POPE   PO412288  15.794  18.184   5.262 -0.1638  0.0744 -0.3742
  845POPE   GL112289  15.388  18.355   5.571 -0.1498  0.3885 -0.0307
  845POPE   GL212290  15.229  18.001   5.716  0.1522  0.0515  0.1033
  845POPE   C1A12291  15.116  18.627   5.869 -0.0987  0.1730 -0.0373
  845POPE   D2A12292  14.764  18.844   5.865  0.4754 -0.2485  0.2873
  845POPE   C3A12293  14.394  18.700   6.099  0.1777 -0.2072 -0.1278
  845POPE   C4A12294  14.074  18.479   6.332  0.1624  0.0477  0.1852
  845POPE   C1B12295  14.986  17.859   6.125  0.0372 -0.2544  0.0765
  845POPE   C2B12296  14.927  17.698   6.447  0.1521 -0.0709 -0.3440
  845POPE   C3B12297  15.033  17.920   6.784  0.1497  0.1744  0.2081
  845POPE   C4B12298  15.150  17.818   7.127  0.1342 -0.2438 -0.2190
  846POPE   NH312299  13.602  11.069   4.977 -0.0020 -0.0153 -0.0870
  846POPE   PO412300  13.267  11.253   5.166  0.0782 -0.1012 -0.0305
  846POPE   GL112301  13.378  10.999   5.511  0.3500  0.0052 -0.1617
  846POPE   GL212302  13.645  11.114   5.769 -0.0453  0.1022  0.0084
  846POPE   C1A12303  13.446  10.601   5.764 -0.0364  0.2293 -0.0040
  846POPE   D2A12304  13.741  10.579   6.091  0.1466 -0.0848 -0.1277
  846POPE   C3A12305  13.955  10.933   6.355  0.4400  0.0710 -0.1755
  846POPE   C4A12306  14.240  11.046   6.686  0.0600  0.1364  0.1506
  846POPE   C1B12307  13.735  11.299   6.144  0.0579 -0.0279  0.1632
  846POPE   C2B12308  13.756  11.357   6.615  0.1378  0.0232 -0.0803
  846POPE   C3B12309  13.909  11.368   7.036  0.2044 -0.0108 -0.2282
  846POPE   C4B12310  14.298  11.244   7.252  0.0545  0.1961  0.1087
  847POPE   NH312311  17.214   4.712   5.665 -0.0296 -0.1150 -0.3361
  847POPE   PO412312  16.899   4.523   5.462 -0.0483 -0.2042 -0.0042
  847POPE   GL112313  16.803   4.296   5.791 -0.2456 -0.0295 -0.1712
  847POPE   GL212314  16.913   4.475   6.025 -0.2789  0.1940 -0.0373
  847POPE   C1A12315  16.455   4.150   6.104  0.1945  0.1915 -0.1017
  847POPE   D2A12316  16.386   3.947   6.552 -0.2145  0.2213  0.0209
  847POPE   C3A12317  16.668   4.135   6.867 -0.2116  0.1103 -0.1065
  847POPE   C4A12318  16.785   4.363   7.160  0.0549  0.0627  0.1061
  847POPE   C1B12319  16.743   4.386   6.459 -0.1651  0.2258  0.0084
  847POPE   C2B12320  16.723   4.698   6.742  0.2702  0.1891 -0.3621
  847POPE   C3B12321  16.434   5.032   6.885  0.4468  0.0150 -0.3435
  847POPE   C4B12322  16.047   4.964   7.014  0.1396 -0.2259  0.2880
  848POPE   NH312323   9.377   0.450   5.124  0.2011 -0.0282  0.0362
  848POPE   PO412324   9.677   0.435   5.324 -0.1245  0.3485  0.0739
  848POPE   GL112325   9.350   0.419   5.666 -0.0263 -0.2563 -0.0290
  848POPE   GL212326   9.223   0.640   5.943  0.0166  0.0061  0.2581
  848POPE   C1A12327   8.967   0.228   5.874 -0.1237  0.1332 -0.2492
  848POPE   D2A12328   8.559   0.228   6.123 -0.1337 -0.0297  0.0894
  848POPE   C3A12329   8.406  -0.152   6.128  0.0296 -0.0621 -0.0608
  848POPE   C4A12330   7.983  -0.362   6.082  0.0229 -0.0017  0.2120
  848POPE   C1B12331   9.297   0.469   6.361  0.1117 -0.0148  0.0420
  848POPE   C2B12332   9.056   0.441   6.802  0.1663 -0.0779  0.2660
  848POPE   C3B12333   8.702   0.328   7.067  0.1260 -0.3301 -0.0278
  848POPE   C4B12334   8.291   0.248   6.954  0.4631 -0.0948 -0.0744
  849POPE   NH312335   0.761  17.174   5.496  0.0026  0.0715 -0.2246
  849POPE   PO412336   0.762  16.757   5.282 -0.1453  0.1694  0.0690
  849POPE   GL112337   0.647  16.763   5.756 -0.0671  0.2173  0.0133
  849POPE   GL212338   0.431  16.964   5.808 -0.3186  0.0458  0.2274
  849POPE   C1A12339   0.637  16.659   6.215  0.0712 -0.0145 -0.0174
  849POPE   D2A12340   0.724  16.401   6.662  0.0677  0.1580  0.3991
  849POPE   C3A12341   0.718  16.383   7.059 -0.1625  0.4171 -0.2079
  849POPE   C4A12342   0.696  16.365   7.501 -0.0598 -0.0505  0.0125
  849POPE   C1B12343   0.661  17.303   6.126 -0.1994  0.3632 -0.2238
  849POPE   C2B12344   0.758  17.499   6.560 -0.0746 -0.1301  0.3330
  849POPE   C3B12345   0.935  17.725   6.800  0.1374 -0.1435  0.2184
  849POPE   C4B12346   0.780  18.040   7.027 -0.4355  0.1558  0.0369
  850POPE   NH312347  18.321  18.950   5.023 -0.2894 -0.0382 -0.1669
  850POPE   PO412348  18.526  18.596   4.945 -0.2045 -0.0165 -0.3356
  850POPE   GL112349  18.542  18.584   5.428 -0.1005  0.0539 -0.2305
  850POPE   GL212350  18.576  18.921   5.525 -0.1268 -0.1078 -0.1987
  850POPE   C1A12351  18.421  18.453   5.813  0.0583 -0.2792 -0.0156
  850POPE   D2A12352  18.438  18.252   6.156  0.0025  0.2082 -0.1012
  850POPE   C3A12353  18.371  18.455   6.579  0.1762 -0.2376 -0.1858
  850POPE   C4A12354  18.274  18.547   7.056  0.1844 -0.2639  0.2222
  850POPE   C1B12355  18.687  18.882   5.959  0.1236 -0.3824 -0.0326
  850POPE   C2B12356  18.476  19.052   6.372 -0.0621  0.3889  0.1298
  850POPE   C3B12357  18.057  18.916   6.622 -0.0023  0.0585  0.3006
  850POPE   C4B12358  17.784  18.771   7.022  0.0354  0.0615 -0.3594
  851POPE   NH312359  12.734   8.335   5.316  0.2891  0.0643 -0.0397
  851POPE   PO412360  12.877   7.904   5.125 -0.3100 -0.1189 -0.3729
  851POPE   GL112361  12.952   8.019   5.612 -0.1420  0.3148  0.2170
  851POPE   GL212362  13.236   8.156   5.504 -0.2491 -0.1498  0.1347
  851POPE   C1A12363  13.016   8.362   5.908  0.0637 -0.0167  0.2144
  851POPE   D2A12364  12.980   8.177   6.375  0.1826 -0.2974 -0.0661
  851POPE   C3A12365  13.219   8.168   6.776  0.2514 -0.1189  0.2444
  851POPE   C4A12366  13.482   8.519   6.946 -0.0665  0.0116 -0.2049
  851POPE   C1B12367  13.389   8.007   6.006 -0.0493 -0.2090  0.0386
  851POPE   C2B12368  13.498   7.839   6.431 -0.1144  0.0851  0.1980
  851POPE   C3B12369  13.713   7.998   6.837  0.3775  0.0241  0.2596
  851POPE   C4B12370  13.662   7.964   7.283 -0.2068 -0.2423  0.2902
  852POPE   NH312371   4.775   3.753   5.464 -0.1657 -0.1210 -0.3009
  852POPE   PO412372   4.424   3.729   5.265 -0.1790 -0.1636 -0.0384
  852POPE   GL112373   4.344   3.709   5.760  0.1795 -0.0026  0.3554
  852POPE   GL212374   4.064   3.551   5.919 -0.0693 -0.0796 -0.0237
  852POPE   C1A12375   4.444   3.624   6.269  0.1981 -0.0219 -0.3769
  852POPE   D2A12376   4.625   3.397   6.677 -0.2106 -0.2558  0.2468
  852POPE   C3A12377   4.371   3.139   6.900  0.1984 -0.1951 -0.2544
  852POPE   C4A12378   4.461   2.812   7.235  0.3349 -0.0561 -0.0816
  852POPE   C1B12379   3.951   3.839   6.343  0.1790  0.1787 -0.3259
  852POPE   C2B12380   4.130   4.286   6.526  0.0981 -0.0137 -0.0394
  852POPE   C3B12381   3.884   4.550   6.968 -0.1092 -0.1850  0.0408
  852POPE   C4B12382   3.920   4.573   7.456  0.0164  0.1608  0.1003
  853POPE   NH312383   6.647   2.676   5.246 -0.0211  0.1324 -0.1948
  853POPE   PO412384   6.177   2.726   5.289 -0.0253  0.0873  0.0589
  853POPE   GL112385   6.039   2.796   5.708 -0.2434 -0.0890  0.5090
  853POPE   GL212386   6.275   2.838   5.993  0.1188 -0.1476  0.0223
  853POPE   C1A12387   5.797   2.808   6.072  0.3847  0.1671 -0.0146
  853POPE   D2A12388   5.654   2.920   6.501  0.0453  0.2397  0.0192
  853POPE   C3A12389   5.395   2.569   6.721 -0.1569  0.1330  0.1187
  853POPE   C4A12390   5.176   2.506   7.135  0.3937 -0.3503 -0.3185
  853POPE   C1B12391   6.185   2.902   6.395  0.0073  0.2497  0.1851
  853POPE   C2B12392   6.362   3.133   6.743 -0.2362  0.2535 -0.1009
  853POPE   C3B12393   6.599   2.818   7.036 -0.0357  0.0090 -0.3725
  853POPE   C4B12394   6.862   2.600   7.429  0.2677 -0.0896 -0.0898
  854POPE   NH312395  16.806   1.023   6.084 -0.1334 -0.1871  0.0812
  854POPE   PO412396  16.935   0.638   5.899 -0.0001 -0.2762 -0.0535
  854POPE   GL112397  16.960   0.363   6.035  0.0022  0.0527 -0.2420
  854POPE   GL212398  17.193   0.112   5.991  0.1693  0.2038  0.0042
  854POPE   C1A12399  16.807   0.272   6.535  0.1009 -0.1087 -0.1539
  854POPE   D2A12400  16.748   0.119   6.939 -0.3543  0.0560 -0.2136
  854POPE   C3A12401  16.682   0.397   7.277  0.1761  0.0433 -0.1286
  854POPE   C4A12402  16.648   0.280   7.704  0.0427 -0.1668  0.0167
  854POPE   C1B12403  17.315   0.228   6.476  0.3488 -0.1564 -0.1202
  854POPE   C2B12404  17.551   0.230   6.939 -0.1613  0.1302 -0.0769
  854POPE   C3B12405  17.809   0.496   7.164 -0.1071  0.1087 -0.1590
  854POPE   C4B12406  18.277   0.387   7.173 -0.0981  0.2365  0.0621
  855POPE   NH312407   2.446   1.370   5.257  0.1752 -0.1463  0.2902
  855POPE   PO412408   2.037   1.588   5.207 -0.1229  0.2662  0.1091
  855POPE   GL112409   2.000   1.555   5.628  0.1076 -0.1532  0.2253
  855POPE   GL212410   2.117   1.262   5.786  0.1523  0.0823 -0.3000
  855POPE   C1A12411   1.884   1.654   6.062 -0.0675 -0.3454  0.1330
  855POPE   D2A12412   1.917   1.917   6.426  0.2619  0.2052  0.4855
  855POPE   C3A12413   1.675   2.167   6.676  0.6001 -0.0879 -0.2264
  855POPE   C4A12414   1.567   2.543   6.500  0.0044 -0.0090 -0.3066
  855POPE   C1B12415   2.245   1.021   6.138 -0.1176 -0.1472  0.0947
  855POPE   C2B12416   2.592   1.056   6.535 -0.0035  0.4389  0.0444
  855POPE   C3B12417   2.384   0.971   6.915  0.0660  0.0083  0.3534
  855POPE   C4B12418   2.445   1.047   7.378 -0.0175  0.0186 -0.0460
  856POPE   NH312419   1.035  17.887   5.408 -0.1279  0.0107  0.0823
  856POPE   PO412420   0.648  17.657   5.335 -0.0598 -0.1941  0.0621
  856POPE   GL112421   0.491  17.746   5.689 -0.1337 -0.7929 -0.0920
  856POPE   GL212422   0.254  17.543   5.958  0.0790 -0.3567 -0.2959
  856POPE   C1A12423   0.498  18.059   6.024  0.0242  0.2789 -0.1190
  856POPE   D2A12424   0.560  17.962   6.484 -0.0672 -0.0349 -0.3076
  856POPE   C3A12425   0.331  17.716   6.761  0.1021  0.0213  0.0167
  856POPE   C4A12426  -0.058  17.505   6.829 -0.0249 -0.0560 -0.2311
  856POPE   C1B12427   0.200  17.498   6.391  0.0044 -0.2507 -0.0657
  856POPE   C2B12428   0.410  17.137   6.504  0.0515 -0.1276 -0.2867
  856POPE   C3B12429   0.585  16.930   6.832  0.1643 -0.1220 -0.3718
  856POPE   C4B12430   0.709  16.858   7.213  0.0539 -0.2612 -0.0922
  857POPE   NH312431  13.365   2.500   5.157  0.3153 -0.1133 -0.1970
  857POPE   PO412432  13.865   2.354   5.232  0.0798 -0.0240  0.1703
  857POPE   GL112433  13.761   2.294   5.580 -0.0230 -0.0235 -0.0296
  857POPE   GL212434  13.406   2.118   5.550 -0.0935  0.2238 -0.0140
  857POPE   C1A12435  13.838   2.342   6.005 -0.1390  0.2379 -0.2238
  857POPE   D2A12436  13.723   2.182   6.414 -0.0502 -0.3839  0.0819
  857POPE   C3A12437  13.938   2.191   6.819 -0.0970 -0.0938 -0.1354
  857POPE   C4A12438  14.112   2.138   7.241  0.0546  0.0421  0.1639
  857POPE   C1B12439  13.310   2.249   5.942  0.1381  0.0883 -0.2164
  857POPE   C2B12440  13.234   2.297   6.365 -0.3876 -0.0499  0.2244
  857POPE   C3B12441  13.174   2.538   6.568  0.3843  0.0501 -0.0556
  857POPE   C4B12442  13.019   2.392   6.921 -0.1282 -0.0288 -0.3631
  858POPE   NH312443   0.526   4.523   5.080 -0.1405  0.0543  0.0598
  858POPE   PO412444   0.935   4.631   5.287  0.1811  0.4618 -0.0937
  858POPE   GL112445   0.577   4.774   5.505 -0.0467 -0.2359 -0.0255
  858POPE   GL212446   0.590   5.143   5.539 -0.3204 -0.0347 -0.2986
  858POPE   C1A12447   0.569   4.556   5.868 -0.0141 -0.0033  0.1577
  858POPE   D2A12448   0.166   4.771   6.181 -0.3286 -0.5506  0.1744
  858POPE   C3A12449  -0.214   4.909   6.427  0.3355 -0.0119  0.2318
  858POPE   C4A12450  -0.602   4.840   6.525  0.0129 -0.3430  0.1597
  858POPE   C1B12451   0.747   5.108   5.963 -0.0224  0.2171 -0.0376
  858POPE   C2B12452   0.891   4.826   6.088 -0.0878 -0.0658  0.2220
  858POPE   C3B12453   1.001   4.550   6.310  0.2201 -0.0866  0.2367
  858POPE   C4B12454   0.910   4.140   6.569  0.2521 -0.0488  0.0367
  859POPE   NH312455   9.945  14.387   5.673  0.1761 -0.1457  0.0534
  859POPE   PO412456  10.193  14.731   5.911 -0.3888 -0.1519 -0.1571
  859POPE   GL112457  10.495  14.525   6.045  0.0480  0.2760 -0.1609
  859POPE   GL212458  10.763  14.285   5.806 -0.1519  0.0030 -0.1700
  859POPE   C1A12459  10.559  14.329   6.365  0.0402  0.0249  0.3834
  859POPE   D2A12460  10.794  14.073   6.642  0.0412 -0.0790  0.2708
  859POPE   C3A12461  10.681  13.595   6.641  0.0349 -0.1373  0.1222
  859POPE   C4A12462  10.838  13.126   6.621 -0.0299  0.2497  0.1530
  859POPE   C1B12463  10.992  14.262   6.204  0.2563  0.0739  0.1853
  859POPE   C2B12464  11.042  14.546   6.577 -0.1763  0.3866 -0.1530
  859POPE   C3B12465  11.266  14.617   6.838 -0.0368 -0.2081 -0.2488
  859POPE   C4B12466  11.616  14.770   6.951 -0.0399  0.2420  0.1612
  860POPE   NH312467  10.769   3.001   4.994  0.2851  0.2396 -0.0993
  860POPE   PO412468  10.547   2.730   5.337  0.0872 -0.1288 -0.1824
  860POPE   GL112469  10.461   2.771   5.732  0.3463 -0.1419  0.1648
  860POPE   GL212470  10.612   2.386   5.943  0.0204  0.2080 -0.1858
  860POPE   C1A12471  10.413   3.133   6.042  0.1580  0.2206  0.0551
  860POPE   D2A12472  10.565   3.168   6.550  0.0905  0.1033 -0.0066
  860POPE   C3A12473  10.586   3.636   6.740 -0.1813 -0.2126 -0.1985
  860POPE   C4A12474  10.583   4.077   6.744  0.0961  0.2051 -0.3010
  860POPE   C1B12475  10.576   2.275   6.347 -0.1770  0.0751  0.1724
  860POPE   C2B12476  10.407   2.285   6.671 -0.1002 -0.0703  0.1477
  860POPE   C3B12477  10.135   2.504   6.913  0.0582 -0.0630  0.1232
  860POPE   C4B12478  10.240   2.569   7.372 -0.0218 -0.2011 -0.1740
  861POPE   NH312479   4.828  17.761   5.494 -0.2430  0.1786  0.0509
  861POPE   PO412480   5.278  17.755   5.619 -0.2166  0.3006  0.0579
  861POPE   GL112481   5.279  17.829   5.952 -0.0371 -0.0777 -0.1428
  861POPE   GL212482   5.360  18.188   5.894 -0.2073 -0.0109  0.0137
  861POPE   C1A12483   5.250  17.766   6.425  0.1255  0.3775 -0.2000
  861POPE   D2A12484   5.213  17.716   6.835  0.0582  0.2150 -0.2059
  861POPE   C3A12485   4.838  17.805   7.083  0.0385  0.0631  0.1416
  861POPE   C4A12486   4.729  17.875   7.450 -0.0575  0.0077  0.0813
  861POPE   C1B12487   5.070  18.180   6.256  0.0178  0.0159  0.1908
  861POPE   C2B12488   5.004  18.256   6.639  0.0333  0.1394  0.1161
  861POPE   C3B12489   5.134  18.228   7.052  0.3250  0.4627 -0.2901
  861POPE   C4B12490   5.182  18.100   7.413 -0.0923 -0.0747 -0.5791
  862POPE   NH312491   4.901  11.398   5.409 -0.0440  0.1948  0.2838
  862POPE   PO412492   5.130  11.827   5.444 -0.3536 -0.1309  0.3220
  862POPE   GL112493   4.979  11.823   5.857 -0.3407  0.0962 -0.0077
  862POPE   GL212494   4.693  11.665   5.917  0.0131 -0.1665 -0.1848
  862POPE   C1A12495   4.711  12.107   6.251  0.0278  0.0399  0.1131
  862POPE   D2A12496   4.445  12.526   6.476 -0.1728  0.3249  0.1833
  862POPE   C3A12497   4.211  12.436   6.930 -0.2153  0.0312  0.0680
  862POPE   C4A12498   3.961  12.347   7.287  0.1328 -0.2841  0.1071
  862POPE   C1B12499   4.858  11.636   6.340  0.1089  0.0968  0.2430
  862POPE   C2B12500   5.106  11.941   6.539  0.0735  0.5122  0.1658
  862POPE   C3B12501   5.082  11.852   6.936 -0.2403  0.1751 -0.2172
  862POPE   C4B12502   5.058  11.974   7.413 -0.1223 -0.1153  0.0339
  863POPE   NH312503   1.884   6.576   5.574 -0.0054 -0.3599  0.0650
  863POPE   PO412504   2.158   6.325   5.637 -0.1203 -0.1498 -0.0356
  863POPE   GL112505   2.309   6.053   5.924 -0.2104 -0.0797 -0.2206
  863POPE   GL212506   2.691   5.974   6.052  0.1669  0.0288 -0.2239
  863POPE   C1A12507   2.214   6.048   6.362  0.1209 -0.1359  0.3746
  863POPE   D2A12508   2.217   5.882   6.757  0.2382  0.2564 -0.0593
  863POPE   C3A12509   2.366   6.137   7.100  0.2679  0.3330  0.1617
  863POPE   C4A12510   2.305   6.599   7.045 -0.4914  0.1863 -0.1157
  863POPE   C1B12511   2.714   5.982   6.479  0.1050 -0.1470  0.1582
  863POPE   C2B12512   2.622   5.642   6.637 -0.2409 -0.2115  0.1454
  863POPE   C3B12513   2.478   5.531   6.997  0.2076  0.2091  0.1823
  863POPE   C4B12514   2.164   5.705   7.265 -0.0486 -0.0534 -0.0478
  864POPE   NH312515   7.555   2.868   5.066 -0.0375  0.0650 -0.3045
  864POPE   PO412516   7.969   3.166   5.030  0.0901 -0.0380  0.1725
  864POPE   GL112517   7.932   3.139   5.523 -0.4437 -0.3292 -0.0240
  864POPE   GL212518   8.206   3.348   5.610 -0.0049  0.1813 -0.4203
  864POPE   C1A12519   7.666   2.879   5.792 -0.0873  0.1345 -0.0215
  864POPE   D2A12520   7.510   2.573   6.077  0.2051  0.1498 -0.0194
  864POPE   C3A12521   7.251   2.647   6.451 -0.1720 -0.0184 -0.1913
  864POPE   C4A12522   7.065   2.522   6.868  0.1063  0.2644  0.1787
  864POPE   C1B12523   7.941   3.224   6.041  0.0538 -0.1793  0.0644
  864POPE   C2B12524   7.854   2.866   6.322 -0.3487  0.1661  0.4785
  864POPE   C3B12525   8.075   2.687   6.661  0.1616 -0.0087  0.2717
  864POPE   C4B12526   8.101   2.618   7.117 -0.5519  0.0150 -0.3015
  865POPE   NH312527  14.674   8.797   4.678 -0.0612  0.1980 -0.0127
  865POPE   PO412528  14.839   8.451   4.940  0.2154 -0.2410 -0.0085
  865POPE   GL112529  14.624   8.443   5.338 -0.3655  0.0031  0.1570
  865POPE   GL212530  14.347   8.257   5.323 -0.0158  0.0276  0.2823
  865POPE   C1A12531  14.684   8.584   5.774 -0.1578  0.4605  0.0394
  865POPE   D2A12532  14.692   8.728   6.193  0.0853  0.0816 -0.2816
  865POPE   C3A12533  14.788   8.570   6.551  0.0769  0.0838  0.1154
  865POPE   C4A12534  14.632   8.796   6.825 -0.1843  0.0739  0.2701
  865POPE   C1B12535  14.341   8.237   5.723 -0.1161 -0.2416  0.2495
  865POPE   C2B12536  14.539   8.248   6.126  0.0012  0.0796  0.1938
  865POPE   C3B12537  14.653   8.095   6.487  0.2201 -0.2125  0.2072
  865POPE   C4B12538  14.887   7.730   6.654  0.0783  0.2180 -0.1902
  866POPE   NH312539  10.450   2.196   5.397 -0.2626  0.2908 -0.1860
  866POPE   PO412540  10.110   2.142   5.145  0.2569  0.1084 -0.3555
  866POPE   GL112541  10.020   1.950   5.574 -0.3701  0.0938  0.2959
  866POPE   GL212542  10.334   1.960   5.868 -0.0058 -0.0127  0.1761
  866POPE   C1A12543   9.826   1.832   5.848 -0.0243  0.0323 -0.1221
  866POPE   D2A12544   9.616   2.128   6.162 -0.2929  0.1281 -0.0456
  866POPE   C3A12545   9.493   1.937   6.593  0.0053  0.1083 -0.2036
  866POPE   C4A12546   9.363   1.760   6.998 -0.2061 -0.2798  0.0377
  866POPE   C1B12547  10.146   2.044   6.236 -0.0089  0.2900  0.1441
  866POPE   C2B12548   9.922   2.151   6.630 -0.0571  0.3691  0.2583
  866POPE   C3B12549   9.742   2.215   7.034  0.1105  0.0879  0.2108
  866POPE   C4B12550   9.330   2.311   7.010  0.0605 -0.0545  0.0552
  867POPE   NH312551  12.998   3.920   5.554 -0.1298 -0.0184  0.0888
  867POPE   PO412552  13.289   3.527   5.439  0.1343  0.1620 -0.1027
  867POPE   GL112553  13.338   3.437   5.841 -0.1384  0.0587  0.0233
  867POPE   GL212554  13.123   3.438   6.060 -0.2062  0.1010 -0.0223
  867POPE   C1A12555  13.599   3.376   6.170  0.2471  0.0181  0.1132
  867POPE   D2A12556  13.921   3.260   6.392 -0.0533  0.2169 -0.3033
  867POPE   C3A12557  13.851   3.112   6.765 -0.2593 -0.0859 -0.1454
  867POPE   C4A12558  13.853   3.191   7.307  0.3973  0.1152  0.0802
  867POPE   C1B12559  13.252   3.605   6.448 -0.4061  0.0502  0.0934
  867POPE   C2B12560  13.379   3.558   6.826 -0.1018  0.3481  0.3511
  867POPE   C3B12561  13.270   3.322   7.174  0.0504  0.1712 -0.0460
  867POPE   C4B12562  13.411   3.331   7.574  0.0319 -0.0502 -0.2390
  868POPE   NH312563   2.814  11.127   4.998  0.1544 -0.4154 -0.1010
  868POPE   PO412564   3.178  11.412   4.848 -0.3404  0.0417  0.2976
  868POPE   GL112565   3.219  11.437   5.348 -0.1045 -0.1279  0.0298
  868POPE   GL212566   3.587  11.322   5.290 -0.0598 -0.0283 -0.2923
  868POPE   C1A12567   3.062  11.583   5.748 -0.0863  0.1669 -0.0325
  868POPE   D2A12568   3.023  11.948   6.043  0.1659  0.0488  0.0553
  868POPE   C3A12569   3.107  12.411   6.156 -0.1573  0.3978 -0.2377
  868POPE   C4A12570   3.113  12.662   6.418 -0.0296 -0.1405  0.0756
  868POPE   C1B12571   3.544  11.250   5.702 -0.0144  0.1660  0.1746
  868POPE   C2B12572   3.401  11.058   6.016  0.2980  0.3579  0.3718
  868POPE   C3B12573   3.513  10.869   6.397  0.4085 -0.1606 -0.2837
  868POPE   C4B12574   3.946  10.600   6.481  0.1747 -0.2937 -0.2596
  869POPE   NH312575   1.687   1.949   4.941  0.1202  0.0545 -0.0673
  869POPE   PO412576   1.254   1.836   5.026 -0.0676 -0.0565  0.0436
  869POPE   GL112577   1.512   1.753   5.431 -0.0200 -0.1907  0.1427
  869POPE   GL212578   1.491   1.475   5.406 -0.0667 -0.0041 -0.0467
  869POPE   C1A12579   1.678   2.019   5.719 -0.2022  0.0476 -0.0681
  869POPE   D2A12580   1.685   2.230   6.109  0.1346 -0.1529 -0.2533
  869POPE   C3A12581   1.340   2.353   6.042  0.4112  0.0232 -0.1178
  869POPE   C4A12582   1.079   2.593   5.822 -0.2646 -0.0150  0.1288
  869POPE   C1B12583   1.401   1.463   5.873 -0.2102  0.1194  0.1961
  869POPE   C2B12584   1.176   1.338   6.266 -0.0669 -0.0712  0.1883
  869POPE   C3B12585   0.891   1.445   6.666 -0.2037 -0.0547 -0.1243
  869POPE   C4B12586   0.766   1.255   6.987 -0.0418 -0.1894 -0.1283
  870POPE   NH312587  16.909   8.571   5.188  0.2916  0.3341 -0.1630
  870POPE   PO412588  17.140   8.912   5.304  0.1126 -0.0895 -0.4131
  870POPE   GL112589  17.443   8.926   5.698  0.2639 -0.3700  0.3594
  870POPE   GL212590  17.741   9.112   5.809 -0.3841  0.0028 -0.1010
  870POPE   C1A12591  17.430   8.758   6.182 -0.0195  0.0389 -0.3675
  870POPE   D2A12592  17.716   8.630   6.545  0.1843  0.0785  0.0831
  870POPE   C3A12593  17.783   8.978   6.818  0.0658 -0.2507 -0.2192
  870POPE   C4A12594  17.604   9.319   7.234 -0.0592 -0.1360  0.1289
  870POPE   C1B12595  17.832   9.612   5.943 -0.0146 -0.4170 -0.1453
  870POPE   C2B12596  17.595   9.868   6.274  0.1702 -0.0885 -0.2882
  870POPE   C3B12597  17.370  10.304   6.266 -0.2202 -0.1280  0.1662
  870POPE   C4B12598  17.196  10.706   6.137  0.1369 -0.0393  0.0406
  871YOPE   NH312599   3.469   6.744   5.525 -0.1293  0.0592  0.0666
  871YOPE   PO412600   3.124   6.380   5.459  0.1067  0.0105  0.4577
  871YOPE   GL112601   2.918   6.701   5.726 -0.1587  0.1998 -0.2676
  871YOPE   GL212602   2.682   6.462   5.868  0.2460  0.1986 -0.3913
  871YOPE   C1A12603   2.584   6.943   6.099  0.2387 -0.1928 -0.0399
  871YOPE   D2A12604   2.595   7.060   6.539 -0.0229 -0.3224  0.0664
  871YOPE   C3A12605   2.850   6.673   6.691  0.1814 -0.0240  0.1645
  871YOPE   C4A12606   3.324   6.599   6.996  0.1270 -0.2074 -0.1165
  871YOPE   C1B12607   2.498   6.448   6.300 -0.1496 -0.2091  0.2038
  871YOPE   C2B12608   2.222   6.725   6.517  0.3197 -0.0919  0.1138
  871YOPE   D3B12609   2.062   7.088   6.844  0.4627  0.2485  0.2799
  871YOPE   C4B12610   2.051   7.380   7.151 -0.1111  0.2561 -0.0491
  872YOPE   NH312611   1.682   5.970   5.718  0.3180  0.1995  0.1052
  872YOPE   PO412612   1.573   6.299   5.350  0.0470 -0.1891  0.2546
  872YOPE   GL112613   1.418   6.471   5.757 -0.1188  0.2843 -0.1083
  872YOPE   GL212614   1.600   6.345   6.000 -0.1963 -0.1423 -0.1386
  872YOPE   C1A12615   1.195   6.696   6.105  0.3284  0.0470  0.0416
  872YOPE   D2A12616   1.011   6.697   6.471  0.0780  0.0808  0.1675
  872YOPE   C3A12617   1.131   6.822   6.899  0.0751 -0.1152 -0.0199
  872YOPE   C4A12618   1.253   6.970   7.256  0.0970 -0.2032  0.1597
  872YOPE   C1B12619   1.812   6.311   6.357 -0.1403  0.0825  0.0159
  872YOPE   C2B12620   1.947   6.281   6.791 -0.4529  0.2727  0.1116
  872YOPE   D3B12621   1.829   6.216   7.123 -0.4311 -0.4492  0.1066
  872YOPE   C4B12622   1.702   5.817   7.428  0.2805  0.2696 -0.0769
  873YOPE   NH312623   8.149   8.332   5.811  0.0730 -0.0018  0.0083
  873YOPE   PO412624   8.530   8.625   5.956  0.3095  0.1633 -0.0833
  873YOPE   GL112625   8.548   8.773   6.295 -0.2201  0.0543 -0.0878
  873YOPE   GL212626   8.531   9.153   6.338 -0.0871 -0.1408 -0.2076
  873YOPE   C1A12627   8.247   8.676   6.642  0.0336  0.2010  0.1515
  873YOPE   D2A12628   8.397   8.490   7.112  0.3932  0.2329  0.0820
  873YOPE   C3A12629   8.397   8.066   7.209  0.1483 -0.4403  0.0232
  873YOPE   C4A12630   8.508   7.769   7.548 -0.0635 -0.0584  0.0089
  873YOPE   C1B12631   8.284   9.338   6.710  0.2662  0.0721  0.0984
  873YOPE   C2B12632   8.074   9.542   7.082 -0.2141 -0.0441  0.0798
  873YOPE   D3B12633   7.954   9.330   7.506  0.1928  0.1718 -0.1768
  873YOPE   C4B12634   7.910   9.271   8.013 -0.0327 -0.1766  0.0881
  874YOPE   NH312635   1.029   4.121   5.144 -0.0634 -0.0769  0.0949
  874YOPE   PO412636   0.568   3.935   5.226  0.0619 -0.0402 -0.0823
  874YOPE   GL112637   0.533   3.848   5.628  0.1405  0.0858 -0.1277
  874YOPE   GL212638   0.551   3.503   5.698 -0.0345  0.2904 -0.1112
  874YOPE   C1A12639   0.416   3.730   6.137  0.0828 -0.1720 -0.0124
  874YOPE   D2A12640   0.700   3.629   6.405 -0.0583  0.0564  0.4037
  874YOPE   C3A12641   0.666   3.679   6.862 -0.0946  0.2299  0.0332
  874YOPE   C4A12642   0.461   3.830   7.258 -0.1470  0.0457  0.0626
  874YOPE   C1B12643   0.337   3.236   5.971  0.0994 -0.0999  0.0058
  874YOPE   C2B12644   0.222   3.244   6.406  0.2058  0.4814  0.0553
  874YOPE   D3B12645   0.180   3.690   6.665 -0.0529  0.3493 -0.2224
  874YOPE   C4B12646   0.411   4.144   6.767 -0.0290 -0.0297  0.0671
  875YOPE   NH312647  13.819  13.624   5.067 -0.0855  0.1498 -0.2279
  875YOPE   PO412648  14.176  13.900   4.850 -0.1796  0.0288  0.1193
  875YOPE   GL112649  14.090  14.042   5.203 -0.1123 -0.2143 -0.6410
  875YOPE   GL212650  14.017  14.350   5.395  0.1977 -0.1191  0.1955
  875YOPE   C1A12651  14.256  13.853   5.734  0.2320  0.1799 -0.1690
  875YOPE   D2A12652  14.019  13.846   6.075 -0.3232  0.1202  0.4172
  875YOPE   C3A12653  13.742  13.974   6.387 -0.2157  0.1003 -0.2741
  875YOPE   C4A12654  13.353  14.120   6.352  0.4551  0.0681  0.2182
  875YOPE   C1B12655  14.136  14.369   5.872  0.2395  0.2558  0.1106
  875YOPE   C2B12656  14.144  14.232   6.337  0.1116 -0.1210  0.1432
  875YOPE   D3B12657  14.312  14.261   6.837 -0.1207 -0.0317 -0.0773
  875YOPE   C4B12658  14.410  14.360   7.210 -0.2097 -0.4796 -0.0047
  876YOPE   NH312659   1.732   6.746   5.054  0.0464 -0.3744  0.2294
  876YOPE   PO412660   2.143   6.846   5.217  0.2318 -0.0668  0.0943
  876YOPE   GL112661   2.323   6.901   5.640 -0.0551  0.0023  0.1170
  876YOPE   GL212662   2.391   7.297   5.509  0.1913 -0.0610 -0.0845
  876YOPE   C1A12663   2.118   7.097   6.034 -0.2494 -0.0500 -0.4340
  876YOPE   D2A12664   2.279   7.417   6.362  0.1626 -0.2301  0.3711
  876YOPE   C3A12665   1.989   7.617   6.597 -0.3388 -0.1301 -0.1694
  876YOPE   C4A12666   1.794   7.823   6.893  0.3506  0.0204 -0.1406
  876YOPE   C1B12667   2.623   7.423   5.857  0.0255 -0.1217 -0.1687
  876YOPE   C2B12668   2.744   7.453   6.277  0.2939 -0.1419 -0.0280
  876YOPE   D3B12669   3.157   7.555   6.618 -0.0990 -0.3226  0.2222
  876YOPE   C4B12670   3.341   7.596   7.064  0.2985 -0.0587  0.3653
  877YOPE   NH312671  16.493   4.709   5.261 -0.0658 -0.2271  0.1716
  877YOPE   PO412672  16.342   5.227   5.103  0.0458 -0.0089  0.0106
  877YOPE   GL112673  16.333   5.654   5.439  0.2268 -0.1075 -0.0785
  877YOPE   GL212674  16.009   5.616   5.633  0.4711 -0.1566 -0.1783
  877YOPE   C1A12675  16.506   5.584   5.868  0.1579 -0.3203 -0.0876
  877YOPE   D2A12676  16.412   5.878   6.187  0.2811 -0.1195 -0.1563
  877YOPE   C3A12677  16.606   5.776   6.524  0.0250  0.0863 -0.0633
  877YOPE   C4A12678  16.856   5.866   6.894  0.0251  0.0921 -0.1795
  877YOPE   C1B12679  15.924   5.969   5.918 -0.1449  0.0335  0.2396
  877YOPE   C2B12680  15.908   6.117   6.291 -0.0912 -0.0288  0.2686
  877YOPE   D3B12681  15.761   6.280   6.736  0.0366  0.1538  0.0176
  877YOPE   C4B12682  16.094   6.197   7.058 -0.1300  0.4388 -0.1005
  878YOPE   NH312683  12.229  12.090   5.529  0.1552  0.0797 -0.3081
  878YOPE   PO412684  11.870  12.330   5.402 -0.1242  0.0242 -0.1006
  878YOPE   GL112685  11.851  12.257   5.858  0.0284 -0.0897  0.0989
  878YOPE   GL212686  11.578  12.221   6.087  0.0217  0.1668 -0.0373
  878YOPE   C1A12687  12.028  12.293   6.274 -0.2845 -0.3291  0.1945
  878YOPE   D2A12688  12.315  12.619   6.587  0.1057  0.0501  0.1486
  878YOPE   C3A12689  12.474  12.499   7.108 -0.2313 -0.3199 -0.2427
  878YOPE   C4A12690  12.457  12.907   7.440 -0.4521  0.2745 -0.5042
  878YOPE   C1B12691  11.501  12.232   6.561  0.1120  0.0881 -0.1489
  878YOPE   C2B12692  11.698  12.572   6.881  0.0391  0.1732 -0.3423
  878YOPE   D3B12693  12.003  12.863   7.071  0.1211 -0.3550  0.4586
  878YOPE   C4B12694  12.085  13.185   7.329  0.0396  0.0033 -0.1401
  879YOPE   NH312695   9.126   5.500   5.618 -0.3162  0.7419 -0.0237
  879YOPE   PO412696   9.140   5.091   5.730 -0.0447  0.3649  0.4548
  879YOPE   GL112697   9.445   5.390   5.977  0.2805 -0.2903 -0.2800
  879YOPE   GL212698   9.323   5.663   6.065 -0.0978  0.0547  0.0235
  879YOPE   C1A12699   9.627   5.505   6.437 -0.1240  0.0646 -0.1521
  879YOPE   D2A12700   9.490   5.547   6.949  0.1326  0.1910  0.2433
  879YOPE   C3A12701   9.265   5.248   7.176 -0.1113 -0.1526  0.2448
  879YOPE   C4A12702   9.429   4.933   7.324  0.1502  0.1335  0.2954
  879YOPE   C1B12703   9.197   5.779   6.553  0.3000  0.2619  0.0305
  879YOPE   C2B12704   9.330   6.026   6.990  0.1387  0.0809  0.1155
  879YOPE   D3B12705   9.310   6.116   7.429 -0.1444  0.2570 -0.0821
  879YOPE   C4B12706   9.381   6.316   7.780 -0.0671 -0.0044  0.3734
  880YOPE   NH312707   1.509  10.295   4.355 -0.0267  0.2577 -0.0476
  880YOPE   PO412708   1.734  10.373   4.785  0.0872  0.0108 -0.2956
  880YOPE   GL112709   1.649  10.462   5.228 -0.2634 -0.0065 -0.0137
  880YOPE   GL212710   1.908  10.794   5.331  0.0241  0.1295  0.2068
  880YOPE   C1A12711   1.411  10.432   5.653 -0.2302  0.2976 -0.0002
  880YOPE   D2A12712   0.993  10.313   5.756 -0.1040  0.0197  0.0974
  880YOPE   C3A12713   0.957  10.435   6.220  0.0082 -0.1348 -0.0427
  880YOPE   C4A12714   1.112  10.850   6.354 -0.1349 -0.2049  0.0763
  880YOPE   C1B12715   1.811  10.853   5.708  0.1169  0.2101  0.2307
  880YOPE   C2B12716   2.094  11.030   5.911  0.3832  0.0910 -0.2527
  880YOPE   D3B12717   2.249  11.316   6.210 -0.1962  0.1495  0.0810
  880YOPE   C4B12718   2.450  11.191   6.634  0.2338  0.1699  0.2780
  881YOPE   NH312719   4.122  16.502   5.164 -0.1582  0.1831  0.1134
  881YOPE   PO412720   4.254  16.858   5.399  0.0488 -0.2171  0.2662
  881YOPE   GL112721   4.360  16.834   5.832  0.2943 -0.1183 -0.0591
  881YOPE   GL212722   3.991  16.736   5.974 -0.1593 -0.2091  0.0976
  881YOPE   C1A12723   4.478  16.841   6.195  0.2393  0.0598  0.2584
  881YOPE   D2A12724   4.724  16.896   6.560 -0.0331  0.0027 -0.0385
  881YOPE   C3A12725   4.871  16.800   6.994  0.0698  0.0270  0.2734
  881YOPE   C4A12726   4.609  16.858   7.425  0.0068  0.1246  0.1002
  881YOPE   C1B12727   4.048  16.648   6.431 -0.1398 -0.2217 -0.0964
  881YOPE   C2B12728   3.772  16.574   6.762 -0.4241 -0.0812  0.1479
  881YOPE   D3B12729   3.455  16.434   7.010  0.0997 -0.2653 -0.1157
  881YOPE   C4B12730   3.230  16.252   7.365  0.3388 -0.1279  0.2112
  882YOPE   NH312731  12.487   6.584   5.951 -0.1158 -0.3564  0.1101
  882YOPE   PO412732  12.814   6.638   5.778  0.1381  0.2973 -0.3612
  882YOPE   GL112733  12.603   7.038   6.100 -0.2098 -0.2370 -0.0725
  882YOPE   GL212734  12.271   7.053   6.064 -0.1511 -0.3181 -0.0773
  882YOPE   C1A12735  12.623   7.471   6.310  0.0781  0.1135  0.2812
  882YOPE   D2A12736  12.735   7.697   6.610 -0.3097  0.2448  0.0752
  882YOPE   C3A12737  13.194   7.482   6.792 -0.2638 -0.1265  0.3705
  882YOPE   C4A12738  13.633   7.539   6.880  0.1698  0.2606 -0.1242
  882YOPE   C1B12739  12.258   7.232   6.524  0.0246 -0.0115  0.3086
  882YOPE   C2B12740  12.330   7.540   6.816 -0.2467 -0.3259  0.2044
  882YOPE   D3B12741  12.612   7.553   7.086 -0.0855 -0.2841 -0.2522
  882YOPE   C4B12742  12.643   7.899   7.454  0.1076  0.1112  0.3705
  883YOPE   NH312743  11.808   6.967   5.612 -0.4535 -0.0378  0.1579
  883YOPE   PO412744  12.033   6.543   5.767 -0.3650  0.1283  0.1191
  883YOPE   GL112745  11.888   6.778   6.052 -0.1379 -0.3536 -0.1602
  883YOPE   GL212746  11.688   6.997   6.120  0.0073  0.0388 -0.2999
  883YOPE   C1A12747  12.016   6.829   6.522  0.0486  0.1684 -0.1224
  883YOPE   D2A12748  11.995   6.543   6.867  0.1109  0.0800  0.1998
  883YOPE   C3A12749  11.564   6.543   6.946 -0.0322 -0.0646 -0.2138
  883YOPE   C4A12750  11.182   6.368   7.092 -0.1744 -0.1837 -0.0396
  883YOPE   C1B12751  11.574   7.169   6.481 -0.1171  0.0755  0.0979
  883YOPE   C2B12752  11.656   7.096   6.726  0.1615  0.0250  0.0940
  883YOPE   D3B12753  11.588   7.065   7.172 -0.1605 -0.0082  0.0112
  883YOPE   C4B12754  11.861   6.676   7.348  0.1935 -0.1828  0.1740
  884YOPE   NH312755  15.069   6.258   5.515  0.1620 -0.2358 -0.4254
  884YOPE   PO412756  14.577   6.246   5.337 -0.1924 -0.1148 -0.1282
  884YOPE   GL112757  14.606   6.325   5.857 -0.3539 -0.2745  0.0794
  884YOPE   GL212758  14.349   6.055   5.881 -0.1803 -0.2072 -0.1545
  884YOPE   C1A12759  14.586   6.440   6.257  0.2031  0.1298 -0.0262
  884YOPE   D2A12760  14.504   6.854   6.477  0.0734 -0.0045  0.0125
  884YOPE   C3A12761  14.272   7.130   6.384 -0.0594  0.2978 -0.1719
  884YOPE   C4A12762  14.234   7.366   6.060 -0.0633  0.0386 -0.2600
  884YOPE   C1B12763  14.461   5.879   6.246 -0.0229  0.1260 -0.0578
  884YOPE   C2B12764  14.616   5.955   6.641 -0.0549  0.0758  0.0735
  884YOPE   D3B12765  14.529   5.799   6.925 -0.2382  0.4112 -0.0551
  884YOPE   C4B12766  14.636   5.442   7.257 -0.0623 -0.0496  0.0590
  885YOPE   NH312767   2.956  15.866   5.563 -0.0283 -0.0497  0.0957
  885YOPE   PO412768   2.557  15.730   5.568 -0.0902  0.0887 -0.2293
  885YOPE   GL112769   2.568  15.543   6.009  0.2389  0.3847 -0.1024
  885YOPE   GL212770   2.697  15.677   6.136 -0.0702 -0.2592 -0.1686
  885YOPE   C1A12771   2.661  15.324   6.476  0.0410 -0.1426 -0.1797
  885YOPE   D2A12772   2.769  14.999   6.772 -0.4964  0.0803  0.0450
  885YOPE   C3A12773   3.005  14.933   7.090 -0.2372  0.1533  0.0943
  885YOPE   C4A12774   3.109  14.459   7.150  0.1751  0.0642  0.0419
  885YOPE   C1B12775   2.924  15.897   6.476 -0.1797  0.0031 -0.0517
  885YOPE   C2B12776   2.987  15.933   6.902 -0.2518  0.0311  0.3893
  885YOPE   D3B12777   3.124  15.818   7.143 -0.0288  0.2284 -0.0364
  885YOPE   C4B12778   3.338  15.730   7.584 -0.1846 -0.3416  0.1819
  886YOPE   NH312779   3.604   4.767   5.290 -0.0325  0.1030 -0.0952
  886YOPE   PO412780   3.703   4.300   5.352 -0.1022  0.0722  0.3486
  886YOPE   GL112781   3.824   4.224   5.854 -0.3832 -0.0226 -0.1107
  886YOPE   GL212782   4.079   4.135   5.966  0.0312 -0.3517  0.1397
  886YOPE   C1A12783   3.708   4.471   6.217  0.3915  0.3655 -0.1461
  886YOPE   D2A12784   3.537   4.824   6.431  0.1435 -0.2464 -0.2297
  886YOPE   C3A12785   3.272   4.923   6.782  0.2266 -0.1119 -0.1618
  886YOPE   C4A12786   2.889   4.748   7.038  0.0772 -0.0587 -0.1500
  886YOPE   C1B12787   4.447   4.163   6.120  0.2452 -0.0405  0.0087
  886YOPE   C2B12788   4.767   4.300   6.341  0.0717 -0.1162 -0.0059
  886YOPE   D3B12789   5.070   4.103   6.647 -0.0192 -0.0145 -0.1983
  886YOPE   C4B12790   5.481   3.945   6.683 -0.4040 -0.2043 -0.2699
  887YOPE   NH312791  17.152  10.070   5.272 -0.1631 -0.1073  0.1444
  887YOPE   PO412792  16.730   9.799   5.249 -0.0903  0.1428  0.2749
  887YOPE   GL112793  16.963   9.689   5.518 -0.0377 -0.0185 -0.0696
  887YOPE   GL212794  16.880   9.319   5.593 -0.1975  0.1909  0.4105
  887YOPE   C1A12795  16.990   9.588   5.979 -0.0428 -0.0553  0.0407
  887YOPE   D2A12796  17.086   9.810   6.311  0.0925  0.1057 -0.2666
  887YOPE   C3A12797  17.158   9.500   6.566 -0.2860  0.2042 -0.2258
  887YOPE   C4A12798  17.554   9.526   6.747  0.2269 -0.1581 -0.2535
  887YOPE   C1B12799  17.047   9.077   6.010 -0.0049  0.2910 -0.0445
  887YOPE   C2B12800  16.957   8.760   6.254  0.1586 -0.3604 -0.0758
  887YOPE   D3B12801  17.214   8.567   6.596  0.0768  0.1874  0.1656
  887YOPE   C4B12802  17.237   8.314   6.893 -0.0143 -0.0330 -0.2058
  888YOPE   NH312803   8.639   5.696   5.518 -0.1773  0.0397 -0.0392
  888YOPE   PO412804   9.009   5.863   5.342 -0.0593 -0.2394 -0.1055
  888YOPE   GL112805   8.894   5.906   5.893 -0.0296  0.0845 -0.1451
  888YOPE   GL212806   8.792   5.638   5.969  0.0034 -0.0538 -0.2916
  888YOPE   C1A12807   8.910   6.163   6.357 -0.4667  0.2587 -0.0457
  888YOPE   D2A12808   8.827   6.133   6.858  0.3687  0.2217  0.0027
  888YOPE   C3A12809   8.868   5.761   7.040  0.0866  0.1699  0.0625
  888YOPE   C4A12810   9.155   5.668   7.365 -0.0712  0.1556  0.3372
  888YOPE   C1B12811   8.960   5.392   6.278  0.1482  0.0068  0.0469
  888YOPE   C2B12812   9.160   5.254   6.576 -0.0593  0.2090  0.3508
  888YOPE   D3B12813   9.468   4.948   6.749 -0.1149 -0.1196 -0.1544
  888YOPE   C4B12814   9.816   4.740   6.833 -0.2838  0.0226  0.1612
  889YOPE   NH312815   1.228   7.207   5.055  0.2027  0.3242 -0.1754
  889YOPE   PO412816   1.367   6.831   5.459 -0.1954  0.0255  0.5256
  889YOPE   GL112817   1.403   7.149   5.779  0.0248  0.3601  0.2899
  889YOPE   GL212818   1.659   6.882   5.975  0.1074 -0.0402 -0.4383
  889YOPE   C1A12819   1.273   7.515   6.066  0.2547  0.1141 -0.0839
  889YOPE   D2A12820   1.492   7.594   6.504  0.1216  0.3982  0.1299
  889YOPE   C3A12821   1.303   7.882   6.713  0.2829 -0.1819 -0.1754
  889YOPE   C4A12822   1.115   8.185   6.468  0.1495 -0.0122 -0.0424
  889YOPE   C1B12823   1.836   7.168   6.422 -0.1122 -0.3561 -0.0342
  889YOPE   C2B12824   1.622   7.234   6.782  0.3233 -0.0777 -0.3620
  889YOPE   D3B12825   1.570   7.333   7.181 -0.1768 -0.1678 -0.0822
  889YOPE   C4B12826   1.789   7.105   7.529 -0.0195 -0.2052 -0.0658
  890YOPE   NH312827   4.616   6.710   5.373  0.0496 -0.1358 -0.2757
  890YOPE   PO412828   4.753   6.324   5.164  0.1957  0.4563 -0.1146
  890YOPE   GL112829   4.679   6.250   5.644  0.0642 -0.0909  0.1244
  890YOPE   GL212830   4.476   5.968   5.633  0.0979  0.0194 -0.4053
  890YOPE   C1A12831   4.607   6.576   5.979  0.1294  0.0921  0.1276
  890YOPE   D2A12832   4.414   6.911   6.204  0.3664  0.2519  0.0125
  890YOPE   C3A12833   4.090   7.080   6.029 -0.1251  0.2175  0.1384
  890YOPE   C4A12834   3.713   6.909   6.216 -0.0812  0.1649 -0.0891
  890YOPE   C1B12835   4.477   5.946   6.070  0.0339 -0.0775 -0.2638
  890YOPE   C2B12836   4.435   5.902   6.498 -0.0653 -0.1476 -0.0305
  890YOPE   D3B12837   4.319   5.893   6.909 -0.1276  0.2037 -0.0461
  890YOPE   C4B12838   4.178   6.107   7.251 -0.0548  0.2672 -0.2551
  891YOPE   NH312839  15.840  13.197   5.015  0.2129  0.0518  0.1829
  891YOPE   PO412840  16.149  13.514   5.101 -0.0597 -0.0587 -0.1352
  891YOPE   GL112841  16.255  13.804   5.425 -0.1621 -0.0042 -0.2904
  891YOPE   GL212842  16.579  13.954   5.489  0.0535  0.3838  0.1134
  891YOPE   C1A12843  16.364  13.475   5.821 -0.2845 -0.2543  0.0996
  891YOPE   D2A12844  16.369  13.220   6.109  0.2271 -0.0326 -0.0588
  891YOPE   C3A12845  15.995  13.048   6.169  0.1618  0.1828  0.1668
  891YOPE   C4A12846  15.817  12.662   6.293 -0.1090 -0.4465 -0.0983
  891YOPE   C1B12847  16.493  13.998   5.957 -0.0033 -0.0332  0.5373
  891YOPE   C2B12848  16.234  14.086   6.417  0.1606 -0.4316 -0.5579
  891YOPE   D3B12849  16.272  13.842   6.754 -0.1480 -0.2030 -0.0056
  891YOPE   C4B12850  15.994  13.559   6.925 -0.1341 -0.3908  0.1530
  892YOPE   NH312851  11.886  14.678   5.446 -0.3589  0.1979 -0.1427
  892YOPE   PO412852  11.727  15.043   5.581 -0.2377 -0.1608  0.0280
  892YOPE   GL112853  11.688  15.278   5.936  0.2283  0.1151  0.0630
  892YOPE   GL212854  11.415  15.433   5.929 -0.1025  0.0034  0.0311
  892YOPE   C1A12855  11.816  15.341   6.352 -0.1859  0.0543 -0.1101
  892YOPE   D2A12856  11.923  15.467   6.735 -0.1738  0.0112 -0.0382
  892YOPE   C3A12857  11.668  15.469   7.109  0.0498  0.1926  0.0358
  892YOPE   C4A12858  11.330  15.820   7.280  0.1075 -0.3591 -0.1945
  892YOPE   C1B12859  11.577  15.742   6.258  0.1161 -0.1941  0.3666
  892YOPE   C2B12860  11.601  16.190   6.506  0.0643  0.0392 -0.1378
  892YOPE   D3B12861  11.656  16.568   6.815 -0.2731  0.0836 -0.0256
  892YOPE   C4B12862  11.780  16.950   6.913  0.0064 -0.1866  0.0096
  893YOPE   NH312863  18.300  16.606   5.335 -0.2549 -0.1059 -0.0815
  893YOPE   PO412864  18.645  16.575   5.150  0.2193  0.0850 -0.1188
  893YOPE   GL112865  18.681  16.685   5.601  0.3230 -0.0846 -0.3794
  893YOPE   GL212866  18.884  16.348   5.678  0.0644 -0.0516 -0.0853
  893YOPE   C1A12867  18.950  16.699   6.001  0.2252  0.1502  0.1403
  893YOPE   D2A12868  19.226  16.730   6.125  0.2324  0.1651 -0.2279
  893YOPE   C3A12869  19.364  16.644   6.437  0.0772 -0.1100  0.1663
  893YOPE   C4A12870  19.457  16.541   6.866 -0.1975  0.3647  0.2760
  893YOPE   C1B12871  18.492  16.509   6.025  0.2747  0.1820 -0.1913
  893YOPE   C2B12872  18.096  16.621   6.261  0.0474 -0.2104  0.2016
  893YOPE   D3B12873  17.767  16.726   6.529  0.0047  0.1871 -0.0701
  893YOPE   C4B12874  17.581  16.960   6.867  0.0650  0.0158 -0.0294
  894YOPE   NH312875   9.934  13.848   5.534  0.1708 -0.0736 -0.0460
  894YOPE   PO412876  10.327  14.109   5.709 -0.2074  0.0850 -0.0135
  894YOPE   GL112877  10.110  14.164   6.057 -0.0352 -0.2979 -0.0945
  894YOPE   GL212878   9.761  14.071   6.022 -0.0786  0.0041  0.1907
  894YOPE   C1A12879  10.039  14.371   6.466  0.0153 -0.3518 -0.1404
  894YOPE   D2A12880  10.073  14.420   6.861  0.0479  0.0762  0.0788
  894YOPE   C3A12881  10.376  14.796   7.225 -0.0569 -0.2532 -0.1134
  894YOPE   C4A12882  10.352  14.845   7.617 -0.0190 -0.1987 -0.1724
  894YOPE   C1B12883   9.585  14.207   6.427  0.2036  0.0747  0.1200
  894YOPE   C2B12884   9.617  14.570   6.696 -0.0190 -0.1784  0.0444
  894YOPE   D3B12885   9.772  14.906   6.503 -0.1778 -0.1801  0.3015
  894YOPE   C4B12886  10.013  15.359   6.512 -0.1175 -0.0058 -0.0010
  895YOPE   NH312887   4.875   0.485   5.048  0.0918 -0.0563  0.2048
  895YOPE   PO412888   5.217   0.202   5.099 -0.0806  0.4081  0.2327
  895YOPE   GL112889   5.042  -0.006   5.489  0.0239 -0.1139  0.0160
  895YOPE   GL212890   4.936  -0.377   5.611  0.1083  0.2293  0.2821
  895YOPE   C1A12891   5.090   0.074   5.934  0.1136  0.1201 -0.2439
  895YOPE   D2A12892   5.022  -0.054   6.240  0.0850  0.0314 -0.2468
  895YOPE   C3A12893   5.230   0.035   6.664 -0.0404 -0.2129  0.1829
  895YOPE   C4A12894   5.355   0.290   6.956 -0.3680 -0.3042 -0.0603
  895YOPE   C1B12895   4.792  -0.468   6.155 -0.1552  0.0809 -0.0162
  895YOPE   C2B12896   4.370  -0.379   6.355  0.3008 -0.1555  0.0470
  895YOPE   D3B12897   4.178  -0.166   6.643  0.0415 -0.1020 -0.1032
  895YOPE   C4B12898   4.074   0.287   6.822 -0.1120  0.2356  0.1520
  896YOPE   NH312899  15.710  10.105   5.460  0.0863 -0.1079 -0.0194
  896YOPE   PO412900  15.353  10.160   5.256 -0.1355  0.1067 -0.1812
  896YOPE   GL112901  15.223  10.363   5.542 -0.1306 -0.0746  0.2186
  896YOPE   GL212902  15.440  10.639   5.543 -0.1793 -0.0049  0.1503
  896YOPE   C1A12903  15.055  10.378   5.957  0.0344 -0.0760  0.1993
  896YOPE   D2A12904  15.123  10.468   6.379  0.0808 -0.0840 -0.0542
  896YOPE   C3A12905  14.806  10.577   6.597 -0.2745 -0.4376  0.1346
  896YOPE   C4A12906  14.493  10.644   6.949 -0.2921 -0.0042 -0.0324
  896YOPE   C1B12907  15.222  10.818   5.738  0.0159 -0.2061 -0.0862
  896YOPE   C2B12908  15.012  10.921   6.079 -0.3774  0.2488 -0.2905
  896YOPE   D3B12909  15.030  11.009   6.459  0.0306 -0.1318 -0.0402
  896YOPE   C4B12910  14.787  11.029   6.802  0.0725  0.3297 -0.2817
  897YOPE   NH312911  11.417  12.293   5.082 -0.3206 -0.0419 -0.0878
  897YOPE   PO412912  11.350  12.634   5.319  0.1624  0.0983 -0.5063
  897YOPE   GL112913  11.677  12.712   5.635 -0.3166  0.0727  0.3438
  897YOPE   GL212914  11.379  12.777   5.801 -0.1816 -0.1386  0.0593
  897YOPE   C1A12915  11.823  12.763   6.000 -0.1341 -0.1552 -0.0428
  897YOPE   D2A12916  11.866  12.742   6.377 -0.3352 -0.4849 -0.1599
  897YOPE   C3A12917  12.186  13.112   6.598  0.1048  0.2027  0.3943
  897YOPE   C4A12918  12.226  13.438   6.905  0.3934 -0.0562 -0.2178
  897YOPE   C1B12919  11.378  12.848   6.297 -0.1306 -0.1415  0.0313
  897YOPE   C2B12920  11.216  12.779   6.616 -0.1646  0.1764  0.1872
  897YOPE   D3B12921  11.127  12.614   6.994 -0.1005  0.1704  0.1832
  897YOPE   C4B12922  11.441  12.339   7.224 -0.1468 -0.0737 -0.1214
  898YOPE   NH312923   6.462   5.086   5.865  0.2475  0.1649  0.3312
  898YOPE   PO412924   6.721   5.299   5.556 -0.1054 -0.0858 -0.1264
  898YOPE   GL112925   6.528   5.613   5.922  0.0580  0.1990  0.0787
  898YOPE   GL212926   6.211   5.493   6.114 -0.0022  0.1521 -0.1619
  898YOPE   C1A12927   6.597   5.709   6.392 -0.0521  0.1999  0.0618
  898YOPE   D2A12928   6.445   5.678   6.840  0.1984  0.2704 -0.0504
  898YOPE   C3A12929   6.614   5.495   7.210  0.2165  0.1157 -0.2299
  898YOPE   C4A12930   6.536   5.298   7.606  0.0732  0.2469 -0.1688
  898YOPE   C1B12931   6.123   5.395   6.587  0.1453 -0.2350  0.0429
  898YOPE   C2B12932   6.422   5.173   6.829  0.0930 -0.1903 -0.3265
  898YOPE   D3B12933   6.429   5.035   7.206  0.1024  0.4029  0.3504
  898YOPE   C4B12934   6.164   4.863   7.583 -0.1647  0.2524 -0.0042
  899YOPE   NH312935  12.388  17.386   5.102 -0.0090  0.1669  0.0327
  899YOPE   PO412936  12.478  17.754   5.202  0.3194  0.0709  0.2268
  899YOPE   GL112937  12.605  17.819   5.546 -0.0953 -0.0292  0.0500
  899YOPE   GL212938  12.792  17.649   5.640  0.3501  0.0182  0.2695
  899YOPE   C1A12939  12.420  17.941   5.996  0.0661 -0.1849  0.1008
  899YOPE   D2A12940  12.152  17.893   6.249  0.0203 -0.1689  0.4876
  899YOPE   C3A12941  12.278  17.568   6.674  0.0878  0.1524 -0.1036
  899YOPE   C4A12942  11.999  17.379   7.107 -0.1692  0.1245 -0.0000
  899YOPE   C1B12943  12.829  17.589   6.055 -0.0154  0.0881  0.0737
  899YOPE   C2B12944  13.070  17.524   6.431  0.4004 -0.0032 -0.0483
  899YOPE   D3B12945  13.202  17.482   6.795  0.0700  0.2788  0.0846
  899YOPE   C4B12946  13.461  17.334   7.132 -0.0216 -0.2355  0.2973
  900YOPE   NH312947  16.393   8.199   5.216 -0.2790  0.1481 -0.0535
  900YOPE   PO412948  16.438   8.606   5.318 -0.0153  0.2295 -0.2047
  900YOPE   GL112949  16.545   8.893   5.524 -0.1713  0.1493  0.1825
  900YOPE   GL212950  16.819   8.791   5.646  0.1155  0.0298 -0.0845
  900YOPE   C1A12951  16.542   8.812   6.029 -0.0217 -0.1276  0.2406
  900YOPE   D2A12952  16.547   8.866   6.444 -0.1546 -0.2780  0.0521
  900YOPE   C3A12953  16.436   8.861   6.941 -0.0120  0.2019 -0.5472
  900YOPE   C4A12954  16.032   8.970   7.223  0.1181 -0.0208 -0.0284
  900YOPE   C1B12955  17.103   8.541   5.837 -0.1716 -0.0482  0.3278
  900YOPE   C2B12956  17.248   8.241   6.165  0.0274 -0.2113 -0.2137
  900YOPE   D3B12957  17.242   7.952   6.497 -0.3007  0.0943  0.0232
  900YOPE   C4B12958  17.250   7.773   6.901  0.0315  0.1146 -0.0459
  901YOPE   NH312959   1.847  16.343   5.766  0.0814 -0.0361  0.1334
  901YOPE   PO412960   2.171  16.451   5.588 -0.1251 -0.0709  0.0077
  901YOPE   GL112961   2.149  16.615   6.053 -0.1883  0.0945  0.2150
  901YOPE   GL212962   2.106  16.402   6.217 -0.1187  0.3092  0.2893
  901YOPE   C1A12963   2.021  16.922   6.376 -0.0709 -0.1209  0.2408
  901YOPE   D2A12964   2.347  17.047   6.749  0.1450 -0.0540 -0.2233
  901YOPE   C3A12965   2.705  17.257   6.674  0.1745 -0.1746  0.0849
  901YOPE   C4A12966   2.945  17.461   7.077  0.1338  0.1579  0.0516
  901YOPE   C1B12967   1.702  16.464   6.586 -0.2710  0.2882  0.0243
  901YOPE   C2B12968   1.503  16.532   6.965 -0.1228  0.0577  0.3440
  901YOPE   D3B12969   1.441  16.897   7.273 -0.1357 -0.4541 -0.2750
  901YOPE   C4B12970   1.636  17.287   7.196 -0.3065  0.0224 -0.1398
  902YOPE   NH312971   2.912   5.447   5.953 -0.3885  0.1787 -0.0330
  902YOPE   PO412972   2.552   5.595   5.744 -0.1248  0.2006  0.0207
  902YOPE   GL112973   2.482   5.181   6.027 -0.1006 -0.3472 -0.2563
  902YOPE   GL212974   2.604   4.937   6.016 -0.0623 -0.1197  0.0882
  902YOPE   C1A12975   2.554   5.174   6.477  0.0986  0.0765  0.0721
  902YOPE   D2A12976   2.840   4.891   6.495  0.0159 -0.0887 -0.0682
  902YOPE   C3A12977   2.710   4.525   6.433  0.1048 -0.0427  0.2549
  902YOPE   C4A12978   2.344   4.218   6.323 -0.0442 -0.1977 -0.0809
  902YOPE   C1B12979   2.243   4.660   6.067  0.0244  0.1879  0.2362
  902YOPE   C2B12980   1.784   4.442   6.143 -0.0937 -0.1437  0.1312
  902YOPE   D3B12981   1.499   4.323   6.380 -0.0132  0.3514 -0.2403
  902YOPE   C4B12982   1.528   4.112   6.701 -0.0602  0.1198  0.0592
  903YOPE   NH312983   3.205  13.615   5.317  0.0485 -0.1141  0.1104
  903YOPE   PO412984   3.153  14.125   5.122 -0.1598 -0.2319  0.0247
  903YOPE   GL112985   3.135  14.067   5.533 -0.0618 -0.0624  0.2346
  903YOPE   GL212986   3.379  14.068   5.704 -0.2251 -0.1899 -0.2489
  903YOPE   C1A12987   3.033  14.260   6.014  0.2292 -0.3860 -0.1940
  903YOPE   D2A12988   2.916  14.045   6.296 -0.0125 -0.2576  0.1823
  903YOPE   C3A12989   3.066  14.029   6.769 -0.2076  0.2063 -0.2058
  903YOPE   C4A12990   3.168  13.909   7.307 -0.2125  0.1292  0.3540
  903YOPE   C1B12991   3.671  14.078   6.052  0.2235  0.0089 -0.0984
  903YOPE   C2B12992   3.731  13.782   6.249 -0.0172 -0.0488  0.1207
  903YOPE   D3B12993   3.878  13.506   6.674  0.1189  0.0494  0.0572
  903YOPE   C4B12994   3.900  13.051   6.887  0.0095  0.2631  0.1068
  904YOPE   NH312995  10.836  12.733   5.470  0.4294 -0.0360  0.2392
  904YOPE   PO412996  10.448  12.665   5.363  0.1091  0.2571  0.3908
  904YOPE   GL112997  10.484  12.495   5.829 -0.1623  0.0328  0.1740
  904YOPE   GL212998  10.229  12.538   6.092  0.2402  0.0406  0.1099
  904YOPE   C1A12999  10.618  12.251   6.267 -0.0421 -0.1043 -0.1908
  904YOPE   D2A13000  10.893  12.193   6.658  0.0448 -0.3807 -0.1849
  904YOPE   C3A13001  10.897  11.993   7.109  0.0277 -0.1664 -0.2275
  904YOPE   C4A13002  10.971  12.284   7.442  0.3360  0.2334 -0.2189
  904YOPE   C1B13003  10.006  12.768   6.334  0.0994 -0.1512 -0.4000
  904YOPE   C2B13004   9.786  13.049   6.573 -0.1054  0.4537  0.0558
  904YOPE   D3B13005   9.912  13.174   6.988  0.1289 -0.0067 -0.0685
  904YOPE   C4B13006   9.977  13.518   7.295 -0.4122 -0.3324 -0.1102
  905YOPE   NH313007   2.744  14.377   5.405  0.3457 -0.0125  0.0679
  905YOPE   PO413008   2.558  14.004   5.374 -0.3935 -0.2997  0.0689
  905YOPE   GL113009   2.553  14.081   5.756  0.2551  0.1637 -0.0773
  905YOPE   GL213010   2.558  14.374   5.911 -0.0720 -0.2582  0.1390
  905YOPE   C1A13011   2.421  13.946   6.154  0.2368 -0.0290 -0.0484
  905YOPE   D2A13012   2.141  13.676   6.404 -0.0591 -0.0921 -0.0290
  905YOPE   C3A13013   1.788  13.749   6.354  0.3762  0.4003 -0.0418
  905YOPE   C4A13014   1.349  13.760   6.352  0.3310  0.1307 -0.3307
  905YOPE   C1B13015   2.454  14.392   6.324 -0.3486  0.2394 -0.0030
  905YOPE   C2B13016   2.451  14.040   6.635 -0.1716 -0.3477 -0.3494
  905YOPE   D3B13017   2.216  13.958   6.887  0.0518 -0.2100  0.3669
  905YOPE   C4B13018   1.710  13.964   6.768  0.0565  0.1931  0.1641
  906YOPE   NH313019   7.518  16.260   5.572 -0.3306 -0.1017 -0.1362
  906YOPE   PO413020   7.859  15.940   5.530  0.0312 -0.2122  0.1489
  906YOPE   GL113021   7.787  16.105   5.961  0.0570  0.0396  0.0636
  906YOPE   GL213022   7.626  16.414   6.015 -0.0006  0.0844  0.1333
  906YOPE   C1A13023   7.904  16.099   6.462  0.0911 -0.0596  0.0356
  906YOPE   D2A13024   8.026  16.062   6.911 -0.3767 -0.0753  0.1149
  906YOPE   C3A13025   7.777  15.852   7.224 -0.0584  0.1039 -0.0176
  906YOPE   C4A13026   7.643  15.736   7.531  0.0386  0.4186  0.1494
  906YOPE   C1B13027   7.762  16.617   6.348 -0.0337 -0.1426  0.0838
  906YOPE   C2B13028   7.764  16.502   6.784  0.0028 -0.1255  0.2864
  906YOPE   D3B13029   7.965  16.479   7.248 -0.0619 -0.1347 -0.0896
  906YOPE   C4B13030   8.200  16.137   7.496 -0.1094 -0.0831  0.3243
  907YOPE   NH313031  10.159   5.195   5.646 -0.1250  0.2376  0.3618
  907YOPE   PO413032   9.787   5.026   5.835  0.0279 -0.3465 -0.0023
  907YOPE   GL113033   9.667   4.957   6.252  0.2108  0.1004 -0.0636
  907YOPE   GL213034   9.345   4.978   6.186  0.2387  0.2180 -0.4024
  907YOPE   C1A13035   9.630   4.624   6.425  0.0204  0.0023 -0.2257
  907YOPE   D2A13036   9.367   4.460   6.603 -0.2115  0.2535  0.0055
  907YOPE   C3A13037   9.417   4.507   7.053  0.1470  0.0810 -0.0640
  907YOPE   C4A13038   9.433   4.450   7.486  0.0363  0.0238  0.2405
  907YOPE   C1B13039   9.118   4.707   6.232 -0.4118  0.1454 -0.1229
  907YOPE   C2B13040   8.900   4.437   6.542 -0.0925 -0.0930  0.0406
  907YOPE   D3B13041   8.569   4.280   6.785  0.1483 -0.0462 -0.0243
  907YOPE   C4B13042   8.415   3.959   7.112 -0.0572 -0.1359  0.2841
  908YOPE   NH313043  11.642   2.914   5.615 -0.0702 -0.2630  0.0610
  908YOPE   PO413044  11.155   3.075   5.472  0.1292  0.0631 -0.0081
  908YOPE   GL113045  10.916   3.012   5.829 -0.3038 -0.0184  0.3533
  908YOPE   GL213046  11.079   2.834   6.002  0.2899 -0.0150  0.3197
  908YOPE   C1A13047  10.731   2.742   6.283 -0.1814 -0.2253  0.0202
  908YOPE   D2A13048  10.653   2.684   6.712  0.0675 -0.0742  0.1211
  908YOPE   C3A13049  10.720   2.453   7.006  0.1892 -0.2248  0.2515
  908YOPE   C4A13050  10.642   2.128   7.341  0.1607 -0.0616 -0.1918
  908YOPE   C1B13051  11.105   3.028   6.486 -0.1176 -0.1266 -0.0204
  908YOPE   C2B13052  11.199   3.056   6.909 -0.0636 -0.3592 -0.3287
  908YOPE   D3B13053  11.238   2.731   7.222  0.1413 -0.2041 -0.1074
  908YOPE   C4B13054  10.820   2.529   7.570  0.4273  0.0350  0.1263
  909YOPE   NH313055   4.165   8.802   5.174 -0.0497 -0.4028  0.1691
  909YOPE   PO413056   4.130   8.372   5.530 -0.3557  0.1605  0.1226
  909YOPE   GL113057   3.596   8.434   5.538 -0.0401 -0.2465 -0.1985
  909YOPE   GL213058   3.266   8.342   5.578  0.0176 -0.1464 -0.0955
  909YOPE   C1A13059   3.524   8.692   5.920  0.0332 -0.0127  0.1595
  909YOPE   D2A13060   3.202   8.935   6.153  0.0720 -0.0329  0.1531
  909YOPE   C3A13061   3.253   8.848   6.432  0.3914  0.0708  0.2227
  909YOPE   C4A13062   3.125   8.442   6.600  0.0071  0.1595  0.2629
  909YOPE   C1B13063   3.245   8.282   6.078 -0.0553  0.2841  0.2635
  909YOPE   C2B13064   2.978   7.961   6.391  0.0139 -0.0740  0.1270
  909YOPE   D3B13065   2.678   7.870   6.639  0.1831  0.0050  0.1010
  909YOPE   C4B13066   2.277   7.988   6.933  0.2483 -0.1470 -0.2319
  910YOPE   NH313067   6.430  12.640   6.025  0.1039  0.0158 -0.1252
  910YOPE   PO413068   6.060  12.729   5.923  0.0033  0.1433  0.1943
  910YOPE   GL113069   6.040  12.503   6.324 -0.0954  0.3008  0.3539
  910YOPE   GL213070   5.736  12.570   6.546  0.1850  0.2869 -0.0802
  910YOPE   C1A13071   6.136  12.460   6.778  0.0188  0.0075 -0.1436
  910YOPE   D2A13072   5.887  12.524   7.159 -0.0755  0.2738 -0.0112
  910YOPE   C3A13073   6.239  12.746   7.251 -0.2416  0.0936  0.0737
  910YOPE   C4A13074   6.612  12.738   7.268 -0.2747 -0.0755 -0.0595
  910YOPE   C1B13075   5.811  12.871   6.782 -0.4556 -0.1426  0.0099
  910YOPE   C2B13076   5.808  13.077   7.208 -0.0465  0.0779 -0.2575
  910YOPE   D3B13077   5.828  13.281   7.635  0.3734  0.1806 -0.0559
  910YOPE   C4B13078   6.162  13.701   7.680 -0.0477  0.4280  0.4575
  911YOPE   NH313079   6.770   9.799   6.008  0.1746  0.2941  0.3103
  911YOPE   PO413080   6.496   9.444   5.866 -0.0207  0.5408 -0.2389
  911YOPE   GL113081   6.400   9.430   6.280 -0.1937 -0.4022 -0.1054
  911YOPE   GL213082   6.092   9.215   6.243 -0.3694 -0.1744  0.2123
  911YOPE   C1A13083   6.239   9.514   6.783  0.0912  0.1433 -0.1097
  911YOPE   D2A13084   6.099   9.508   7.159 -0.0278  0.0951 -0.0206
  911YOPE   C3A13085   5.997   9.185   7.238  0.0241 -0.1963 -0.1297
  911YOPE   C4A13086   5.943   8.728   7.343 -0.0777  0.3189  0.1701
  911YOPE   C1B13087   5.803   9.488   6.538 -0.2111 -0.0147 -0.1762
  911YOPE   C2B13088   5.757   9.679   6.871  0.3346  0.0281 -0.1246
  911YOPE   D3B13089   5.546   9.951   7.126 -0.1712  0.0397 -0.2638
  911YOPE   C4B13090   5.256   9.823   7.523  0.0375 -0.0431  0.2956
  912YOPE   NH313091  12.165   2.311   5.200 -0.1787  0.1897  0.0653
  912YOPE   PO413092  12.275   1.851   5.087  0.1693 -0.1420 -0.2209
  912YOPE   GL113093  12.228   1.941   5.541  0.0756  0.0948  0.2763
  912YOPE   GL213094  12.524   2.058   5.798  0.0631  0.1347 -0.2483
  912YOPE   C1A13095  12.049   1.994   5.990 -0.0206  0.0942 -0.0466
  912YOPE   D2A13096  11.984   1.808   6.413 -0.1594 -0.2118 -0.0805
  912YOPE   C3A13097  12.176   1.815   6.831 -0.1221  0.0450  0.0212
  912YOPE   C4A13098  12.289   1.694   7.194  0.3003  0.1455  0.1375
  912YOPE   C1B13099  12.811   2.312   5.937 -0.2281 -0.1095 -0.1009
  912YOPE   C2B13100  13.024   2.618   6.081  0.2041  0.1486  0.5456
  912YOPE   D3B13101  13.123   2.974   6.279  0.2321  0.1789 -0.0521
  912YOPE   C4B13102  13.225   3.116   6.666 -0.3541 -0.0291 -0.3771
  913YOPE   NH313103   2.135  14.420   5.495 -0.2081 -0.1162  0.2533
  913YOPE   PO413104   2.418  14.707   5.550  0.3344 -0.1089 -0.0737
  913YOPE   GL113105   2.239  14.741   5.977  0.0648 -0.0582 -0.0797
  913YOPE   GL213106   2.355  15.008   6.178 -0.1176 -0.0994  0.1896
  913YOPE   C1A13107   1.981  14.704   6.255 -0.0273  0.0141 -0.2393
  913YOPE   D2A13108   1.604  14.586   6.269 -0.1430  0.0629 -0.0255
  913YOPE   C3A13109   1.536  14.491   6.756  0.2470  0.2371  0.3260
  913YOPE   C4A13110   1.363  14.222   7.013  0.1289  0.1227 -0.3679
  913YOPE   C1B13111   2.315  14.849   6.613  0.1317  0.0556 -0.1388
  913YOPE   C2B13112   1.920  14.868   6.921  0.0106 -0.0469 -0.2125
  913YOPE   D3B13113   1.699  15.166   7.013 -0.0277  0.3535 -0.3751
  913YOPE   C4B13114   1.493  15.259   7.391 -0.0472  0.2119  0.1906
  914YOPE   NH313115   4.255  13.705   5.501  0.1140  0.2532  0.2258
  914YOPE   PO413116   4.679  13.869   5.559  0.0348  0.2766 -0.1646
  914YOPE   GL113117   5.017  13.750   5.895  0.2374  0.0933 -0.2105
  914YOPE   GL213118   4.901  14.079   6.019 -0.1225  0.2325  0.2708
  914YOPE   C1A13119   4.904  13.473   6.175 -0.0632  0.1814 -0.2195
  914YOPE   D2A13120   4.921  13.234   6.500 -0.1695  0.1135  0.1310
  914YOPE   C3A13121   4.796  12.837   6.639 -0.2545  0.1458  0.1495
  914YOPE   C4A13122   5.000  12.422   6.559  0.1643  0.0446 -0.0591
  914YOPE   C1B13123   5.043  13.930   6.482  0.1350  0.2838 -0.0857
  914YOPE   C2B13124   5.103  13.576   6.789 -0.0542  0.1294 -0.1256
  914YOPE   D3B13125   4.994  13.232   7.096  0.0404 -0.3178  0.1498
  914YOPE   C4B13126   4.867  12.797   7.134  0.0074  0.1860  0.4542
  915YOPE   NH313127  12.291  18.174   4.972 -0.0145 -0.1146 -0.1797
  915YOPE   PO413128  12.337  18.580   5.150 -0.0814  0.1017 -0.0384
  915YOPE   GL113129  12.266  18.371   5.488 -0.1444  0.0576 -0.1580
  915YOPE   GL213130  12.523  18.351   5.667 -0.0470 -0.3343 -0.0739
  915YOPE   C1A13131  12.045  18.355   5.865  0.1296  0.1624 -0.0938
  915YOPE   D2A13132  11.778  18.262   6.373  0.1370  0.0376 -0.2321
  915YOPE   C3A13133  11.492  18.514   6.613  0.2094  0.2243 -0.1135
  915YOPE   C4A13134  11.131  18.452   6.315  0.4417  0.1380 -0.2554
  915YOPE   C1B13135  12.542  18.436   6.094  0.1156  0.0358 -0.2765
  915YOPE   C2B13136  12.360  18.336   6.454  0.1317 -0.0892 -0.0363
  915YOPE   D3B13137  12.435  18.243   6.876  0.0509  0.0629 -0.2460
  915YOPE   C4B13138  12.734  18.023   7.133  0.1515 -0.1601 -0.0762
  916YOPE   NH313139   2.975   0.732   5.205  0.1448 -0.0330 -0.0752
  916YOPE   PO413140   2.847   1.116   5.437 -0.1988 -0.2222 -0.0900
  916YOPE   GL113141   2.640   1.244   5.741 -0.4412 -0.1277 -0.0111
  916YOPE   GL213142   2.565   1.529   5.793 -0.0985  0.1664  0.1651
  916YOPE   C1A13143   2.762   1.332   6.170 -0.2028  0.0069  0.2631
  916YOPE   D2A13144   2.727   1.770   6.443 -0.4221 -0.2918  0.2390
  916YOPE   C3A13145   2.413   1.845   6.692  0.2475  0.1749  0.0204
  916YOPE   C4A13146   2.125   1.963   6.931  0.0111 -0.0967 -0.3108
  916YOPE   C1B13147   2.330   1.585   6.209 -0.0187 -0.2323 -0.1372
  916YOPE   C2B13148   2.137   1.411   6.660  0.1239 -0.0818 -0.1004
  916YOPE   D3B13149   2.084   1.360   7.118 -0.1070  0.0331  0.0871
  916YOPE   C4B13150   1.879   1.156   7.507  0.0688 -0.0021  0.2752
  917YOPE   NH313151   2.811  15.364   5.207 -0.1531 -0.0174 -0.1222
  917YOPE   PO413152   2.883  15.391   5.585  0.1055 -0.2894  0.1923
  917YOPE   GL113153   2.864  15.147   5.994  0.0608  0.2001 -0.1569
  917YOPE   GL213154   2.770  14.851   5.888  0.1737  0.1323 -0.0834
  917YOPE   C1A13155   3.269  14.851   6.160 -0.0756  0.1776 -0.0855
  917YOPE   D2A13156   3.497  14.376   6.441  0.1928  0.2469 -0.0032
  917YOPE   C3A13157   3.597  14.042   6.640 -0.2749 -0.1951  0.0421
  917YOPE   C4A13158   3.773  13.898   7.044 -0.3396  0.2238 -0.0732
  917YOPE   C1B13159   2.830  14.802   6.310 -0.0272  0.0944  0.1925
  917YOPE   C2B13160   3.035  14.573   6.599 -0.1334  0.1521  0.0620
  917YOPE   D3B13161   2.654  14.417   6.893  0.1138 -0.2328 -0.1915
  917YOPE   C4B13162   2.367  14.759   7.092 -0.2060 -0.1081 -0.2172
  918YOPE   NH313163   3.249   8.493   5.084 -0.0472 -0.2447 -0.3568
  918YOPE   PO413164   3.577   8.879   5.212  0.2608  0.1144 -0.1193
  918YOPE   GL113165   3.817   8.840   5.578  0.1799  0.1143  0.1938
  918YOPE   GL213166   4.164   8.787   5.806  0.0614 -0.2031 -0.0429
  918YOPE   C1A13167   3.877   9.208   5.867 -0.2928  0.3662  0.3476
  918YOPE   D2A13168   3.882   9.311   6.264  0.0430  0.1911 -0.2635
  918YOPE   C3A13169   3.671   9.035   6.543  0.0851  0.2425  0.2210
  918YOPE   C4A13170   3.714   8.884   6.967  0.1865  0.1724  0.0353
  918YOPE   C1B13171   4.561   8.618   5.985  0.2020 -0.2446  0.1086
  918YOPE   C2B13172   4.829   8.557   6.329  0.0875  0.0075  0.0768
  918YOPE   D3B13173   4.715   8.584   6.756  0.2143  0.0314 -0.1775
  918YOPE   C4B13174   4.374   8.333   7.006 -0.0644  0.0069 -0.1304
  919YOPE   NH313175  11.420  12.117   5.582  0.1171  0.0047  0.0008
  919YOPE   PO413176  11.396  11.754   5.649  0.0553  0.1864 -0.0448
  919YOPE   GL113177  11.526  11.448   5.989 -0.1651  0.0672  0.3248
  919YOPE   GL213178  11.569  11.672   6.246 -0.3336 -0.0520  0.6582
  919YOPE   C1A13179  11.564  11.055   6.202 -0.3166  0.2453  0.0130
  919YOPE   D2A13180  11.715  10.713   6.299 -0.2000  0.2148  0.2973
  919YOPE   C3A13181  11.764  10.588   6.642  0.2185  0.0920  0.1045
  919YOPE   C4A13182  11.694  10.588   7.009 -0.1429 -0.2057  0.0020
  919YOPE   C1B13183  11.968  11.329   6.323 -0.2005  0.1173  0.4693
  919YOPE   C2B13184  12.481  11.331   6.444  0.2479 -0.1361  0.5559
  919YOPE   D3B13185  12.745  11.495   6.661 -0.0199 -0.3715  0.1035
  919YOPE   C4B13186  12.831  11.726   7.052  0.4508  0.1008  0.0667
  920YOPE   NH313187  16.962   1.902   5.928  0.0675  0.0043 -0.0501
  920YOPE   PO413188  17.067   1.459   6.055  0.2071 -0.2045 -0.1642
  920YOPE   GL113189  16.660   1.471   6.253  0.0582 -0.2449 -0.2481
  920YOPE   GL213190  16.601   1.726   6.193 -0.1121 -0.2785 -0.0639
  920YOPE   C1A13191  16.382   1.577   6.583  0.1079 -0.1716  0.0339
  920YOPE   D2A13192  16.150   1.475   6.979 -0.1560 -0.0658 -0.2979
  920YOPE   C3A13193  16.288   1.577   7.466 -0.0337  0.2488 -0.0170
  920YOPE   C4A13194  16.109   1.522   7.894  0.0866  0.0723 -0.1878
  920YOPE   C1B13195  16.601   2.091   6.444 -0.0725  0.2908 -0.2426
  920YOPE   C2B13196  16.483   2.290   6.823  0.1437 -0.0070  0.0569
  920YOPE   D3B13197  16.613   2.541   7.038  0.1581 -0.0371 -0.2999
  920YOPE   C4B13198  16.517   2.757   7.444 -0.0067  0.1518  0.1616
  921YOPE   NH313199   1.348  18.823   5.225  0.2732  0.1094 -0.3692
  921YOPE   PO413200   1.040  18.509   5.384 -0.1434  0.0880  0.2774
  921YOPE   GL113201   1.162  18.326   5.766 -0.0487  0.1254  0.1724
  921YOPE   GL213202   1.015  17.968   5.947  0.0303  0.0068 -0.1077
  921YOPE   C1A13203   1.326  18.594   6.139 -0.4088 -0.5847 -0.3067
  921YOPE   D2A13204   1.431  18.462   6.479  0.0057  0.1850  0.1079
  921YOPE   C3A13205   1.235  18.638   6.838 -0.1825  0.1858  0.1333
  921YOPE   C4A13206   1.111  18.451   7.165  0.2106 -0.1625  0.2305
  921YOPE   C1B13207   0.988  18.116   6.309  0.0792 -0.0432  0.1321
  921YOPE   C2B13208   1.163  18.158   6.736 -0.0173  0.1475  0.1103
  921YOPE   D3B13209   1.618  18.218   6.817  0.1422  0.0156 -0.1429
  921YOPE   C4B13210   1.945  18.549   6.731 -0.3284  0.2616  0.1953
  922YOPE   NH313211  15.647   4.927   5.009 -0.2429  0.0979  0.3328
  922YOPE   PO413212  15.993   4.696   5.209 -0.0064  0.1305  0.0768
  922YOPE   GL113213  16.067   4.972   5.528 -0.1073  0.2752  0.0760
  922YOPE   GL213214  15.858   4.928   5.690 -0.2333 -0.1779 -0.0366
  922YOPE   C1A13215  16.139   5.283   5.961 -0.0253  0.0993  0.0480
  922YOPE   D2A13216  16.015   5.599   6.323  0.1182  0.1158 -0.0264
  922YOPE   C3A13217  16.143   5.866   6.651  0.0410  0.0500  0.0011
  922YOPE   C4A13218  16.323   6.283   6.632  0.4323 -0.1289 -0.1148
  922YOPE   C1B13219  15.709   5.126   6.124 -0.1385 -0.1160 -0.2789
  922YOPE   C2B13220  15.681   5.280   6.571  0.0102  0.0708  0.0765
  922YOPE   D3B13221  15.960   5.480   6.876 -0.1031 -0.0745 -0.2984
  922YOPE   C4B13222  16.277   5.632   7.068  0.1255  0.1863  0.5966
  923YOPE   NH313223   5.682  13.030   5.553 -0.4823  0.2000 -0.2021
  923YOPE   PO413224   5.602  13.405   5.359  0.1728 -0.1437 -0.0646
  923YOPE   GL113225   5.527  13.651   5.774  0.1251 -0.1382 -0.1329
  923YOPE   GL213226   5.465  14.014   5.819  0.0270  0.0088 -0.2377
  923YOPE   C1A13227   5.437  13.668   6.233  0.0509 -0.1429 -0.0801
  923YOPE   D2A13228   5.397  13.304   6.466  0.1908  0.1368  0.1811
  923YOPE   C3A13229   5.493  13.340   6.923  0.0893 -0.4437  0.1926
  923YOPE   C4A13230   5.417  13.401   7.390 -0.1998 -0.1278 -0.1175
  923YOPE   C1B13231   5.571  14.316   6.240  0.0399  0.4776 -0.2554
  923YOPE   C2B13232   5.415  14.305   6.724  0.0693  0.1161  0.2381
  923YOPE   D3B13233   5.076  14.343   7.000 -0.1232 -0.0151  0.1614
  923YOPE   C4B13234   4.683  14.471   7.163 -0.1219 -0.3171  0.0653
  924YOPE   NH313235  10.568   3.945   5.472  0.2165  0.1797 -0.0145
  924YOPE   PO413236  10.255   3.595   5.595 -0.0741 -0.0332  0.2454
  924YOPE   GL113237  10.640   3.511   5.864  0.1133 -0.2828 -0.0621
  924YOPE   GL213238  10.951   3.560   5.744 -0.0097  0.2743  0.0342
  924YOPE   C1A13239  10.827   3.378   6.186 -0.1475  0.4120 -0.1584
  924YOPE   D2A13240  11.016   3.583   6.590 -0.0401 -0.3694 -0.1164
  924YOPE   C3A13241  10.849   3.347   7.033 -0.1001  0.0343  0.1687
  924YOPE   C4A13242  10.687   2.959   7.211 -0.2624 -0.4294 -0.1759
  924YOPE   C1B13243  11.116   3.773   6.043  0.2648 -0.1026  0.3053
  924YOPE   C2B13244  11.483   3.988   6.382  0.1314 -0.1019 -0.0486
  924YOPE   D3B13245  11.532   3.964   6.819  0.1944  0.0005  0.0062
  924YOPE   C4B13246  11.739   3.931   7.195 -0.2152 -0.1712 -0.2121
  925YOPE   NH313247  18.575   6.281   4.945  0.2210  0.4107 -0.0584
  925YOPE   PO413248  18.281   6.254   5.229 -0.1374 -0.1288  0.0762
  925YOPE   GL113249  18.511   6.133   5.645  0.0496 -0.4574  0.0301
  925YOPE   GL213250  18.789   6.280   5.792  0.0147 -0.0448  0.1410
  925YOPE   C1A13251  18.313   6.180   5.998  0.2601  0.0864 -0.3373
  925YOPE   D2A13252  18.155   6.274   6.353 -0.3241  0.0725 -0.3203
  925YOPE   C3A13253  18.243   6.698   6.490 -0.2847  0.2540  0.0793
  925YOPE   C4A13254  18.376   7.183   6.558 -0.1623 -0.1807  0.0668
  925YOPE   C1B13255  18.690   6.360   6.271 -0.2275 -0.2656  0.2398
  925YOPE   C2B13256  18.553   6.366   6.804 -0.2227 -0.2259 -0.1692
  925YOPE   D3B13257  18.158   6.220   6.812  0.2066  0.0662  0.3828
  925YOPE   C4B13258  17.816   5.976   6.615  0.0165 -0.0454 -0.0538
  926YOPE   NH313259   7.285  18.636   5.421  0.0353 -0.3112  0.0871
  926YOPE   PO413260   7.027  18.974   5.232  0.0897 -0.0744 -0.1805
  926YOPE   GL113261   6.780  19.207   5.492 -0.1606  0.0089  0.1428
  926YOPE   GL213262   6.474  19.278   5.381  0.1335  0.3067  0.0638
  926YOPE   C1A13263   6.992  19.450   5.849  0.1260  0.2086  0.0390
  926YOPE   D2A13264   7.222  19.781   5.795 -0.2378  0.0099 -0.1964
  926YOPE   C3A13265   7.611  19.789   5.999  0.1243  0.0089  0.1765
  926YOPE   C4A13266   7.898  20.159   6.169  0.4399 -0.1044  0.0937
  926YOPE   C1B13267   6.623  19.651   5.442  0.0380 -0.0373  0.0802
  926YOPE   C2B13268   6.743  19.871   5.770  0.0729 -0.0890  0.2522
  926YOPE   D3B13269   6.586  19.798   6.249  0.1675  0.0199 -0.1965
  926YOPE   C4B13270   6.772  19.916   6.674  0.3980  0.2646  0.0647
  927YOPE   NH313271  12.217  13.300   5.259 -0.2790  0.2798  0.0737
  927YOPE   PO413272  11.852  13.480   5.251  0.0837 -0.1143 -0.0055
  927YOPE   GL113273  11.799  13.791   5.666  0.0196 -0.1048 -0.2480
  927YOPE   GL213274  12.168  13.701   5.688 -0.0899  0.1666  0.2208
  927YOPE   C1A13275  11.391  13.795   5.976 -0.2586 -0.1169 -0.1001
  927YOPE   D2A13276  11.051  13.726   6.292 -0.1820  0.0005  0.2364
  927YOPE   C3A13277  10.620  13.878   6.198  0.1440 -0.1172  0.0136
  927YOPE   C4A13278  10.283  13.980   6.682 -0.1515  0.1044  0.2135
  927YOPE   C1B13279  12.134  13.499   5.995  0.1376 -0.1858 -0.1178
  927YOPE   C2B13280  12.239  13.157   6.082  0.1769 -0.1946  0.0624
  927YOPE   D3B13281  12.342  12.760   6.138  0.1735 -0.1026  0.0199
  927YOPE   C4B13282  12.436  12.510   5.924  0.0495 -0.1059  0.0271
  928YOPE   NH313283   9.433   7.402   5.300 -0.2119  0.0135  0.1565
  928YOPE   PO413284   9.422   7.134   5.608 -0.0811 -0.2611  0.3474
  928YOPE   GL113285   9.153   7.124   5.905 -0.0895  0.1423  0.2393
  928YOPE   GL213286   9.307   6.792   6.040 -0.3061 -0.2608  0.1264
  928YOPE   C1A13287   9.072   7.302   6.358  0.1734  0.1037  0.0479
  928YOPE   D2A13288   8.892   7.244   6.833  0.2339 -0.1335 -0.0816
  928YOPE   C3A13289   8.806   7.006   7.065 -0.1772  0.0548 -0.0766
  928YOPE   C4A13290   8.462   6.791   7.381 -0.2541  0.2503 -0.0355
  928YOPE   C1B13291   9.353   6.825   6.461  0.0212 -0.1207 -0.0182
  928YOPE   C2B13292   9.255   6.972   6.923 -0.3185  0.4236 -0.3597
  928YOPE   D3B13293   9.212   7.328   7.194  0.2482  0.1540 -0.0395
  928YOPE   C4B13294   9.486   7.603   7.402  0.0279 -0.1353  0.0702
  929YOPE   NH313295  12.857  11.522   5.459  0.1276 -0.2860  0.3256
  929YOPE   PO413296  12.884  11.010   5.545  0.0790  0.1938  0.3833
  929YOPE   GL113297  13.071  10.912   5.966 -0.1784  0.2681 -0.2301
  929YOPE   GL213298  13.289  10.835   6.236 -0.4351  0.0387 -0.0828
  929YOPE   C1A13299  12.922  11.085   6.437 -0.5469  0.1770  0.0495
  929YOPE   D2A13300  12.814  11.015   6.887 -0.0558  0.2940  0.0194
  929YOPE   C3A13301  12.956  11.275   7.181  0.0085  0.0806 -0.2639
  929YOPE   C4A13302  12.816  11.550   7.509 -0.1018  0.2331  0.2999
  929YOPE   C1B13303  13.540  10.859   6.603 -0.0874 -0.2322  0.2454
  929YOPE   C2B13304  13.641  10.954   7.066 -0.0446  0.0472  0.0622
  929YOPE   D3B13305  13.994  10.826   7.190 -0.1251  0.2167 -0.0712
  929YOPE   C4B13306  14.342  10.624   7.510 -0.1377 -0.0736  0.0984
  930YOPE   NH313307  16.975   0.138   5.588  0.0818 -0.2607  0.0071
  930YOPE   PO413308  17.101  -0.186   5.414  0.0535 -0.2217  0.1984
  930YOPE   GL113309  17.034  -0.372   5.869 -0.0103 -0.1930 -0.3097
  930YOPE   GL213310  17.015  -0.684   5.913 -0.2024 -0.1775 -0.0924
  930YOPE   C1A13311  17.268  -0.328   6.300 -0.0293 -0.2948  0.5243
  930YOPE   D2A13312  17.406  -0.189   6.661 -0.0023 -0.2405 -0.1089
  930YOPE   C3A13313  17.180  -0.051   7.055 -0.4270 -0.3514  0.1806
  930YOPE   C4A13314  16.953  -0.147   7.474 -0.1390  0.0265  0.2732
  930YOPE   C1B13315  16.975  -0.710   6.304 -0.1021  0.1274  0.3618
  930YOPE   C2B13316  17.250  -0.666   6.617  0.0664 -0.4654  0.3063
  930YOPE   D3B13317  17.331  -0.529   7.010  0.0493 -0.0984  0.1694
  930YOPE   C4B13318  17.073  -0.663   7.391 -0.0426 -0.0818 -0.1426
  931YOPE   NH313319   9.050  13.538   5.752 -0.0984  0.1601  0.1476
  931YOPE   PO413320   8.657  13.481   5.708 -0.1209  0.1643 -0.3521
  931YOPE   GL113321   8.812  13.413   6.200 -0.2856 -0.2843  0.0762
  931YOPE   GL213322   8.637  13.175   6.371 -0.1503 -0.0407 -0.2843
  931YOPE   C1A13323   8.843  13.557   6.568  0.0014  0.2097 -0.0099
  931YOPE   D2A13324   8.595  13.606   6.892 -0.1227 -0.1831 -0.0981
  931YOPE   C3A13325   8.506  13.797   7.323 -0.0062  0.2203  0.1298
  931YOPE   C4A13326   8.423  14.152   7.621  0.0670 -0.2383 -0.0828
  931YOPE   C1B13327   8.540  13.111   6.752  0.0194  0.0220 -0.2612
  931YOPE   C2B13328   8.515  12.686   7.068 -0.1643  0.5593  0.1476
  931YOPE   D3B13329   8.788  12.342   7.261 -0.4052  0.3711 -0.4862
  931YOPE   C4B13330   8.832  12.286   7.697 -0.2025 -0.2799  0.0368
  932YOPE   NH313331   7.231  10.930   6.001  0.1188 -0.0177 -0.1139
  932YOPE   PO413332   7.356  11.362   5.845  0.1400  0.1608  0.0881
  932YOPE   GL113333   7.357  11.310   6.312  0.1233 -0.0097 -0.1566
  932YOPE   GL213334   7.150  11.208   6.523 -0.3856 -0.0314 -0.3059
  932YOPE   C1A13335   7.314  11.680   6.567 -0.2540 -0.1751  0.1576
  932YOPE   D2A13336   7.390  11.809   7.064  0.3558 -0.1245 -0.0955
  932YOPE   C3A13337   7.128  11.476   7.029 -0.2966 -0.4976 -0.1057
  932YOPE   C4A13338   6.790  11.176   7.103  0.6718  0.2022  0.1635
  932YOPE   C1B13339   6.747  11.005   6.602  0.0981  0.2521  0.0325
  932YOPE   C2B13340   6.606  10.754   6.958  0.1610  0.0166  0.2029
  932YOPE   D3B13341   6.505  10.763   7.447 -0.1981 -0.1352  0.1637
  932YOPE   C4B13342   6.570  10.598   7.801  0.0338  0.1120 -0.4299
  933YOPE   NH313343   3.940   5.872   5.392  0.5367 -0.0745  0.0092
  933YOPE   PO413344   3.704   6.328   5.464 -0.5632 -0.0346  0.3549
  933YOPE   GL113345   3.388   6.274   5.830 -0.1822  0.1020 -0.0578
  933YOPE   GL213346   3.573   6.460   5.998 -0.3662  0.3763  0.0288
  933YOPE   C1A13347   3.142   6.147   6.145 -0.0482  0.2581  0.0592
  933YOPE   D2A13348   3.142   6.082   6.647 -0.4125  0.2882  0.2427
  933YOPE   C3A13349   2.821   6.180   7.002  0.0798  0.5478  0.0936
  933YOPE   C4A13350   2.693   5.895   7.386 -0.2113 -0.1075  0.2610
  933YOPE   C1B13351   3.257   6.690   6.264 -0.1455 -0.1692 -0.2974
  933YOPE   C2B13352   3.158   7.065   6.495  0.2249 -0.3978 -0.1525
  933YOPE   D3B13353   3.041   7.099   6.941  0.2814  0.2134  0.0037
  933YOPE   C4B13354   2.961   6.825   7.264  0.1536 -0.2229 -0.1578
  934YOPE   NH313355  15.624   9.639   4.918  0.1863 -0.2931  0.3945
  934YOPE   PO413356  15.909   9.723   5.243 -0.0888 -0.0410 -0.0325
  934YOPE   GL113357  16.088   9.777   5.691 -0.2474  0.0703  0.0745
  934YOPE   GL213358  16.347   9.654   5.740 -0.2626  0.1450  0.0502
  934YOPE   C1A13359  16.118  10.086   6.037  0.0524 -0.2605  0.0457
  934YOPE   D2A13360  16.157  10.416   6.265  0.0081 -0.0840 -0.1042
  934YOPE   C3A13361  16.484  10.300   6.639 -0.1485 -0.0398 -0.1624
  934YOPE   C4A13362  16.864  10.041   6.742  0.4440 -0.2039  0.1280
  934YOPE   C1B13363  16.540   9.336   6.024 -0.1696  0.0065 -0.0094
  934YOPE   C2B13364  16.768   9.332   6.354 -0.0124 -0.1064  0.0951
  934YOPE   D3B13365  16.979   8.959   6.776  0.0924 -0.0699 -0.1761
  934YOPE   C4B13366  17.342   8.885   7.008  0.0283  0.1822 -0.1468
  935YOPE   NH313367   2.463  10.688   4.752 -0.1538  0.0440  0.1100
  935YOPE   PO413368   2.897  10.653   4.810 -0.0937 -0.0883 -0.0070
  935YOPE   GL113369   2.703  10.578   5.161 -0.2293  0.0311 -0.5722
  935YOPE   GL213370   3.089  10.473   5.320  0.0717 -0.2532  0.1891
  935YOPE   C1A13371   2.636  10.412   5.580  0.1810  0.5473  0.0162
  935YOPE   D2A13372   2.437  10.679   5.943 -0.0238 -0.1022 -0.2286
  935YOPE   C3A13373   2.604  10.878   6.254  0.2277 -0.1860 -0.2270
  935YOPE   C4A13374   2.981  10.965   6.402  0.0904 -0.0518  0.3975
  935YOPE   C1B13375   3.255  10.306   5.719  0.2787  0.0398 -0.4517
  935YOPE   C2B13376   3.573  10.179   6.038  0.1351  0.0067 -0.2081
  935YOPE   D3B13377   3.674  10.216   6.455 -0.1083  0.0864 -0.0162
  935YOPE   C4B13378   3.690  10.401   6.883 -0.0779 -0.0685  0.0384
  936YOPE   NH313379  17.011   7.678   5.090 -0.0130 -0.2397 -0.3619
  936YOPE   PO413380  17.324   7.560   4.888 -0.2869 -0.0306  0.1868
  936YOPE   GL113381  17.328   7.249   5.271  0.3750  0.0441 -0.1488
  936YOPE   GL213382  17.019   7.209   5.476 -0.2000 -0.0957  0.2091
  936YOPE   C1A13383  17.472   7.034   5.630 -0.0382  0.1978  0.2940
  936YOPE   D2A13384  17.592   6.884   6.061 -0.3769 -0.1025  0.0304
  936YOPE   C3A13385  17.576   6.974   6.427 -0.0098 -0.0195 -0.1126
  936YOPE   C4A13386  17.841   7.113   6.578  0.0683  0.0108 -0.0099
  936YOPE   C1B13387  16.696   7.262   5.890 -0.2938 -0.1513 -0.0867
  936YOPE   C2B13388  16.483   7.304   6.161  0.2514  0.3021 -0.0061
  936YOPE   D3B13389  16.516   7.173   6.608  0.5103 -0.1230  0.2144
  936YOPE   C4B13390  16.460   7.137   7.095 -0.3142 -0.4482 -0.0297
  937YOPE   NH313391   1.919  11.222   5.073  0.1714  0.0799 -0.1795
  937YOPE   PO413392   2.316  11.139   4.951  0.0691 -0.0348  0.0127
  937YOPE   GL113393   2.311  11.025   5.380  0.0694 -0.0729 -0.1145
  937YOPE   GL213394   2.609  11.071   5.465 -0.1119  0.1919 -0.0569
  937YOPE   C1A13395   2.319  11.436   5.621  0.2693 -0.1696 -0.0419
  937YOPE   D2A13396   2.544  11.767   5.838 -0.1230 -0.2018 -0.0715
  937YOPE   C3A13397   2.370  11.879   6.275 -0.1723 -0.0644 -0.1003
  937YOPE   C4A13398   2.224  11.661   6.634 -0.4784 -0.2550  0.0036
  937YOPE   C1B13399   2.738  11.169   5.889 -0.1415  0.0166  0.1738
  937YOPE   C2B13400   2.806  11.473   6.175  0.1189 -0.2959 -0.2412
  937YOPE   D3B13401   2.887  11.520   6.601  0.2366  0.0911 -0.1076
  937YOPE   C4B13402   3.094  11.562   6.945  0.1358  0.2485  0.1663
  938YOPE   NH313403  16.798   5.473   5.241 -0.0580 -0.4469  0.0321
  938YOPE   PO413404  17.178   5.612   5.246  0.2913  0.1919 -0.3491
  938YOPE   GL113405  17.045   5.752   5.643  0.0106  0.0388 -0.0018
  938YOPE   GL213406  17.429   5.895   5.877  0.2083  0.4927 -0.0677
  938YOPE   C1A13407  16.985   5.791   6.110  0.1103  0.0479 -0.0047
  938YOPE   D2A13408  17.053   6.092   6.465 -0.1984 -0.3191 -0.1494
  938YOPE   C3A13409  17.500   6.299   6.438 -0.2683  0.0293 -0.0860
  938YOPE   C4A13410  17.775   6.532   6.347 -0.0773  0.1075 -0.2100
  938YOPE   C1B13411  17.494   5.778   6.340 -0.0842  0.2640 -0.0423
  938YOPE   C2B13412  17.317   5.797   6.764 -0.5689  0.1737 -0.1196
  938YOPE   D3B13413  17.181   5.590   7.124 -0.0195  0.0111 -0.2066
  938YOPE   C4B13414  17.160   5.436   7.456  0.1015 -0.1504  0.0876
  939YOPE   NH313415  17.000  14.469   4.986  0.4493 -0.0818 -0.1213
  939YOPE   PO413416  17.318  14.807   5.034  0.0951  0.1132  0.0137
  939YOPE   GL113417  17.063  14.683   5.405  0.0315  0.0892  0.0607
  939YOPE   GL213418  17.054  14.383   5.546 -0.1312  0.0979 -0.1313
  939YOPE   C1A13419  17.128  14.826   5.777 -0.1130  0.2469  0.0126
  939YOPE   D2A13420  17.266  14.632   6.126 -0.2454 -0.0966  0.1349
  939YOPE   C3A13421  16.915  14.429   6.432 -0.1898  0.2241  0.2574
  939YOPE   C4A13422  16.707  14.117   6.545  0.1113  0.2708 -0.2155
  939YOPE   C1B13423  17.004  14.266   5.937  0.0996  0.4136 -0.0976
  939YOPE   C2B13424  16.972  13.902   6.217  0.2518 -0.1548  0.1197
  939YOPE   D3B13425  16.583  13.665   6.316  0.1344 -0.0671  0.0896
  939YOPE   C4B13426  16.369  13.370   6.629 -0.3308  0.1139 -0.1928
  940YOPE   NH313427  16.366  16.443   5.373 -0.2742  0.2236 -0.2537
  940YOPE   PO413428  16.678  16.669   5.357 -0.1013 -0.1480  0.1492
  940YOPE   GL113429  16.733  16.648   5.741 -0.0000 -0.1660 -0.1397
  940YOPE   GL213430  16.400  16.619   5.887  0.0585  0.0259 -0.0112
  940YOPE   C1A13431  17.113  16.788   5.923  0.2605 -0.1328  0.0183
  940YOPE   D2A13432  17.540  16.730   5.879 -0.4608  0.0455  0.0520
  940YOPE   C3A13433  17.694  17.021   6.136 -0.4073 -0.0088  0.3330
  940YOPE   C4A13434  17.606  17.264   6.450 -0.0619  0.1013  0.0445
  940YOPE   C1B13435  16.660  16.502   6.232  0.0194 -0.1359 -0.1793
  940YOPE   C2B13436  16.801  16.648   6.579  0.1100  0.1641 -0.4094
  940YOPE   D3B13437  16.906  16.827   6.996 -0.2274  0.2858  0.2077
  940YOPE   C4B13438  16.885  16.720   7.395  0.1074 -0.0493 -0.1171
  941POPC   NC313439   5.722   1.953   5.042  0.2055 -0.0037 -0.1125
  941POPC   PO413440   5.661   1.530   5.168 -0.0723 -0.2489 -0.1278
  941POPC   GL113441   5.804   1.291   5.437 -0.0974 -0.0531  0.2519
  941POPC   GL213442   6.098   1.175   5.507 -0.1616  0.0244 -0.0837
  941POPC   C1A13443   5.707   0.874   5.725  0.3046  0.4173 -0.0534
  941POPC   D2A13444   5.947   0.774   5.972 -0.0392  0.1564  0.0031
  941POPC   C3A13445   6.069   0.620   6.362 -0.1682  0.0878  0.2044
  941POPC   C4A13446   6.095   0.898   6.745 -0.2997  0.2963  0.2366
  941POPC   C1B13447   5.834   1.290   5.953 -0.0331 -0.2070 -0.0111
  941POPC   C2B13448   5.828   1.138   6.349 -0.0314  0.3149  0.0905
  941POPC   C3B13449   5.703   1.162   6.754 -0.0167 -0.2866  0.0235
  941POPC   C4B13450   5.418   1.042   7.055 -0.0479 -0.1937 -0.0675
  942POPC   NC313451  18.520  10.235   4.341  0.0221 -0.0207  0.4859
  942POPC   PO413452  18.652  10.251   4.785 -0.3843  0.3649 -0.0227
  942POPC   GL113453  18.557  10.216   5.290  0.0495  0.2079 -0.0759
  942POPC   GL213454  18.268  10.250   5.426  0.3306  0.0174 -0.2206
  942POPC   C1A13455  18.516   9.845   5.667 -0.5028  0.0408 -0.1248
  942POPC   D2A13456  18.671   9.677   6.144  0.1418 -0.3375  0.3418
  942POPC   C3A13457  18.858   9.208   6.303 -0.0877  0.1813  0.0068
  942POPC   C4A13458  18.763   8.871   6.533  0.1557  0.0187 -0.0388
  942POPC   C1B13459  18.547  10.305   5.865  0.0722 -0.3182  0.3146
  942POPC   C2B13460  18.663  10.375   6.187  0.0605 -0.0420  0.0866
  942POPC   C3B13461  18.720  10.449   6.777 -0.1282 -0.0472  0.1737
  942POPC   C4B13462  18.592  10.498   7.215  0.1343  0.2697  0.1387
  943POPC   NC313463  10.199   9.348   5.391  0.0386  0.0081  0.1731
  943POPC   PO413464  10.150   9.093   5.747  0.1177 -0.0092 -0.0293
  943POPC   GL113465  10.184   9.272   6.140 -0.2237 -0.1826  0.0515
  943POPC   GL213466   9.970   9.367   6.273  0.2361  0.1977  0.2708
  943POPC   C1A13467  10.426   9.483   6.573 -0.4327  0.2345 -0.1852
  943POPC   D2A13468  10.270   9.535   6.951  0.2510 -0.0480  0.1223
  943POPC   C3A13469   9.974   9.956   6.970 -0.0338 -0.0450 -0.0300
  943POPC   C4A13470   9.766  10.486   6.928 -0.1124  0.0868 -0.1418
  943POPC   C1B13471   9.838   9.440   6.634  0.0314 -0.3366  0.0378
  943POPC   C2B13472   9.732   9.596   7.145 -0.2250  0.2422 -0.0187
  943POPC   C3B13473   9.825   9.331   7.524 -0.3899 -0.0178  0.1275
  943POPC   C4B13474   9.984   8.946   7.690  0.4164 -0.0186 -0.3153
  944POPC   NC313475  12.961  13.978   5.253  0.0748 -0.0265 -0.0005
  944POPC   PO413476  12.591  13.780   5.211 -0.0954 -0.0276  0.2123
  944POPC   GL113477  12.591  14.023   5.633 -0.2199 -0.1187 -0.0803
  944POPC   GL213478  12.814  14.122   5.767  0.0234 -0.0484 -0.0584
  944POPC   C1A13479  12.448  13.997   6.014 -0.0319  0.0439  0.1614
  944POPC   D2A13480  12.453  14.132   6.423  0.0051  0.2760 -0.2144
  944POPC   C3A13481  12.576  14.002   6.835  0.1131  0.0285 -0.2056
  944POPC   C4A13482  12.731  13.825   7.126  0.0610  0.2891  0.1267
  944POPC   C1B13483  13.006  13.826   6.063 -0.1782 -0.3946  0.3567
  944POPC   C2B13484  12.986  13.465   6.334 -0.1684 -0.2343  0.0866
  944POPC   C3B13485  13.165  13.118   6.449  0.1726 -0.4206  0.2462
  944POPC   C4B13486  13.408  13.056   6.683  0.1343 -0.2289 -0.1841
  945POPC   NC313487  13.886   5.400   5.426  0.0773  0.0525 -0.1430
  945POPC   PO413488  14.148   5.843   5.478  0.0060 -0.0498  0.1499
  945POPC   GL113489  14.100   5.578   5.830  0.3024 -0.2195  0.0366
  945POPC   GL213490  13.795   5.360   5.897  0.2754 -0.1081  0.0291
  945POPC   C1A13491  14.192   5.439   6.213 -0.0419  0.1199 -0.0529
  945POPC   D2A13492  14.431   5.131   6.418  0.1413  0.0501 -0.0878
  945POPC   C3A13493  14.696   5.225   6.413  0.0989  0.0187 -0.0540
  945POPC   C4A13494  14.971   5.632   6.373  0.0194 -0.1808 -0.0935
  945POPC   C1B13495  14.175   5.025   5.888  0.4344  0.1365 -0.1646
  945POPC   C2B13496  14.446   4.638   6.019 -0.1394  0.0462  0.1625
  945POPC   C3B13497  14.463   4.418   6.295 -0.1616 -0.3699 -0.0985
  945POPC   C4B13498  14.488   4.583   6.698 -0.2377 -0.1613 -0.0420
  946POPC   NC313499   8.629   0.114   5.050 -0.1543 -0.1303 -0.0154
  946POPC   PO413500   8.145   0.127   5.257  0.0605  0.3228  0.1451
  946POPC   GL113501   7.944   0.149   5.646  0.0288  0.4384 -0.0198
  946POPC   GL213502   7.570   0.187   5.859  0.0801 -0.0210 -0.3120
  946POPC   C1A13503   8.007   0.320   6.074  0.3985  0.0083 -0.5000
  946POPC   D2A13504   7.866   0.417   6.436 -0.1733 -0.3793  0.0172
  946POPC   C3A13505   7.642   0.666   6.528  0.0701  0.1089 -0.0588
  946POPC   C4A13506   7.385   1.005   6.667  0.1373  0.4233  0.0857
  946POPC   C1B13507   7.479   0.048   6.341  0.0462  0.0276  0.0983
  946POPC   C2B13508   7.323   0.175   6.715  0.3147 -0.4011 -0.0915
  946POPC   C3B13509   6.841   0.174   6.845 -0.0227  0.0325  0.0273
  946POPC   C4B13510   6.644   0.056   7.179 -0.0172 -0.1835 -0.1076
  947POPC   NC313511  16.735   6.298   5.117 -0.3470 -0.1895  0.1948
  947POPC   PO413512  16.764   5.970   5.268 -0.0933 -0.2909 -0.1897
  947POPC   GL113513  16.593   6.043   5.676 -0.3688 -0.3123  0.2222
  947POPC   GL213514  16.819   6.252   5.774 -0.0226 -0.3934 -0.0918
  947POPC   C1A13515  16.320   6.258   5.864  0.0447  0.0396  0.0296
  947POPC   D2A13516  15.892   6.460   5.913 -0.2045 -0.0522 -0.0039
  947POPC   C3A13517  15.646   6.660   6.261  0.0747 -0.0664  0.0185
  947POPC   C4A13518  15.422   6.640   6.776 -0.0869 -0.2478 -0.1049
  947POPC   C1B13519  16.714   6.369   6.222  0.0411  0.1854 -0.2588
  947POPC   C2B13520  16.681   6.654   6.612  0.1767  0.1828 -0.1257
  947POPC   C3B13521  16.827   6.817   7.059  0.1817  0.4422 -0.0732
  947POPC   C4B13522  17.220   6.776   7.195 -0.2454  0.0865 -0.0384
  948POPC   NC313523  18.749  17.442   5.163  0.2506 -0.0077 -0.1831
  948POPC   PO413524  18.642  17.182   5.490 -0.0284  0.1204  0.0961
  948POPC   GL113525  18.393  17.072   5.794 -0.0928  0.0987  0.1328
  948POPC   GL213526  18.192  17.168   6.007 -0.1462 -0.1474 -0.0275
  948POPC   C1A13527  18.522  16.947   6.233 -0.0402 -0.1014  0.0110
  948POPC   D2A13528  18.780  16.702   6.472  0.0639  0.0517 -0.1255
  948POPC   C3A13529  18.575  16.238   6.515 -0.1028  0.2677  0.1840
  948POPC   C4A13530  18.439  15.995   6.966  0.0593 -0.0324 -0.0932
  948POPC   C1B13531  18.143  17.086   6.475 -0.1142 -0.1024 -0.1370
  948POPC   C2B13532  18.335  16.668   6.695 -0.2932  0.1633 -0.0685
  948POPC   C3B13533  18.621  16.521   6.966 -0.0509  0.1921  0.1058
  948POPC   C4B13534  19.060  16.550   7.100  0.1959 -0.1362  0.1089
  949POPC   NC313535  15.123   0.764   5.788 -0.4513  0.0492  0.0093
  949POPC   PO413536  15.218   1.264   5.730  0.0301  0.3138  0.2004
  949POPC   GL113537  14.845   1.406   5.979  0.0060  0.0873 -0.0061
  949POPC   GL213538  14.813   1.793   5.941 -0.1333 -0.1434 -0.0016
  949POPC   C1A13539  14.787   1.275   6.415  0.3194 -0.1059  0.1580
  949POPC   D2A13540  14.940   1.027   6.707  0.0836  0.2039  0.1578
  949POPC   C3A13541  15.051   0.640   6.481 -0.1921  0.0932  0.1731
  949POPC   C4A13542  15.121   0.264   6.335 -0.0105 -0.0205 -0.2356
  949POPC   C1B13543  15.204   1.999   6.063 -0.3707  0.1636  0.0069
  949POPC   C2B13544  15.276   2.474   6.153 -0.1420 -0.2545  0.0549
  949POPC   C3B13545  15.409   2.869   6.322 -0.1563 -0.0732 -0.1167
  949POPC   C4B13546  15.280   3.135   6.551 -0.1169 -0.0264 -0.3219
  950POPC   NC313547   7.783   9.759   6.000 -0.1094 -0.1662  0.1855
  950POPC   PO413548   8.188   9.557   6.086  0.0605 -0.0564 -0.1840
  950POPC   GL113549   8.390   9.805   6.357 -0.2612 -0.0718 -0.0199
  950POPC   GL213550   8.145   9.962   6.558 -0.2820  0.3329  0.3121
  950POPC   C1A13551   8.608   9.683   6.730 -0.3257  0.0438  0.1043
  950POPC   D2A13552   8.658   9.490   7.145  0.1485 -0.0653  0.0629
  950POPC   C3A13553   8.737   9.339   7.484  0.0281 -0.1496  0.2161
  950POPC   C4A13554   9.072   9.174   7.483  0.0091 -0.0350 -0.4332
  950POPC   C1B13555   8.049  10.105   6.942  0.1854  0.0639 -0.0298
  950POPC   C2B13556   8.065  10.440   7.231  0.2847  0.0066  0.0814
  950POPC   C3B13557   7.849  10.652   7.569  0.0355  0.1607 -0.1962
  950POPC   C4B13558   7.817  10.602   8.034  0.3245 -0.1374 -0.0297
  951POPC   NC313559   9.358  10.682   5.583 -0.0318 -0.1843  0.3859
  951POPC   PO413560   9.230  10.363   5.844  0.0860  0.2883  0.1305
  951POPC   GL113561   9.290  10.101   6.311 -0.0168  0.1673  0.0085
  951POPC   GL213562   8.982  10.033   6.378 -0.0065  0.4206 -0.2129
  951POPC   C1A13563   9.483  10.104   6.707 -0.3236  0.2003  0.2485
  951POPC   D2A13564   9.469   9.959   7.118 -0.1633 -0.3903 -0.3097
  951POPC   C3A13565   9.676  10.262   7.344 -0.3201  0.0966  0.0584
  951POPC   C4A13566   9.997  10.461   7.556 -0.1854  0.3796 -0.0187
  951POPC   C1B13567   8.992  10.432   6.456  0.0355  0.0926 -0.0415
  951POPC   C2B13568   8.840  10.677   6.735 -0.0097 -0.0189 -0.0322
  951POPC   C3B13569   8.471  10.843   7.056 -0.0270 -0.0662  0.0948
  951POPC   C4B13570   8.158  10.976   7.232 -0.1396  0.2073 -0.2911
  952POPC   NC313571   4.961   5.928   5.352  0.2045  0.0606  0.1636
  952POPC   PO413572   4.794   5.552   5.168  0.3726 -0.0143 -0.0348
  952POPC   GL113573   4.756   5.544   5.662 -0.3033  0.0123  0.1638
  952POPC   GL213574   4.879   5.818   5.861 -0.1517 -0.0198  0.1369
  952POPC   C1A13575   4.544   5.455   6.034 -0.2178  0.0574 -0.2173
  952POPC   D2A13576   4.294   5.171   6.294 -0.3368  0.1804  0.0223
  952POPC   C3A13577   3.938   5.157   6.391 -0.1547 -0.0817 -0.0684
  952POPC   C4A13578   3.632   5.265   6.636 -0.5308  0.0258 -0.0481
  952POPC   C1B13579   4.892   5.712   6.391  0.1932 -0.0988 -0.0913
  952POPC   C2B13580   4.851   5.753   6.879  0.0250 -0.1063 -0.0185
  952POPC   C3B13581   5.151   5.824   7.232  0.1126 -0.0841  0.0091
  952POPC   C4B13582   5.311   6.272   7.353 -0.0827  0.0025  0.0760
  953POPC   NC313583   3.982  17.258   5.390 -0.2355  0.1351 -0.0087
  953POPC   PO413584   3.571  17.409   5.250  0.0281 -0.1998  0.2138
  953POPC   GL113585   3.606  17.447   5.734  0.0661 -0.0631 -0.2097
  953POPC   GL213586   3.865  17.726   5.935 -0.2523  0.3396 -0.0618
  953POPC   C1A13587   3.537  17.293   6.127  0.0899 -0.2880 -0.1909
  953POPC   D2A13588   3.353  17.277   6.491 -0.1969 -0.4945  0.0281
  953POPC   C3A13589   3.469  17.398   6.823  0.1105 -0.1199 -0.2722
  953POPC   C4A13590   3.842  17.631   7.045  0.0670  0.0336 -0.0252
  953POPC   C1B13591   3.625  17.742   6.404  0.1235 -0.1561 -0.0203
  953POPC   C2B13592   3.475  17.935   6.761 -0.3249  0.0303 -0.0356
  953POPC   C3B13593   3.299  17.798   7.114 -0.0723  0.3573 -0.4381
  953POPC   C4B13594   3.372  17.388   7.353  0.2856  0.0415 -0.1174
  954POPC   NC313595  15.971   1.491   5.016 -0.1803 -0.0635 -0.0687
  954POPC   PO413596  16.036   1.840   5.298 -0.0195  0.0920  0.0730
  954POPC   GL113597  15.797   1.856   5.693 -0.4134 -0.0899 -0.1475
  954POPC   GL213598  16.036   1.876   5.837 -0.2946  0.2278  0.0381
  954POPC   C1A13599  15.638   1.663   6.032 -0.2736 -0.0603 -0.0229
  954POPC   D2A13600  15.254   1.485   6.194  0.0659 -0.1438 -0.1173
  954POPC   C3A13601  15.434   1.141   6.466 -0.0181  0.0634 -0.2176
  954POPC   C4A13602  15.392   0.922   6.877 -0.1200  0.0395 -0.0039
  954POPC   C1B13603  16.128   1.902   6.197 -0.3580  0.1999 -0.1558
  954POPC   C2B13604  16.025   2.125   6.652  0.1734  0.0264 -0.2268
  954POPC   C3B13605  15.944   2.480   7.006 -0.1296 -0.2331 -0.0210
  954POPC   C4B13606  16.007   2.686   7.380 -0.3020 -0.0080  0.2112
  955POPC   NC313607   7.562  13.889   5.537  0.1992  0.0439 -0.1623
  955POPC   PO413608   7.828  14.102   5.730 -0.2675  0.1478  0.1178
  955POPC   GL113609   7.623  14.145   6.151 -0.0325  0.0280  0.0244
  955POPC   GL213610   7.758  13.882   6.230  0.2151  0.0349 -0.0887
  955POPC   C1A13611   7.554  14.480   6.488 -0.0885  0.2924  0.1647
  955POPC   D2A13612   7.686  14.870   6.741 -0.1774  0.2204  0.0899
  955POPC   C3A13613   7.649  15.213   6.512  0.2353  0.3149  0.0747
  955POPC   C4A13614   7.318  15.393   6.300  0.2881  0.3882 -0.1647
  955POPC   C1B13615   7.791  13.660   6.551  0.1514 -0.1618  0.0178
  955POPC   C2B13616   7.984  13.277   6.846 -0.2967 -0.0007 -0.2542
  955POPC   C3B13617   8.098  12.878   6.790 -0.0515 -0.0614 -0.1039
  955POPC   C4B13618   8.021  12.446   7.040 -0.1398 -0.1232  0.0238
  956POPC   NC313619   7.563   8.671   5.609  0.0311 -0.0461  0.0109
  956POPC   PO413620   7.614   8.257   5.738  0.0376  0.3667  0.2059
  956POPC   GL113621   7.695   8.431   6.110 -0.1541 -0.0484  0.2765
  956POPC   GL213622   7.969   8.726   6.027  0.0358 -0.2100 -0.0023
  956POPC   C1A13623   7.777   8.553   6.511 -0.2425 -0.0754 -0.2102
  956POPC   D2A13624   7.837   8.694   6.984 -0.0749  0.1455  0.0185
  956POPC   C3A13625   7.498   8.647   7.282  0.3918 -0.2693 -0.3233
  956POPC   C4A13626   7.296   8.607   7.707 -0.1447  0.0414 -0.1166
  956POPC   C1B13627   8.031   9.042   6.339  0.3263 -0.0677 -0.0864
  956POPC   C2B13628   7.815   9.150   6.723 -0.1930  0.0868  0.1144
  956POPC   C3B13629   7.617   9.579   6.861 -0.3689  0.2855  0.0479
  956POPC   C4B13630   7.521   9.825   6.569 -0.1887 -0.3409 -0.0534
  957POPC   NC313631   0.454  12.158   4.986 -0.2663  0.0537 -0.1788
  957POPC   PO413632   0.878  12.174   5.279  0.0394 -0.1022  0.1250
  957POPC   GL113633   1.066  12.165   5.644 -0.1198 -0.2623 -0.0081
  957POPC   GL213634   0.902  11.835   5.660 -0.1481 -0.1633 -0.2063
  957POPC   C1A13635   1.058  12.127   6.046 -0.0598 -0.0349 -0.1676
  957POPC   D2A13636   0.813  12.011   6.488 -0.2090 -0.2807 -0.1151
  957POPC   C3A13637   0.956  12.235   6.820 -0.1349  0.2038 -0.0025
  957POPC   C4A13638   0.959  12.630   7.006 -0.0275 -0.1836  0.0825
  957POPC   C1B13639   0.720  11.655   6.074  0.1240 -0.2540 -0.2038
  957POPC   C2B13640   0.502  11.637   6.427  0.2259  0.1258 -0.2951
  957POPC   C3B13641   0.137  11.576   6.704 -0.0391  0.2668  0.0543
  957POPC   C4B13642   0.135  11.688   7.107 -0.1629  0.0858 -0.3047
  958POPC   NC313643  17.563  16.696   5.333  0.1437 -0.3042  0.0018
  958POPC   PO413644  17.859  16.374   5.258  0.3136  0.0065  0.1195
  958POPC   GL113645  17.560  16.229   5.542 -0.1405  0.2642  0.1265
  958POPC   GL213646  17.207  16.047   5.643  0.1504 -0.1023  0.1247
  958POPC   C1A13647  17.586  16.214   5.993 -0.1103  0.2545  0.1765
  958POPC   D2A13648  17.615  16.244   6.432  0.0523 -0.0095 -0.0718
  958POPC   C3A13649  17.452  16.488   6.794  0.1473  0.4230  0.4089
  958POPC   C4A13650  17.319  16.603   7.171 -0.0538 -0.0107  0.2519
  958POPC   C1B13651  17.168  16.269   6.135  0.0888 -0.3768 -0.0112
  958POPC   C2B13652  17.264  16.605   6.333  0.1244  0.2160  0.2521
  958POPC   C3B13653  17.276  16.939   6.442  0.1153  0.2006 -0.0218
  958POPC   C4B13654  17.183  17.270   6.803  0.0206 -0.2446  0.0687
  959POPC   NC313655  11.242   1.869   5.198 -0.1138 -0.0353  0.1639
  959POPC   PO413656  11.453   1.425   5.193 -0.0543  0.1870  0.1307
  959POPC   GL113657  11.481   1.540   5.597 -0.0670 -0.1396  0.2003
  959POPC   GL213658  11.559   1.881   5.668 -0.3585 -0.2528  0.0422
  959POPC   C1A13659  11.757   1.514   5.979 -0.0080  0.1568  0.1556
  959POPC   D2A13660  12.037   1.185   6.213  0.0560  0.0417  0.0462
  959POPC   C3A13661  12.051   1.280   6.616 -0.0967 -0.1642  0.0138
  959POPC   C4A13662  12.132   1.128   6.993  0.2488  0.1018 -0.1703
  959POPC   C1B13663  11.515   1.934   6.003  0.2202 -0.3037  0.2772
  959POPC   C2B13664  11.346   1.873   6.423 -0.3104  0.0794 -0.2405
  959POPC   C3B13665  11.255   1.767   6.854 -0.2497 -0.1981 -0.0624
  959POPC   C4B13666  11.513   1.675   7.271 -0.2321 -0.3658  0.0333
  960POPC   NC313667   3.582  17.866   5.504  0.0059  0.2519  0.0218
  960POPC   PO413668   3.648  18.169   5.193 -0.1395  0.1232 -0.1186
  960POPC   GL113669   3.830  18.297   5.582  0.1415  0.4872  0.0649
  960POPC   GL213670   4.002  18.120   5.701 -0.0490  0.0358 -0.2886
  960POPC   C1A13671   3.970  18.604   5.970 -0.4727  0.0340 -0.0718
  960POPC   D2A13672   3.752  18.647   6.429  0.1134  0.0113  0.2677
  960POPC   C3A13673   3.690  18.487   6.762  0.0308 -0.0628  0.1397
  960POPC   C4A13674   3.390  18.405   6.980 -0.1757  0.0580 -0.1834
  960POPC   C1B13675   3.804  18.179   6.165 -0.0823 -0.0415 -0.0279
  960POPC   C2B13676   3.396  18.307   6.418  0.0620  0.1678 -0.2622
  960POPC   C3B13677   3.063  18.245   6.647 -0.1073  0.0646  0.2090
  960POPC   C4B13678   2.895  18.232   6.943 -0.0839 -0.1537 -0.3468
  961POPC   NC313679   0.189   1.191   5.032 -0.2085 -0.3960  0.2404
  961POPC   PO413680  -0.185   1.026   5.260 -0.1287  0.2000 -0.0507
  961POPC   GL113681  -0.484   0.803   5.468  0.2476 -0.2027  0.0135
  961POPC   GL213682  -0.407   0.521   5.458  0.1344  0.3466  0.1979
  961POPC   C1A13683  -0.486   0.661   5.928 -0.3905  0.1002  0.2803
  961POPC   D2A13684  -0.322   0.699   6.398  0.2067 -0.1204  0.0571
  961POPC   C3A13685   0.154   0.708   6.404  0.1845  0.1209  0.0134
  961POPC   C4A13686   0.405   0.949   6.305  0.1788 -0.0642 -0.0602
  961POPC   C1B13687  -0.625   0.204   5.830 -0.0059 -0.0430 -0.0383
  961POPC   C2B13688  -0.979  -0.103   5.832 -0.0063 -0.0913  0.0938
  961POPC   C3B13689  -1.012  -0.457   6.101 -0.1612 -0.5217  0.1090
  961POPC   C4B13690  -1.403  -0.521   6.301 -0.1837  0.0210  0.0619
  962POPC   NC313691  16.044  15.644   5.254 -0.0667 -0.2851  0.1905
  962POPC   PO413692  16.012  16.093   5.419  0.0782  0.0828  0.0327
  962POPC   GL113693  16.248  16.111   5.757  0.0048 -0.0501 -0.0021
  962POPC   GL213694  16.678  16.115   5.869 -0.0757 -0.0628  0.0527
  962POPC   C1A13695  16.202  16.213   6.125  0.3643 -0.2242  0.1115
  962POPC   D2A13696  16.070  16.351   6.526 -0.3494 -0.1753  0.2576
  962POPC   C3A13697  16.088  16.119   6.957  0.1356  0.2378  0.0577
  962POPC   C4A13698  16.314  16.045   7.316 -0.1145  0.4382 -0.3359
  962POPC   C1B13699  16.623  16.038   6.326 -0.1583  0.1087 -0.0243
  962POPC   C2B13700  16.566  16.119   6.779  0.2463  0.1503  0.1629
  962POPC   C3B13701  16.478  16.454   7.049  0.0427  0.1070 -0.1068
  962POPC   C4B13702  16.371  16.511   7.403  0.0698  0.0907 -0.0168
  963POPC   NC313703  18.903   8.253   4.902  0.1769 -0.2470  0.0815
  963POPC   PO413704  18.558   8.341   4.983  0.0337  0.2157  0.2408
  963POPC   GL113705  18.707   8.198   5.352  0.2544  0.0491 -0.1848
  963POPC   GL213706  18.463   8.109   5.545  0.2473  0.0317  0.1226
  963POPC   C1A13707  18.943   8.279   5.793 -0.2076 -0.0280  0.1727
  963POPC   D2A13708  18.971   8.278   6.267  0.0120  0.2783 -0.0998
  963POPC   C3A13709  18.569   8.296   6.566 -0.1486 -0.1420  0.0893
  963POPC   C4A13710  18.215   8.550   6.727  0.2650  0.2840  0.0660
  963POPC   C1B13711  18.468   8.474   5.762  0.0008 -0.1696 -0.0574
  963POPC   C2B13712  18.324   8.476   6.068 -0.0459 -0.0151  0.0254
  963POPC   C3B13713  18.290   8.822   6.328  0.0092  0.0269 -0.0505
  963POPC   C4B13714  18.294   9.093   6.715 -0.2480  0.1619  0.1458
  964POPC   NC313715   7.463   0.956   4.898  0.2244 -0.0303 -0.2134
  964POPC   PO413716   7.314   0.893   5.432 -0.2628  0.3066  0.1101
  964POPC   GL113717   7.299   1.217   5.809 -0.2497 -0.2621  0.0311
  964POPC   GL213718   7.596   1.416   5.946 -0.0571  0.3975  0.3342
  964POPC   C1A13719   7.099   1.568   5.974 -0.1059 -0.0620 -0.1114
  964POPC   D2A13720   6.738   1.872   6.012 -0.3237  0.0439 -0.2331
  964POPC   C3A13721   6.464   1.921   6.320 -0.4262  0.3853  0.0744
  964POPC   C4A13722   6.508   2.373   6.483  0.2212 -0.1767 -0.0463
  964POPC   C1B13723   7.976   1.449   6.074  0.2123 -0.0857 -0.2310
  964POPC   C2B13724   8.267   1.349   6.354  0.2139 -0.0854 -0.1958
  964POPC   C3B13725   8.630   1.098   6.506 -0.0209  0.0145  0.0850
  964POPC   C4B13726   9.023   0.975   6.595  0.0954  0.1436 -0.1001
  965POPC   NC313727  17.671   4.840   5.049  0.2456 -0.0107 -0.0464
  965POPC   PO413728  17.517   5.232   5.175 -0.3817  0.0521  0.2944
  965POPC   GL113729  17.867   5.169   5.412 -0.1157  0.1917  0.1881
  965POPC   GL213730  17.720   4.933   5.650  0.2774  0.0595  0.0902
  965POPC   C1A13731  18.177   5.267   5.714 -0.1677 -0.1839  0.0490
  965POPC   D2A13732  18.528   5.037   5.617  0.1383  0.0184 -0.1693
  965POPC   C3A13733  18.827   4.853   5.914 -0.2505  0.1336 -0.0938
  965POPC   C4A13734  19.245   4.843   5.723  0.0472  0.0607 -0.0620
  965POPC   C1B13735  17.716   5.344   5.932  0.3091 -0.1058  0.1168
  965POPC   C2B13736  17.632   5.305   6.382  0.1308  0.2172 -0.0562
  965POPC   C3B13737  17.640   5.342   6.836  0.1293  0.0576  0.0255
  965POPC   C4B13738  17.746   5.431   7.281  0.0266 -0.2218 -0.0402
  966POPC   NC313739  15.228   3.728   5.127 -0.0027  0.1332 -0.0520
  966POPC   PO413740  15.289   3.322   5.175  0.0086 -0.1156  0.1974
  966POPC   GL113741  15.269   3.167   5.639  0.3161  0.1629 -0.0914
  966POPC   GL213742  15.369   3.045   5.897  0.2162  0.0026 -0.0224
  966POPC   C1A13743  14.946   2.862   5.955  0.0048 -0.0272 -0.0711
  966POPC   D2A13744  14.817   2.696   6.245 -0.1853  0.0200  0.2792
  966POPC   C3A13745  14.996   2.747   6.633 -0.2947  0.1008  0.1240
  966POPC   C4A13746  15.031   2.399   6.995  0.1909  0.1577 -0.2649
  966POPC   C1B13747  15.131   3.348   6.123 -0.1302  0.2159  0.0644
  966POPC   C2B13748  14.811   3.725   6.235 -0.0378 -0.1186  0.0141
  966POPC   C3B13749  14.663   3.821   6.589 -0.0686  0.0636  0.0735
  966POPC   C4B13750  14.700   3.701   6.972 -0.0961 -0.0296  0.2419
  967POPC   NC313751  17.782  11.514   5.171 -0.0598  0.2020 -0.1025
  967POPC   PO413752  17.599  11.148   5.053  0.1223 -0.2183  0.0116
  967POPC   GL113753  17.873  10.984   5.326  0.0602 -0.0613  0.2099
  967POPC   GL213754  18.012  10.628   5.319  0.0921 -0.0060  0.1975
  967POPC   C1A13755  18.126  11.239   5.727 -0.1137 -0.0295 -0.0093
  967POPC   D2A13756  18.171  11.112   6.204  0.1094 -0.0485  0.0159
  967POPC   C3A13757  18.017  10.984   6.483  0.0528  0.2957  0.0144
  967POPC   C4A13758  17.894  10.741   6.760  0.3470  0.1328  0.2325
  967POPC   C1B13759  18.217  10.652   5.648 -0.1172 -0.0803  0.1281
  967POPC   C2B13760  18.244  10.635   6.102  0.2729 -0.1328  0.1536
  967POPC   C3B13761  18.259  10.423   6.482  0.2620 -0.3248  0.0577
  967POPC   C4B13762  18.136  10.419   6.970 -0.0767 -0.3801 -0.0025
  968POPC   NC313763  14.320  10.143   5.269 -0.1411 -0.0584 -0.4770
  968POPC   PO413764  14.475   9.823   5.088  0.1939 -0.0976 -0.0009
  968POPC   GL113765  14.476   9.760   5.522 -0.1430  0.1893 -0.0824
  968POPC   GL213766  14.381   9.514   5.669  0.0038 -0.1090  0.2771
  968POPC   C1A13767  14.568   9.889   5.880  0.0528  0.1106 -0.2441
  968POPC   D2A13768  14.575  10.139   6.162  0.1152  0.0708  0.3189
  968POPC   C3A13769  14.632  10.567   6.121  0.0233  0.1718 -0.2213
  968POPC   C4A13770  14.524  10.903   6.233  0.2797 -0.0325 -0.2033
  968POPC   C1B13771  14.076   9.795   5.820  0.0219 -0.2152 -0.0410
  968POPC   C2B13772  13.831  10.129   5.917 -0.0156  0.2418  0.1508
  968POPC   C3B13773  13.417  10.149   6.011 -0.1917 -0.3494 -0.3394
  968POPC   C4B13774  13.128  10.352   6.213 -0.0808  0.0294  0.2524
  969POPC   NC313775  17.518  15.799   5.293 -0.0681 -0.0186  0.0494
  969POPC   PO413776  17.084  15.713   5.218  0.1433 -0.1458  0.1143
  969POPC   GL113777  16.836  15.638   5.574 -0.1677 -0.0874 -0.3083
  969POPC   GL213778  16.524  15.669   5.600 -0.0506 -0.2856 -0.2148
  969POPC   C1A13779  17.130  15.726   6.030  0.1120 -0.0084  0.2670
  969POPC   D2A13780  17.546  15.683   6.137 -0.0556 -0.2543  0.3032
  969POPC   C3A13781  17.618  15.277   6.396 -0.2834 -0.1329  0.0792
  969POPC   C4A13782  17.822  14.971   6.702 -0.0078  0.1881  0.0358
  969POPC   C1B13783  16.643  15.673   6.020  0.1495 -0.0337  0.1885
  969POPC   C2B13784  16.785  15.439   6.517 -0.1148 -0.0574  0.1494
  969POPC   C3B13785  17.112  15.469   6.780  0.1976  0.0365 -0.1732
  969POPC   C4B13786  17.505  15.326   6.897 -0.0153 -0.0923  0.0239
  970POPC   NC313787   6.764  13.417   5.866  0.1594 -0.1745  0.0689
  970POPC   PO413788   6.828  12.987   6.040  0.0130 -0.0967  0.0294
  970POPC   GL113789   6.643  12.787   6.474  0.1179  0.0972 -0.1319
  970POPC   GL213790   6.519  12.461   6.513  0.1010  0.1606 -0.0969
  970POPC   C1A13791   7.019  12.729   6.763  0.0570  0.3818 -0.2255
  970POPC   D2A13792   7.186  12.921   7.217  0.1167  0.2832  0.0431
  970POPC   C3A13793   7.011  12.752   7.629 -0.0316 -0.1619 -0.0201
  970POPC   C4A13794   6.936  12.443   7.710  0.0480 -0.0317  0.4394
  970POPC   C1B13795   6.836  12.314   6.905 -0.3820  0.2017  0.0514
  970POPC   C2B13796   6.954  12.069   7.159 -0.2323 -0.2401  0.3695
  970POPC   C3B13797   7.057  11.747   7.438  0.0125  0.0627  0.0506
  970POPC   C4B13798   7.260  11.347   7.492 -0.1011  0.1213  0.0795
  971POPC   NC313799  17.528  13.748   5.040  0.0513 -0.1388 -0.0390
  971POPC   PO413800  17.349  13.776   5.400  0.2370 -0.1266 -0.1316
  971POPC   GL113801  17.383  14.005   5.754  0.4995  0.1058  0.0239
  971POPC   GL213802  17.598  13.776   5.821  0.3743  0.1004  0.2454
  971POPC   C1A13803  17.542  14.049   6.249 -0.1584 -0.2569 -0.1143
  971POPC   D2A13804  17.402  14.313   6.562  0.0909 -0.0272  0.0210
  971POPC   C3A13805  17.092  14.262   6.878  0.2056 -0.2379 -0.0460
  971POPC   C4A13806  16.895  14.576   7.293 -0.0927  0.3175  0.1973
  971POPC   C1B13807  17.838  13.570   6.082  0.0244 -0.1018  0.2287
  971POPC   C2B13808  17.738  13.536   6.503  0.0049  0.1328  0.0771
  971POPC   C3B13809  17.672  13.586   6.886 -0.1012 -0.2483  0.0457
  971POPC   C4B13810  17.709  13.813   7.300  0.2504 -0.1508 -0.1219
  972POPC   NC313811  15.580  16.294   5.415 -0.0894 -0.2832 -0.2151
  972POPC   PO413812  15.216  16.081   5.506 -0.5250 -0.0133 -0.0318
  972POPC   GL113813  15.192  16.161   5.925  0.1753  0.3292 -0.0993
  972POPC   GL213814  14.864  15.802   5.786 -0.0761 -0.0163  0.1450
  972POPC   C1A13815  15.213  16.135   6.416  0.0160 -0.2303  0.1869
  972POPC   D2A13816  15.137  16.295   6.805  0.3558  0.1148  0.0169
  972POPC   C3A13817  14.780  16.432   6.988  0.2991 -0.0747  0.2480
  972POPC   C4A13818  14.559  16.558   7.309  0.1698  0.1200 -0.1427
  972POPC   C1B13819  14.979  15.721   6.238  0.0271 -0.1211 -0.3973
  972POPC   C2B13820  15.162  15.678   6.684  0.0137 -0.0941  0.0350
  972POPC   C3B13821  15.285  15.794   7.028  0.1071 -0.3191  0.1336
  972POPC   C4B13822  15.295  16.168   7.266 -0.2491 -0.1161 -0.1066
  973POPC   NC313823  13.484  11.954   4.725  0.1924  0.0493  0.6980
  973POPC   PO413824  13.674  11.903   5.189 -0.1216  0.0119  0.0041
  973POPC   GL113825  13.731  12.106   5.586  0.2911  0.2257  0.2826
  973POPC   GL213826  13.739  12.336   5.563 -0.1817 -0.0092 -0.1077
  973POPC   C1A13827  13.745  11.940   5.927  0.1183 -0.0409 -0.0444
  973POPC   D2A13828  13.616  11.807   6.447  0.3501 -0.3379  0.0217
  973POPC   C3A13829  13.682  11.767   6.868 -0.2445 -0.1057 -0.1475
  973POPC   C4A13830  13.694  11.831   7.329 -0.2416  0.0491 -0.1613
  973POPC   C1B13831  13.560  12.488   5.961 -0.3808 -0.0380  0.0280
  973POPC   C2B13832  13.331  12.718   6.272  0.1851 -0.1497  0.0332
  973POPC   C3B13833  12.983  12.663   6.602  0.0083 -0.0661  0.1761
  973POPC   C4B13834  12.955  12.350   7.013  0.1825  0.1444  0.0095
  974POPC   NC313835   2.195   2.796   4.939  0.1458  0.2284 -0.0793
  974POPC   PO413836   2.102   2.513   5.196 -0.2378 -0.1459 -0.1831
  974POPC   GL113837   1.881   2.526   5.516 -0.1155  0.0073 -0.1753
  974POPC   GL213838   2.097   2.461   5.751  0.0530  0.2502 -0.3644
  974POPC   C1A13839   1.556   2.701   5.753 -0.1761 -0.1293  0.3040
  974POPC   D2A13840   1.354   2.879   6.158  0.4620 -0.3604 -0.1944
  974POPC   C3A13841   1.210   2.877   6.535 -0.3084  0.0373  0.1284
  974POPC   C4A13842   0.958   2.703   6.793 -0.0856  0.3117 -0.0347
  974POPC   C1B13843   1.906   2.719   6.058  0.1576  0.2689 -0.0610
  974POPC   C2B13844   1.777   3.109   6.320  0.2459  0.2068 -0.3942
  974POPC   C3B13845   1.649   2.995   6.760 -0.5285  0.3771  0.1030
  974POPC   C4B13846   1.408   2.784   7.008 -0.1577 -0.2857  0.0941
  975POPC   NC313847  14.902  16.587   5.298 -0.3814 -0.1761 -0.0909
  975POPC   PO413848  15.316  16.655   5.160 -0.0964  0.2917  0.0214
  975POPC   GL113849  15.478  16.764   5.550 -0.2485 -0.2484 -0.1625
  975POPC   GL213850  15.402  16.577   5.825 -0.0549  0.0595  0.1589
  975POPC   C1A13851  15.254  17.043   5.815  0.0886  0.1187 -0.2738
  975POPC   D2A13852  15.365  17.007   6.293  0.0287 -0.1055 -0.0163
  975POPC   C3A13853  15.367  16.660   6.552 -0.0619  0.1063  0.0202
  975POPC   C4A13854  15.681  16.347   6.797  0.3855 -0.0065 -0.2803
  975POPC   C1B13855  15.779  16.633   6.198  0.0870  0.0716 -0.2145
  975POPC   C2B13856  16.108  16.908   6.206 -0.1965 -0.2486 -0.0272
  975POPC   C3B13857  16.242  17.238   6.325  0.0720 -0.3365 -0.1590
  975POPC   C4B13858  16.250  17.400   6.754 -0.0907 -0.1635  0.0731
  976POPC   NC313859  13.447  14.501   4.773 -0.2749 -0.2412 -0.0289
  976POPC   PO413860  13.601  14.591   5.298 -0.1889 -0.1575 -0.4742
  976POPC   GL113861  13.523  14.571   5.757  0.0905  0.3024  0.2342
  976POPC   GL213862  13.286  14.363   5.697  0.2656  0.1405 -0.0289
  976POPC   C1A13863  13.709  14.436   6.101 -0.1379 -0.0649  0.2045
  976POPC   D2A13864  13.972  14.728   6.416  0.1033  0.0569  0.1682
  976POPC   C3A13865  14.183  14.707   6.732 -0.1172  0.0819  0.0129
  976POPC   C4A13866  13.951  14.570   7.139  0.3940  0.1362  0.1030
  976POPC   C1B13867  13.056  14.410   6.096  0.1581  0.1328 -0.1435
  976POPC   C2B13868  12.841  14.408   6.466  0.2556 -0.0944 -0.2607
  976POPC   C3B13869  12.586  14.676   6.768  0.2899 -0.0496  0.3362
  976POPC   C4B13870  12.617  14.889   7.063  0.2328  0.1587 -0.1068
  977POPC   NC313871   2.798  13.679   5.006  0.1211 -0.6544 -0.2591
  977POPC   PO413872   2.930  13.301   5.169  0.1305  0.4700 -0.3471
  977POPC   GL113873   2.911  13.190   5.685 -0.1823  0.0391  0.0437
  977POPC   GL213874   2.735  12.906   5.769  0.0188 -0.0326  0.2852
  977POPC   C1A13875   2.714  13.346   6.062  0.2376  0.0930  0.1440
  977POPC   D2A13876   2.659  13.590   6.442 -0.0235  0.1770  0.1860
  977POPC   C3A13877   2.461  13.514   6.729  0.0112  0.2052  0.2601
  977POPC   C4A13878   2.355  13.407   7.124 -0.0067  0.2267 -0.0043
  977POPC   C1B13879   2.686  12.865   6.259  0.1147  0.2259  0.1152
  977POPC   C2B13880   2.644  12.622   6.538  0.0445 -0.0972  0.0446
  977POPC   C3B13881   2.598  12.410   6.723  0.1283  0.1450 -0.0602
  977POPC   C4B13882   2.561  12.002   6.786 -0.4796  0.0285 -0.0361
  978POPC   NC313883   9.093   3.874   5.218  0.0181  0.1322 -0.1320
  978POPC   PO413884   8.677   3.736   4.987 -0.1557 -0.1446 -0.0985
  978POPC   GL113885   8.638   3.637   5.463  0.0977  0.1995 -0.1559
  978POPC   GL213886   8.458   3.789   5.738 -0.2005 -0.0144 -0.1708
  978POPC   C1A13887   8.902   3.787   5.920 -0.0643  0.0688  0.1898
  978POPC   D2A13888   8.997   3.700   6.299  0.2609  0.0924 -0.3029
  978POPC   C3A13889   9.116   4.031   6.564  0.1037  0.0569  0.1414
  978POPC   C4A13890   9.145   4.092   6.973  0.0676 -0.0552 -0.1297
  978POPC   C1B13891   8.435   3.501   6.072 -0.0097  0.1489  0.1814
  978POPC   C2B13892   8.251   3.298   6.395 -0.1844 -0.0689 -0.0609
  978POPC   C3B13893   8.119   3.248   6.792 -0.1823  0.0458 -0.1662
  978POPC   C4B13894   8.128   3.354   7.238 -0.2441  0.1843  0.4121
  979POPC   NC313895   0.970  14.962   5.298 -0.2566  0.0765  0.2297
  979POPC   PO413896   0.500  15.289   5.288  0.1415 -0.0257  0.2542
  979POPC   GL113897   0.275  15.415   5.631 -0.0818 -0.0020 -0.0588
  979POPC   GL213898   0.381  15.107   5.822  0.0675 -0.1212 -0.1176
  979POPC   C1A13899  -0.087  15.298   6.021  0.1605 -0.0896  0.0755
  979POPC   D2A13900  -0.449  15.477   6.069  0.3225  0.0775 -0.0241
  979POPC   C3A13901  -0.786  15.681   6.289  0.2252 -0.2654 -0.0094
  979POPC   C4A13902  -1.166  15.639   6.467  0.3942 -0.2523  0.0402
  979POPC   C1B13903   0.569  15.100   6.246 -0.2277 -0.1162 -0.1879
  979POPC   C2B13904   0.734  15.157   6.684  0.2016 -0.0312  0.1180
  979POPC   C3B13905   0.452  15.183   7.002  0.0686  0.0013 -0.0590
  979POPC   C4B13906   0.051  15.020   7.001  0.2204 -0.0329  0.3490
  980POPC   NC313907   0.291  10.905   5.145  0.2228  0.0002 -0.0718
  980POPC   PO413908   0.613  11.192   5.285 -0.2797 -0.2235  0.5120
  980POPC   GL113909   0.862  11.217   5.709  0.1113 -0.0084 -0.2774
  980POPC   GL213910   1.096  11.371   5.682  0.2518  0.1977 -0.1971
  980POPC   C1A13911   0.725  11.171   6.112  0.1203  0.0931 -0.2018
  980POPC   D2A13912   0.260  11.238   6.247  0.0114 -0.1313 -0.0061
  980POPC   C3A13913   0.090  11.024   6.630 -0.1323  0.0769  0.3403
  980POPC   C4A13914  -0.211  10.842   6.902  0.4269 -0.0310 -0.0896
  980POPC   C1B13915   1.276  11.452   5.987  0.1013 -0.1493 -0.0919
  980POPC   C2B13916   1.251  11.729   6.303  0.3220 -0.2308  0.2666
  980POPC   C3B13917   1.168  11.776   6.738  0.0329  0.3780 -0.0742
  980POPC   C4B13918   1.288  11.914   7.142 -0.1944  0.0333 -0.1766
  981YOPC   NC313919  16.926  18.403   5.324 -0.1002  0.3431 -0.0345
  981YOPC   PO413920  16.632  18.764   5.427 -0.1098  0.2638  0.0809
  981YOPC   GL113921  16.424  18.599   5.814  0.0998 -0.0918  0.0579
  981YOPC   GL213922  16.424  18.672   6.095 -0.1461 -0.1376 -0.0011
  981YOPC   C1A13923  16.186  18.186   6.040 -0.2159  0.1550 -0.3113
  981YOPC   D2A13924  16.109  17.824   6.291 -0.0968 -0.5173  0.1460
  981YOPC   C3A13925  16.044  17.883   6.672 -0.1730 -0.0857 -0.1014
  981YOPC   C4A13926  15.637  17.967   6.830  0.1321 -0.0622  0.0393
  981YOPC   C1B13927  16.303  18.737   6.379 -0.3415 -0.2076 -0.3847
  981YOPC   C2B13928  16.297  19.148   6.783 -0.0586  0.2551 -0.1105
  981YOPC   D3B13929  16.441  19.003   7.206  0.3602  0.0058 -0.0018
  981YOPC   C4B13930  16.320  19.022   7.576  0.1997 -0.0912 -0.0515
  982YOPC   NC313931  17.664   1.194   4.890  0.1121 -0.2482 -0.3137
  982YOPC   PO413932  18.138   1.160   4.789  0.0332  0.4313 -0.0048
  982YOPC   GL113933  18.106   1.068   5.270 -0.1435 -0.0349  0.0110
  982YOPC   GL213934  17.926   0.871   5.277  0.0276  0.1692 -0.0002
  982YOPC   C1A13935  18.276   1.053   5.649  0.0077  0.0843  0.1879
  982YOPC   D2A13936  18.687   1.154   5.840  0.1937  0.1341  0.0535
  982YOPC   C3A13937  18.734   1.463   6.072 -0.1730 -0.2291  0.0346
  982YOPC   C4A13938  18.652   1.604   6.420  0.3736  0.0448  0.3587
  982YOPC   C1B13939  18.100   0.575   5.587 -0.1890  0.1382 -0.2734
  982YOPC   C2B13940  18.024   0.356   5.958  0.1295 -0.1091  0.0034
  982YOPC   D3B13941  18.284   0.528   6.357 -0.2675  0.2241  0.0044
  982YOPC   C4B13942  18.546   0.321   6.668  0.2796 -0.1045  0.0450
  983YOPC   NC313943  14.204   8.241   4.490  0.1590  0.2506 -0.1538
  983YOPC   PO413944  14.254   7.911   4.860 -0.1188 -0.0370  0.1415
  983YOPC   GL113945  14.151   7.823   5.346 -0.0186 -0.0201 -0.3948
  983YOPC   GL213946  14.373   7.558   5.387 -0.0052  0.0806 -0.2360
  983YOPC   C1A13947  14.000   7.854   5.806  0.1465 -0.1889 -0.1826
  983YOPC   D2A13948  13.731   7.573   6.001  0.2568 -0.2524 -0.2045
  983YOPC   C3A13949  13.958   7.519   6.432 -0.0977  0.0593  0.0190
  983YOPC   C4A13950  14.291   7.630   6.672 -0.1684 -0.1502 -0.1000
  983YOPC   C1B13951  14.574   7.295   5.711  0.0086 -0.2240 -0.0469
  983YOPC   C2B13952  14.544   6.941   5.962 -0.1164 -0.1885 -0.0920
  983YOPC   D3B13953  14.063   6.887   5.982 -0.2975 -0.0131 -0.3317
  983YOPC   C4B13954  13.774   7.140   6.139 -0.0189 -0.0777  0.3240
  984YOPC   NC313955  12.888   5.418   5.351  0.0892  0.0985  0.0386
  984YOPC   PO413956  12.981   5.704   5.629 -0.2401  0.1670 -0.3880
  984YOPC   GL113957  12.958   5.667   6.143  0.1936 -0.0571 -0.0916
  984YOPC   GL213958  13.062   5.869   6.294 -0.2310  0.2692 -0.1572
  984YOPC   C1A13959  13.011   5.573   6.615  0.2385 -0.1655 -0.0724
  984YOPC   D2A13960  13.104   5.602   7.081 -0.2038 -0.1544  0.1014
  984YOPC   C3A13961  13.046   5.926   7.277 -0.2185 -0.1663  0.1456
  984YOPC   C4A13962  13.176   6.030   7.755  0.1831  0.1003  0.3935
  984YOPC   C1B13963  12.903   6.029   6.751 -0.0013 -0.5670 -0.1677
  984YOPC   C2B13964  12.709   6.266   7.063  0.2111  0.3099 -0.4086
  984YOPC   D3B13965  13.002   6.468   7.230  0.0306  0.1021  0.0727
  984YOPC   C4B13966  12.841   6.841   7.266  0.0470  0.0338  0.0765
  985YOPC   NC313967   2.228   0.048   5.464 -0.0119 -0.1030 -0.0969
  985YOPC   PO413968   2.485   0.436   5.432  0.0342 -0.4602  0.0380
  985YOPC   GL113969   2.749   0.429   5.792 -0.0402 -0.4462  0.0434
  985YOPC   GL213970   3.098   0.282   5.817  0.0965 -0.3951 -0.0449
  985YOPC   C1A13971   2.858   0.186   6.191  0.0044  0.2073  0.1378
  985YOPC   D2A13972   2.776   0.099   6.634 -0.0707 -0.1567  0.4218
  985YOPC   C3A13973   2.500   0.337   6.836 -0.1706  0.0452 -0.1102
  985YOPC   C4A13974   2.365   0.393   7.248 -0.1228  0.0362 -0.3787
  985YOPC   C1B13975   3.288   0.447   6.200  0.0514 -0.1469  0.4141
  985YOPC   C2B13976   3.257   0.275   6.578 -0.2704  0.2102 -0.0906
  985YOPC   D3B13977   3.557   0.119   6.789  0.0240 -0.4167  0.0696
  985YOPC   C4B13978   3.780  -0.164   6.910  0.1531 -0.0284  0.1269
  986YOPC   NC313979   0.269   7.498   5.143  0.0151 -0.1544 -0.0389
  986YOPC   PO413980  -0.116   7.799   5.143  0.2302 -0.1341 -0.0657
  986YOPC   GL113981   0.013   7.946   5.462 -0.0351 -0.3465 -0.0188
  986YOPC   GL213982   0.284   7.928   5.399  0.2903  0.1485  0.3466
  986YOPC   C1A13983  -0.049   7.822   5.952  0.0552 -0.0940  0.0650
  986YOPC   D2A13984  -0.034   7.700   6.312 -0.0298  0.0355 -0.0106
  986YOPC   C3A13985  -0.056   8.026   6.706 -0.0196  0.1026 -0.6829
  986YOPC   C4A13986   0.296   8.189   6.902  0.1547 -0.1881  0.0380
  986YOPC   C1B13987   0.303   8.176   5.826 -0.1148 -0.0824 -0.2746
  986YOPC   C2B13988   0.521   8.418   6.027  0.0525 -0.1586  0.2521
  986YOPC   D3B13989   0.596   8.425   6.478  0.0988  0.1064  0.1477
  986YOPC   C4B13990   0.904   8.558   6.771  0.2553 -0.0504  0.1609
  987YOPC   NC313991   8.874   9.133   5.543  0.1612 -0.1049  0.5406
  987YOPC   PO413992   9.070   9.383   5.723 -0.3989 -0.0396 -0.2127
  987YOPC   GL113993   9.195   9.369   6.204 -0.2488  0.0435  0.2610
  987YOPC   GL213994   9.352   9.521   6.322 -0.3016  0.3826  0.0275
  987YOPC   C1A13995   8.965   9.319   6.599 -0.0653  0.1677  0.0438
  987YOPC   D2A13996   8.650   8.974   6.793  0.2877 -0.0720  0.1169
  987YOPC   C3A13997   8.712   8.918   7.218 -0.0045  0.1498  0.0621
  987YOPC   C4A13998   8.450   8.957   7.651  0.3242 -0.1733  0.1722
  987YOPC   C1B13999   9.389   9.646   6.660  0.2050  0.0568  0.4471
  987YOPC   C2B14000   9.113   9.637   6.985  0.1416  0.2188 -0.2550
  987YOPC   D3B14001   9.340   9.650   7.440 -0.2183  0.0460 -0.3445
  987YOPC   C4B14002   9.758   9.871   7.625  0.2983 -0.0727 -0.6638
  988YOPC   NC314003   6.712   8.762   5.763  0.0183 -0.2445  0.1255
  988YOPC   PO414004   7.148   8.967   5.777  0.1200  0.2103  0.2023
  988YOPC   GL114005   7.004   9.023   6.174 -0.2069 -0.0838 -0.2136
  988YOPC   GL214006   6.839   9.294   6.198  0.1959  0.1129 -0.0215
  988YOPC   C1A14007   6.864   8.821   6.503 -0.2556  0.3039  0.0750
  988YOPC   D2A14008   6.902   8.575   6.866 -0.2360  0.1371 -0.0117
  988YOPC   C3A14009   6.973   8.591   7.320 -0.1555  0.0913 -0.0546
  988YOPC   C4A14010   6.821   8.594   7.734 -0.0434 -0.1943  0.0455
  988YOPC   C1B14011   6.708   9.304   6.637  0.0321  0.0459 -0.1770
  988YOPC   C2B14012   6.642   9.507   7.155  0.0777  0.0358  0.2964
  988YOPC   D3B14013   6.402   9.321   7.562 -0.0968 -0.2138 -0.1384
  988YOPC   C4B14014   6.169   9.069   8.007 -0.0084  0.1922  0.3059
  989YOPC   NC314015  15.997   3.159   5.027  0.4414  0.0657 -0.3382
  989YOPC   PO414016  16.295   2.871   5.075 -0.1645  0.0473  0.2993
  989YOPC   GL114017  16.339   2.986   5.492  0.2191  0.0216  0.2443
  989YOPC   GL214018  16.090   2.688   5.509 -0.1059 -0.1560 -0.1295
  989YOPC   C1A14019  16.443   2.896   5.930 -0.1396 -0.1526  0.1677
  989YOPC   D2A14020  16.682   2.950   6.220  0.0820 -0.1914  0.0605
  989YOPC   C3A14021  17.141   2.889   6.221  0.1070  0.2054 -0.1766
  989YOPC   C4A14022  17.495   2.670   6.489 -0.0424  0.1307 -0.0250
  989YOPC   C1B14023  15.956   2.333   5.851  0.0441 -0.2242  0.2111
  989YOPC   C2B14024  15.669   2.158   6.151  0.1186  0.0092 -0.2861
  989YOPC   D3B14025  15.523   1.856   6.504 -0.1564  0.0887 -0.1461
  989YOPC   C4B14026  15.528   2.181   6.899  0.2316  0.4493 -0.1385
  990YOPC   NC314027   6.475  19.027   5.835  0.0681 -0.1404  0.0061
  990YOPC   PO414028   6.815  18.713   5.773 -0.2258 -0.1373  0.4009
  990YOPC   GL114029   6.902  19.020   6.071  0.1203 -0.1218 -0.0669
  990YOPC   GL214030   7.119  18.837   6.202 -0.2441  0.0211 -0.0198
  990YOPC   C1A14031   6.928  19.338   6.331 -0.0055  0.1669 -0.2666
  990YOPC   D2A14032   7.164  19.686   6.336 -0.2073 -0.3990 -0.1570
  990YOPC   C3A14033   7.164  20.074   6.199  0.0600 -0.1852  0.1400
  990YOPC   C4A14034   7.200  20.480   6.354  0.0269  0.1754 -0.4414
  990YOPC   C1B14035   7.079  18.874   6.608 -0.3007 -0.0830  0.5298
  990YOPC   C2B14036   7.286  18.698   6.904 -0.0044  0.1469 -0.2556
  990YOPC   D3B14037   7.503  18.855   7.358  0.0140 -0.3063  0.2873
  990YOPC   C4B14038   7.434  19.046   7.675  0.4116  0.2058  0.1791
  991YOPC   NC314039  17.423  11.458   4.734  0.0765 -0.1361  0.2678
  991YOPC   PO414040  17.366  11.720   5.128  0.0609 -0.0605  0.0160
  991YOPC   GL114041  17.323  11.850   5.617 -0.0254  0.1103 -0.0817
  991YOPC   GL214042  17.687  11.813   5.793  0.1266 -0.0867 -0.0740
  991YOPC   C1A14043  17.184  11.928   6.047  0.2517  0.1625  0.1016
  991YOPC   D2A14044  17.208  11.730   6.441  0.0523 -0.0405  0.0021
  991YOPC   C3A14045  17.102  11.347   6.588 -0.0167 -0.0321 -0.0718
  991YOPC   C4A14046  17.072  10.938   6.580 -0.0421  0.3110  0.2481
  991YOPC   C1B14047  17.952  11.508   6.112  0.1875 -0.0806  0.2909
  991YOPC   C2B14048  18.147  11.529   6.583 -0.0690  0.2411 -0.1441
  991YOPC   D3B14049  18.376  11.278   6.797  0.2727 -0.0808 -0.3193
  991YOPC   C4B14050  18.409  10.844   6.902 -0.0719  0.1234  0.1926
  992YOPC   NC314051   0.853  19.021   5.219  0.3829  0.1723  0.0015
  992YOPC   PO414052   1.147  19.308   5.356 -0.1760  0.2173  0.0445
  992YOPC   GL114053   1.312  19.214   5.747 -0.0595 -0.1167 -0.1394
  992YOPC   GL214054   1.154  18.858   5.755 -0.1398 -0.2707  0.1304
  992YOPC   C1A14055   1.391  19.259   6.206  0.1765 -0.1036  0.0245
  992YOPC   D2A14056   1.443  19.427   6.589  0.0544 -0.0014 -0.2078
  992YOPC   C3A14057   1.590  19.668   6.846  0.4251  0.0720 -0.0887
  992YOPC   C4A14058   1.801  20.163   6.893  0.0670 -0.0925  0.0069
  992YOPC   C1B14059   0.956  19.014   6.051 -0.2189  0.1505  0.0171
  992YOPC   C2B14060   0.480  19.026   6.075  0.4992 -0.0405 -0.0165
  992YOPC   D3B14061   0.235  19.282   6.379  0.0421  0.4023  0.0614
  992YOPC   C4B14062   0.499  19.591   6.564 -0.0113 -0.0013  0.0777
  993YOPC   NC314063  13.270   6.103   5.724 -0.0363  0.0890 -0.0063
  993YOPC   PO414064  13.589   6.365   5.612  0.2871  0.0877  0.1494
  993YOPC   GL114065  13.842   6.025   5.852 -0.0190  0.0936  0.2267
  993YOPC   GL214066  13.518   6.117   6.208 -0.3399  0.0779  0.2698
  993YOPC   C1A14067  13.977   5.871   6.210 -0.0200  0.0789 -0.2502
  993YOPC   D2A14068  14.127   5.994   6.653  0.0371  0.0055  0.1687
  993YOPC   C3A14069  14.410   6.370   6.785  0.1886 -0.1527  0.1001
  993YOPC   C4A14070  14.433   6.813   6.976  0.2056 -0.0079  0.1715
  993YOPC   C1B14071  13.302   6.398   6.504  0.0692 -0.0595  0.0114
  993YOPC   C2B14072  13.125   6.579   6.754 -0.0877 -0.1297 -0.0138
  993YOPC   D3B14073  13.282   6.967   6.949  0.0372  0.0134 -0.0068
  993YOPC   C4B14074  13.382   7.305   7.302 -0.1028  0.1752 -0.1491
  994YOPC   NC314075   9.716   3.385   5.609  0.0164  0.0868 -0.0789
  994YOPC   PO414076   9.434   3.545   5.333  0.1454 -0.2623 -0.2322
  994YOPC   GL114077   9.270   3.532   5.666  0.2312  0.1045 -0.0436
  994YOPC   GL214078   9.208   3.258   5.800  0.2868  0.2755 -0.0793
  994YOPC   C1A14079   9.418   3.717   6.117 -0.0012 -0.2458 -0.3271
  994YOPC   D2A14080   9.579   3.538   6.544  0.1067  0.0395 -0.0201
  994YOPC   C3A14081   9.566   3.787   6.915  0.3333  0.2264 -0.0751
  994YOPC   C4A14082   9.714   4.088   7.223  0.1239 -0.1596 -0.0480
  994YOPC   C1B14083   9.332   3.151   6.166 -0.5915  0.0901 -0.0529
  994YOPC   C2B14084   9.486   3.036   6.522 -0.0447  0.3537  0.1587
  994YOPC   D3B14085   9.427   2.993   6.978 -0.1045 -0.1587 -0.0175
  994YOPC   C4B14086   9.328   2.721   7.280 -0.1512 -0.1741  0.0332
  995YOPC   NC314087  18.763   4.155   5.478 -0.0383 -0.1991  0.1562
  995YOPC   PO414088  19.173   3.929   5.558 -0.0951 -0.0921 -0.3107
  995YOPC   GL114089  19.285   4.224   5.888 -0.3327 -0.1120  0.0239
  995YOPC   GL214090  18.950   4.304   5.975 -0.1550  0.1862 -0.1769
  995YOPC   C1A14091  19.369   4.230   6.287  0.0984  0.0223  0.4018
  995YOPC   D2A14092  19.228   4.561   6.647  0.1754  0.2404 -0.2639
  995YOPC   C3A14093  19.449   4.525   7.051  0.2957  0.1299 -0.3009
  995YOPC   C4A14094  19.535   4.292   7.419 -0.2836 -0.0567 -0.4155
  995YOPC   C1B14095  18.714   4.426   6.364 -0.1094  0.2448  0.2290
  995YOPC   C2B14096  18.610   4.375   6.847  0.0627 -0.0909  0.0322
  995YOPC   D3B14097  18.828   4.788   7.023 -0.4889  0.2109  0.0296
  995YOPC   C4B14098  19.218   4.913   7.229 -0.1587 -0.1222 -0.3084
  996YOPC   NC314099   5.229   5.188   4.938 -0.2190 -0.1257 -0.0725
  996YOPC   PO414100   5.201   5.369   5.437  0.0012 -0.3823 -0.2672
  996YOPC   GL114101   5.373   5.342   5.828 -0.1728  0.2180 -0.4236
  996YOPC   GL214102   5.317   5.600   5.929 -0.0148 -0.5993  0.0058
  996YOPC   C1A14103   5.505   5.121   6.164 -0.0744  0.0068  0.0008
  996YOPC   D2A14104   5.674   5.183   6.555 -0.0372 -0.1298  0.0363
  996YOPC   C3A14105   5.440   5.464   6.855  0.0801 -0.0535 -0.2477
  996YOPC   C4A14106   5.453   5.373   7.336  0.0786 -0.0491  0.2804
  996YOPC   C1B14107   5.227   6.159   6.018  0.0235  0.3457 -0.1335
  996YOPC   C2B14108   5.130   6.555   6.099  0.0376 -0.1308 -0.1810
  996YOPC   D3B14109   5.131   6.644   6.618  0.1877 -0.4738 -0.2524
  996YOPC   C4B14110   5.336   7.042   6.806 -0.3827 -0.1951  0.1262
  997YOPC   NC314111  12.418   3.159   5.273  0.2679  0.0359 -0.3562
  997YOPC   PO414112  12.028   3.213   5.406  0.2072 -0.1005 -0.0778
  997YOPC   GL114113  11.827   3.423   5.738  0.1044 -0.3870 -0.2784
  997YOPC   GL214114  12.091   3.300   5.919  0.0790 -0.2279  0.0989
  997YOPC   C1A14115  11.699   3.688   6.028 -0.1135 -0.2788  0.2797
  997YOPC   D2A14116  11.970   3.847   6.437 -0.0462 -0.2645  0.2489
  997YOPC   C3A14117  12.136   3.885   6.880 -0.0242  0.0974  0.2456
  997YOPC   C4A14118  12.369   3.571   7.137 -0.1779  0.1184  0.1097
  997YOPC   C1B14119  12.090   3.270   6.364  0.0052 -0.0642 -0.1520
  997YOPC   C2B14120  12.311   3.460   6.628  0.1006 -0.0212 -0.1490
  997YOPC   D3B14121  12.268   3.186   6.862  0.0173 -0.0523  0.2412
  997YOPC   C4B14122  12.202   3.179   7.344  0.1852  0.3164  0.0464
  998YOPC   NC314123  10.636   6.960   5.036 -0.2726  0.1192  0.1615
  998YOPC   PO414124  10.367   7.208   5.016 -0.2210 -0.0904 -0.2985
  998YOPC   GL114125  10.301   7.124   5.553  0.0694 -0.2281 -0.0042
  998YOPC   GL214126  10.579   7.336   5.613 -0.1641  0.0177 -0.3779
  998YOPC   C1A14127  10.271   7.311   6.027  0.2971  0.0048  0.0385
  998YOPC   D2A14128  10.222   7.155   6.385  0.3331 -0.1265  0.1229
  998YOPC   C3A14129  10.324   7.170   6.852  0.0637 -0.1409 -0.1723
  998YOPC   C4A14130  10.503   7.562   6.958  0.1051  0.0324  0.0657
  998YOPC   C1B14131  10.635   7.733   6.022  0.1561  0.0415 -0.0674
  998YOPC   C2B14132  10.506   8.133   6.191 -0.3758  0.0211  0.2492
  998YOPC   D3B14133  10.127   8.230   6.435 -0.0197  0.1424  0.2483
  998YOPC   C4B14134   9.925   8.325   6.853  0.0053 -0.1884  0.2980
  999YOPC   NC314135   2.029  17.904   5.502 -0.1219 -0.1258 -0.0031
  999YOPC   PO414136   2.231  18.263   5.433 -0.1447  0.0508  0.2368
  999YOPC   GL114137   2.089  18.312   5.893 -0.0368 -0.0662 -0.0462
  999YOPC   GL214138   1.815  18.446   5.969 -0.0331 -0.0150 -0.3171
  999YOPC   C1A14139   2.305  18.408   6.258 -0.0033 -0.1170 -0.0557
  999YOPC   D2A14140   2.464  18.441   6.637  0.0515  0.1036  0.2288
  999YOPC   C3A14141   2.205  18.274   7.039 -0.0203 -0.1455  0.0760
  999YOPC   C4A14142   1.886  17.982   7.190  0.2653  0.1422  0.1930
  999YOPC   C1B14143   1.835  18.657   6.294  0.1366  0.0118 -0.0985
  999YOPC   C2B14144   1.629  18.952   6.564 -0.2611 -0.1278  0.0373
  999YOPC   D3B14145   1.176  18.952   6.492  0.0346 -0.1154  0.0041
  999YOPC   C4B14146   1.039  19.061   6.896  0.2613 -0.3460 -0.3113
 1000YOPC   NC314147   8.106  17.274   5.804 -0.2454  0.0358  0.1571
 1000YOPC   PO414148   8.396  16.991   5.569  0.1089 -0.2739 -0.0091
 1000YOPC   GL114149   8.317  16.858   5.986  0.0174  0.0843 -0.1230
 1000YOPC   GL214150   8.628  16.698   5.991 -0.0118  0.3104  0.3758
 1000YOPC   C1A14151   8.235  16.482   6.223  0.3009 -0.2505 -0.2824
 1000YOPC   D2A14152   8.415  16.230   6.467  0.3414  0.3591 -0.0587
 1000YOPC   C3A14153   8.823  16.150   6.546 -0.0955  0.0547 -0.2130
 1000YOPC   C4A14154   9.213  16.284   6.464 -0.2112 -0.1351  0.1963
 1000YOPC   C1B14155   8.685  16.658   6.440  0.1673  0.1586  0.0858
 1000YOPC   C2B14156   8.645  16.965   6.833 -0.0905 -0.0427  0.1230
 1000YOPC   D3B14157   8.597  16.769   7.256 -0.0870 -0.0027 -0.0434
 1000YOPC   C4B14158   8.605  16.382   7.515  0.0323 -0.1519 -0.2950
 1001YOPC   NC314159   4.873   2.161   5.224 -0.2659 -0.0594 -0.0564
 1001YOPC   PO414160   5.185   1.884   5.153  0.2956 -0.1898  0.3687
 1001YOPC   GL114161   5.139   1.791   5.490 -0.3599  0.1947 -0.4608
 1001YOPC   GL214162   5.115   2.048   5.663 -0.1880 -0.0058  0.0910
 1001YOPC   C1A14163   5.372   1.701   5.869  0.1102 -0.0714  0.0173
 1001YOPC   D2A14164   5.388   1.990   6.194 -0.1089 -0.4265  0.2297
 1001YOPC   C3A14165   5.623   2.033   6.542 -0.0002  0.3406 -0.1379
 1001YOPC   C4A14166   5.846   2.027   7.019  0.1707 -0.1954  0.1981
 1001YOPC   C1B14167   5.039   2.262   6.030  0.4646  0.1323 -0.1528
 1001YOPC   C2B14168   4.658   2.238   6.041 -0.0068  0.1936 -0.3075
 1001YOPC   D3B14169   4.532   2.401   6.345 -0.0497 -0.0332 -0.0576
 1001YOPC   C4B14170   4.619   2.402   6.769  0.1780 -0.2097 -0.1611
 1002YOPC   NC314171  16.174  12.609   4.468 -0.4399 -0.3310 -0.0407
 1002YOPC   PO414172  15.833  12.756   4.703  0.1600  0.0212  0.0239
 1002YOPC   GL114173  15.707  12.692   5.078 -0.2791 -0.3942 -0.1606
 1002YOPC   GL214174  15.782  12.804   5.393 -0.1159 -0.1766 -0.0103
 1002YOPC   C1A14175  15.579  12.344   5.370 -0.2886 -0.0330 -0.1152
 1002YOPC   D2A14176  15.651  11.960   5.644  0.0325  0.1966  0.0627
 1002YOPC   C3A14177  15.546  12.021   6.106 -0.3107  0.0290 -0.1042
 1002YOPC   C4A14178  15.849  12.148   6.419  0.2574 -0.0376  0.0785
 1002YOPC   C1B14179  15.917  13.060   5.679 -0.4433 -0.2435 -0.1769
 1002YOPC   C2B14180  15.882  13.459   5.901  0.1968 -0.1491  0.0879
 1002YOPC   D3B14181  16.057  13.598   6.278 -0.3340  0.1220 -0.0865
 1002YOPC   C4B14182  15.747  13.918   6.565  0.1264  0.0334 -0.1817
 1003YOPC   NC314183   5.055   8.472   5.360  0.0104 -0.2181 -0.0183
 1003YOPC   PO414184   5.353   8.440   5.657  0.1562  0.0135 -0.3305
 1003YOPC   GL114185   5.421   8.495   6.058  0.0172  0.1910  0.0681
 1003YOPC   GL214186   5.191   8.262   6.144  0.2004  0.2349 -0.1013
 1003YOPC   C1A14187   5.527   8.423   6.413  0.0589 -0.0737  0.1438
 1003YOPC   D2A14188   5.663   8.082   6.660  0.2728  0.2435 -0.0192
 1003YOPC   C3A14189   5.372   8.013   6.986 -0.1912 -0.0106  0.1105
 1003YOPC   C4A14190   5.206   7.965   7.415  0.0282  0.0129  0.1822
 1003YOPC   C1B14191   5.093   8.128   6.563  0.1149 -0.2680 -0.0477
 1003YOPC   C2B14192   4.749   8.067   6.756  0.0797 -0.2348  0.0240
 1003YOPC   D3B14193   4.852   7.717   7.098  0.0602  0.2083 -0.2396
 1003YOPC   C4B14194   5.186   7.372   7.217  0.1014  0.2059  0.1694
 1004YOPC   NC314195  13.722   4.384   5.429  0.1190  0.1148 -0.1477
 1004YOPC   PO414196  13.219   4.409   5.417 -0.0170  0.2535 -0.0192
 1004YOPC   GL114197  13.235   4.257   5.849 -0.0185  0.3204 -0.1354
 1004YOPC   GL214198  13.469   4.377   6.037  0.1345  0.0043  0.4127
 1004YOPC   C1A14199  13.527   3.829   6.081 -0.1361  0.2181  0.2426
 1004YOPC   D2A14200  13.757   3.776   6.432 -0.0555  0.0041 -0.0798
 1004YOPC   C3A14201  13.692   4.049   6.836  0.0359  0.0774  0.0008
 1004YOPC   C4A14202  13.672   4.220   7.192 -0.2305 -0.0955  0.0754
 1004YOPC   C1B14203  13.749   4.364   6.408 -0.0144  0.3407 -0.0803
 1004YOPC   C2B14204  14.017   4.529   6.728  0.1859 -0.1231 -0.3035
 1004YOPC   D3B14205  14.126   4.928   6.883 -0.2693  0.2952 -0.0282
 1004YOPC   C4B14206  14.492   5.027   6.972  0.0071 -0.0060 -0.1722
 1005YOPC   NC314207   4.738  14.364   5.582  0.0156  0.2625  0.2138
 1005YOPC   PO414208   4.295  14.209   5.533 -0.0484 -0.3248  0.1247
 1005YOPC   GL114209   4.387  14.036   5.946 -0.2143 -0.2034  0.0472
 1005YOPC   GL214210   4.206  13.826   6.104  0.1155  0.2640  0.1199
 1005YOPC   C1A14211   4.557  14.019   6.378  0.1692 -0.2642  0.0733
 1005YOPC   D2A14212   4.690  14.085   6.769 -0.1607  0.1150 -0.3192
 1005YOPC   C3A14213   4.619  13.697   6.884 -0.1067  0.0375  0.1049
 1005YOPC   C4A14214   4.255  13.482   7.052  0.3177 -0.1102  0.2531
 1005YOPC   C1B14215   4.200  13.347   5.991 -0.3932 -0.3268 -0.2480
 1005YOPC   C2B14216   4.076  12.922   6.229 -0.1744  0.0070  0.0746
 1005YOPC   D3B14217   3.962  12.660   6.569  0.2589 -0.2919 -0.0533
 1005YOPC   C4B14218   3.600  12.645   6.728 -0.5417  0.2025  0.0566
 1006YOPC   NC314219   8.919  14.999   5.966 -0.2132 -0.0333  0.2435
 1006YOPC   PO414220   8.537  14.772   5.789  0.2088 -0.0429  0.1899
 1006YOPC   GL114221   8.635  14.641   6.191  0.2635 -0.0439  0.0198
 1006YOPC   GL214222   8.647  14.360   6.172 -0.0332  0.1939 -0.0631
 1006YOPC   C1A14223   8.595  14.890   6.563  0.1161 -0.2334 -0.2834
 1006YOPC   D2A14224   8.379  14.856   6.996 -0.0786 -0.0725 -0.0133
 1006YOPC   C3A14225   7.973  14.584   7.071  0.0808 -0.0326 -0.2105
 1006YOPC   C4A14226   7.728  14.356   7.377 -0.3245 -0.0032  0.2409
 1006YOPC   C1B14227   8.471  14.416   6.545  0.3390 -0.2084  0.4726
 1006YOPC   C2B14228   8.150  14.538   6.662  0.1299 -0.2032  0.0551
 1006YOPC   D3B14229   7.919  14.131   6.742  0.1566  0.0780 -0.0792
 1006YOPC   C4B14230   7.651  13.952   7.136 -0.0039  0.0402  0.3863
 1007YOPC   NC314231  12.370  14.747   5.213 -0.2722 -0.1640 -0.1536
 1007YOPC   PO414232  12.775  14.880   5.277 -0.0164 -0.0982  0.2411
 1007YOPC   GL114233  12.666  15.214   5.505  0.2689  0.0024  0.0511
 1007YOPC   GL214234  12.777  15.299   5.702 -0.0226  0.2521  0.3342
 1007YOPC   C1A14235  12.322  15.476   5.662 -0.0685 -0.0423  0.3911
 1007YOPC   D2A14236  12.008  15.709   5.964  0.0447  0.1046 -0.0580
 1007YOPC   C3A14237  12.118  15.790   6.322 -0.1093  0.2738  0.3271
 1007YOPC   C4A14238  12.358  15.653   6.622  0.2020 -0.0833  0.1936
 1007YOPC   C1B14239  12.965  15.344   6.062  0.2746  0.0994 -0.1908
 1007YOPC   C2B14240  13.312  15.294   6.391 -0.1305  0.0567 -0.1621
 1007YOPC   D3B14241  13.311  15.317   6.773  0.0245  0.1240 -0.2086
 1007YOPC   C4B14242  13.205  15.701   6.978 -0.1597  0.1602 -0.0170
 1008YOPC   NC314243  15.279  14.945   4.722 -0.3081 -0.2510 -0.0565
 1008YOPC   PO414244  15.531  14.867   5.135 -0.0629 -0.0315  0.3161
 1008YOPC   GL114245  15.532  14.922   5.641 -0.2177  0.3159 -0.0501
 1008YOPC   GL214246  15.306  14.579   5.587  0.1272 -0.1399 -0.0169
 1008YOPC   C1A14247  15.776  15.167   6.005  0.0828 -0.0598 -0.2864
 1008YOPC   D2A14248  15.949  14.830   6.252 -0.5331 -0.4011 -0.1353
 1008YOPC   C3A14249  16.018  14.910   6.766 -0.4784  0.0732 -0.1012
 1008YOPC   C4A14250  16.268  14.818   7.062  0.0410  0.5262 -0.2347
 1008YOPC   C1B14251  15.377  14.125   5.813  0.2433  0.3170 -0.0924
 1008YOPC   C2B14252  15.374  14.069   6.194 -0.0792  0.0339 -0.3616
 1008YOPC   D3B14253  15.264  14.159   6.609  0.0743  0.0013  0.1923
 1008YOPC   C4B14254  15.160  14.507   6.924 -0.1520 -0.0892  0.3140
 1009YOPC   NC314255  12.309   8.931   5.494 -0.0390 -0.1946 -0.2259
 1009YOPC   PO414256  11.980   8.773   5.522 -0.0433  0.1895 -0.0817
 1009YOPC   GL114257  12.018   8.871   5.907  0.0351 -0.2457 -0.0757
 1009YOPC   GL214258  12.298   8.729   6.010  0.0001 -0.1321 -0.1187
 1009YOPC   C1A14259  11.752   9.000   6.299 -0.0891 -0.0357  0.1949
 1009YOPC   D2A14260  11.599   8.998   6.636 -0.1302 -0.0585  0.1259
 1009YOPC   C3A14261  11.534   8.720   6.886  0.1529  0.2956  0.3377
 1009YOPC   C4A14262  11.519   8.829   7.265  0.0795 -0.0180 -0.1989
 1009YOPC   C1B14263  12.140   8.642   6.398  0.4365  0.1882 -0.0673
 1009YOPC   C2B14264  12.048   8.363   6.773 -0.2406 -0.0450  0.0674
 1009YOPC   D3B14265  11.886   8.360   7.156  0.0947  0.2296 -0.0344
 1009YOPC   C4B14266  11.789   8.536   7.569  0.3592 -0.5282  0.1430
 1010YOPC   NC314267   2.694   4.206   5.384  0.0557  0.2941 -0.1651
 1010YOPC   PO414268   2.300   3.982   5.386 -0.0114  0.0329 -0.0164
 1010YOPC   GL114269   2.497   3.829   5.728 -0.3143 -0.0468  0.0658
 1010YOPC   GL214270   2.668   4.099   5.924 -0.1280  0.1139 -0.1714
 1010YOPC   C1A14271   2.540   3.685   6.092  0.2752  0.0769 -0.0817
 1010YOPC   D2A14272   2.627   3.475   6.362  0.0178  0.4818 -0.1462
 1010YOPC   C3A14273   2.647   3.152   6.181 -0.5177  0.0055  0.2596
 1010YOPC   C4A14274   2.388   2.868   6.017 -0.0263  0.2684 -0.0833
 1010YOPC   C1B14275   2.885   4.044   6.259  0.0697  0.0297  0.0197
 1010YOPC   C2B14276   3.078   3.998   6.707 -0.0939  0.1002  0.0826
 1010YOPC   D3B14277   3.056   4.247   7.157 -0.0273 -0.2140 -0.1806
 1010YOPC   C4B14278   2.811   4.065   7.531  0.0287 -0.2025  0.0466
 1011YOPC   NC314279   0.444  14.394   5.003 -0.1720 -0.1063  0.4922
 1011YOPC   PO414280   0.844  14.451   5.308  0.0634 -0.1372  0.0331
 1011YOPC   GL114281   0.752  14.424   5.808 -0.1037  0.0327 -0.0591
 1011YOPC   GL214282   0.466  14.484   6.026  0.0976  0.0667  0.1062
 1011YOPC   C1A14283   1.068  14.279   5.991  0.3248  0.3243 -0.1350
 1011YOPC   D2A14284   0.937  13.809   6.059 -0.0074 -0.0331 -0.1472
 1011YOPC   C3A14285   0.718  13.744   6.467  0.4430  0.0088  0.2563
 1011YOPC   C4A14286   0.675  13.674   6.971 -0.4908 -0.1016 -0.1954
 1011YOPC   C1B14287   0.620  14.290   6.367 -0.2406  0.3899  0.1133
 1011YOPC   C2B14288   0.479  14.133   6.826  0.4081  0.1045  0.0891
 1011YOPC   D3B14289   0.705  14.251   7.160 -0.0748 -0.1869 -0.1865
 1011YOPC   C4B14290   1.040  14.414   7.323 -0.0303 -0.3057 -0.0555
 1012YOPC   NC314291   9.350   2.995   5.344 -0.0652  0.0723  0.3172
 1012YOPC   PO414292   9.658   2.735   5.386  0.2054  0.1616  0.3938
 1012YOPC   GL114293   9.594   2.751   5.773 -0.0954 -0.0521 -0.1669
 1012YOPC   GL214294   9.856   3.022   5.937  0.1991  0.0464 -0.3664
 1012YOPC   C1A14295   9.521   2.690   6.143  0.1394  0.0665 -0.0758
 1012YOPC   D2A14296   9.471   2.469   6.522  0.0234  0.0798  0.2224
 1012YOPC   C3A14297   9.648   2.652   6.799 -0.1918  0.2746  0.2683
 1012YOPC   C4A14298   9.818   2.822   7.170 -0.2654  0.0444 -0.0378
 1012YOPC   C1B14299   9.970   3.318   6.250  0.0022  0.2109 -0.1278
 1012YOPC   C2B14300  10.361   3.546   6.329 -0.1846  0.1201 -0.0210
 1012YOPC   D3B14301  10.661   3.829   6.262 -0.0404  0.2465  0.2441
 1012YOPC   C4B14302  11.001   4.119   6.478 -0.1242  0.0145 -0.1174
 1013YOPC   NC314303   3.512   0.692   4.938  0.1212 -0.0877  0.0610
 1013YOPC   PO414304   3.860   0.772   5.282  0.0824  0.2328  0.2359
 1013YOPC   GL114305   4.231   0.917   5.596  0.0741  0.0991 -0.1522
 1013YOPC   GL214306   4.089   1.207   5.481  0.0830  0.0981  0.1309
 1013YOPC   C1A14307   4.422   0.816   6.001  0.0549 -0.1539 -0.1674
 1013YOPC   D2A14308   4.289   0.568   6.421  0.3522 -0.1748  0.4569
 1013YOPC   C3A14309   4.649   0.466   6.796  0.0122  0.1752  0.2647
 1013YOPC   C4A14310   4.854   0.136   7.119  0.0301 -0.1229  0.0220
 1013YOPC   C1B14311   4.120   1.282   5.888 -0.0593 -0.2168 -0.1406
 1013YOPC   C2B14312   4.045   1.586   6.300  0.0108 -0.0562 -0.0624
 1013YOPC   D3B14313   4.255   1.580   6.706 -0.1083  0.3928  0.1175
 1013YOPC   C4B14314   4.619   1.477   6.844  0.0851  0.0851 -0.0444
 1014YOPC   NC314315   7.881  11.978   5.401 -0.2764  0.0379 -0.1814
 1014YOPC   PO414316   8.253  11.918   5.690 -0.1300  0.2701  0.1992
 1014YOPC   GL114317   8.134  12.135   6.017  0.0058  0.1350  0.0703
 1014YOPC   GL214318   8.318  12.023   6.270  0.0892  0.2937  0.1317
 1014YOPC   C1A14319   7.963  12.224   6.519  0.3191 -0.2251 -0.1964
 1014YOPC   D2A14320   7.954  11.932   6.818  0.0359  0.0187  0.1354
 1014YOPC   C3A14321   7.992  11.861   7.224  0.0909  0.1796  0.2466
 1014YOPC   C4A14322   7.665  11.698   7.508 -0.1045  0.1158 -0.1127
 1014YOPC   C1B14323   8.365  11.612   6.508  0.1275  0.0367 -0.2672
 1014YOPC   C2B14324   8.164  11.152   6.555  0.1085 -0.2051  0.1001
 1014YOPC   D3B14325   7.804  10.939   6.475  0.2109 -0.0585 -0.2250
 1014YOPC   C4B14326   7.525  10.766   6.549  0.1026  0.1251  0.3119
 1015YOPC   NC314327  10.810   5.164   5.178 -0.2952  0.0214 -0.0638
 1015YOPC   PO414328  10.713   5.014   5.634 -0.1107 -0.2751 -0.0302
 1015YOPC   GL114329  10.441   5.014   5.997  0.0427 -0.2850 -0.1049
 1015YOPC   GL214330  10.186   5.127   6.184 -0.3949 -0.1775  0.2131
 1015YOPC   C1A14331  10.578   4.959   6.439 -0.0305  0.1106 -0.1430
 1015YOPC   D2A14332  10.425   5.093   6.980  0.1246 -0.0010  0.2608
 1015YOPC   C3A14333  10.654   5.204   7.324 -0.4876 -0.1772  0.1849
 1015YOPC   C4A14334  10.884   5.443   7.639  0.1903  0.1474 -0.1566
 1015YOPC   C1B14335  10.069   5.104   6.501 -0.0406  0.1450 -0.1053
 1015YOPC   C2B14336   9.891   5.298   6.831 -0.3857  0.0127 -0.2089
 1015YOPC   D3B14337  10.013   5.637   7.026  0.0667  0.0107 -0.0156
 1015YOPC   C4B14338  10.212   5.923   7.296 -0.0163  0.1074  0.1017
 1016YOPC   NC314339   8.565  13.015   5.455  0.1308  0.2117  0.1855
 1016YOPC   PO414340   8.224  13.279   5.629 -0.0466  0.1454 -0.2894
 1016YOPC   GL114341   8.221  13.480   6.053  0.1409  0.3434 -0.4435
 1016YOPC   GL214342   8.400  13.772   6.095  0.4413  0.1642 -0.1116
 1016YOPC   C1A14343   8.230  13.472   6.488 -0.0745 -0.0527 -0.2019
 1016YOPC   D2A14344   8.164  13.757   6.923  0.0489 -0.1801 -0.1529
 1016YOPC   C3A14345   8.007  13.611   7.278  0.0901  0.0594  0.4035
 1016YOPC   C4A14346   7.985  13.890   7.702  0.1224  0.1767  0.0214
 1016YOPC   C1B14347   8.464  13.940   6.464  0.1517 -0.1028 -0.0853
 1016YOPC   C2B14348   8.690  14.075   6.826  0.1958  0.0239 -0.2018
 1016YOPC   D3B14349   8.513  14.340   7.082 -0.0275  0.0830 -0.1933
 1016YOPC   C4B14350   8.160  14.150   7.184 -0.1982  0.2858  0.0284
 1017YOPC   NC314351   9.693   8.315   5.319  0.1172 -0.2527  0.0648
 1017YOPC   PO414352   9.694   7.814   5.338 -0.1783 -0.1476  0.0864
 1017YOPC   GL114353   9.675   7.810   5.766  0.0021  0.3622  0.0293
 1017YOPC   GL214354   9.482   7.693   5.829  0.2047  0.1792 -0.0881
 1017YOPC   C1A14355   9.888   7.853   6.156 -0.1021 -0.2614 -0.0749
 1017YOPC   D2A14356  10.128   7.652   6.436 -0.2573  0.0141 -0.0569
 1017YOPC   C3A14357  10.002   7.773   6.734 -0.1840 -0.0388 -0.1337
 1017YOPC   C4A14358   9.868   7.537   7.040 -0.3406 -0.0090  0.0030
 1017YOPC   C1B14359   9.264   7.815   6.205 -0.0046 -0.2920 -0.0323
 1017YOPC   C2B14360   9.017   7.778   6.550  0.5467 -0.0878  0.0665
 1017YOPC   D3B14361   8.595   7.513   6.521  0.3770 -0.0099  0.1293
 1017YOPC   C4B14362   8.602   7.083   6.471  0.1086  0.0114 -0.0207
 1018YOPC   NC314363   2.030  12.918   5.400 -0.0301  0.0573  0.1652
 1018YOPC   PO414364   2.437  13.095   5.462 -0.1337  0.0930  0.1499
 1018YOPC   GL114365   2.265  13.044   5.806 -0.1150  0.0110 -0.0842
 1018YOPC   GL214366   1.895  12.947   5.889 -0.0993 -0.2087 -0.0594
 1018YOPC   C1A14367   2.229  13.113   6.284 -0.0931  0.0687 -0.1758
 1018YOPC   D2A14368   2.191  12.873   6.612  0.2034  0.0746  0.2383
 1018YOPC   C3A14369   2.483  12.993   6.824 -0.0671  0.0287  0.0326
 1018YOPC   C4A14370   2.873  12.821   7.066 -0.1297  0.1845 -0.2326
 1018YOPC   C1B14371   1.619  12.752   6.171  0.1419  0.2253 -0.0524
 1018YOPC   C2B14372   1.550  12.697   6.586 -0.1654 -0.1525  0.2512
 1018YOPC   D3B14373   1.856  12.637   6.928  0.3066 -0.1622  0.0753
 1018YOPC   C4B14374   2.195  12.495   6.955  0.0818  0.2256  0.0918
 1019YOPC   NC314375   2.436  18.709   5.387  0.1540 -0.0909 -0.0136
 1019YOPC   PO414376   2.848  18.727   5.426 -0.0580  0.1909 -0.1120
 1019YOPC   GL114377   3.107  18.684   5.808 -0.1232  0.0449 -0.1377
 1019YOPC   GL214378   2.962  18.865   5.906  0.0499  0.1851 -0.0076
 1019YOPC   C1A14379   3.415  18.410   5.967 -0.0709 -0.2476  0.3513
 1019YOPC   D2A14380   3.410  17.978   6.017 -0.0079  0.3119 -0.4262
 1019YOPC   C3A14381   3.130  17.899   6.231  0.0505 -0.2938 -0.4733
 1019YOPC   C4A14382   2.992  17.689   6.618 -0.2025 -0.0409  0.0914
 1019YOPC   C1B14383   2.687  18.885   6.276  0.1458 -0.2169 -0.0641
 1019YOPC   C2B14384   2.320  18.864   6.509 -0.0214 -0.0752 -0.1234
 1019YOPC   D3B14385   2.308  18.966   6.900  0.3707  0.0286  0.0900
 1019YOPC   C4B14386   2.227  18.717   7.298  0.0505 -0.1142 -0.1662
 1020YOPC   NC314387   6.960   1.828   5.054  0.1257 -0.4022 -0.0228
 1020YOPC   PO414388   6.719   1.457   5.008 -0.1039 -0.0686  0.0632
 1020YOPC   GL114389   6.566   1.574   5.354  0.0203 -0.1168  0.0511
 1020YOPC   GL214390   6.756   1.754   5.469  0.2806  0.0314 -0.2084
 1020YOPC   C1A14391   6.353   1.525   5.844  0.0094  0.0538 -0.2290
 1020YOPC   D2A14392   6.356   1.307   6.254 -0.1208 -0.1042  0.0090
 1020YOPC   C3A14393   6.552   1.294   6.581 -0.2554 -0.0924  0.2813
 1020YOPC   C4A14394   6.573   1.138   7.001  0.2916  0.0934  0.1032
 1020YOPC   C1B14395   6.328   2.019   5.668  0.1158  0.1110  0.2164
 1020YOPC   C2B14396   6.365   2.327   5.973  0.4365 -0.2329 -0.1733
 1020YOPC   D3B14397   6.760   2.615   6.076 -0.0594 -0.0225  0.3238
 1020YOPC   C4B14398   7.096   2.942   6.110 -0.0613 -0.0798 -0.0228
 1021YOPC   NC314399   4.656   5.099   5.433  0.2714 -0.2164  0.0964
 1021YOPC   PO414400   4.173   5.082   5.624 -0.0151 -0.0050 -0.2790
 1021YOPC   GL114401   3.950   5.332   5.791 -0.0403 -0.1992  0.3689
 1021YOPC   GL214402   4.132   5.634   5.770  0.0959 -0.1423 -0.0603
 1021YOPC   C1A14403   3.553   5.208   6.047 -0.0025  0.2870 -0.1981
 1021YOPC   D2A14404   3.221   5.214   6.260 -0.1298 -0.1978 -0.1617
 1021YOPC   C3A14405   3.063   5.366   6.739  0.4267  0.0487  0.4122
 1021YOPC   C4A14406   2.980   5.732   6.930 -0.0308 -0.0708  0.1193
 1021YOPC   C1B14407   3.997   5.652   6.153  0.0328  0.3010 -0.0957
 1021YOPC   C2B14408   3.920   5.749   6.605  0.2534  0.0752 -0.0860
 1021YOPC   D3B14409   3.902   5.536   7.007 -0.0600 -0.2720  0.0229
 1021YOPC   C4B14410   3.860   5.676   7.385  0.0080 -0.1095  0.0940
 1022YOPC   NC314411   0.828   8.552   4.389  0.0705 -0.0085 -0.1505
 1022YOPC   PO414412   0.519   8.658   4.602 -0.0643 -0.1042 -0.1243
 1022YOPC   GL114413   0.850   8.566   4.907 -0.0994 -0.5610 -0.2546
 1022YOPC   GL214414   0.738   8.292   5.013 -0.0239 -0.1227  0.1288
 1022YOPC   C1A14415   1.100   8.517   5.300  0.1388 -0.1226  0.2189
 1022YOPC   D2A14416   0.893   8.323   5.625 -0.3477 -0.0658  0.0019
 1022YOPC   C3A14417   1.069   8.301   5.957 -0.3435 -0.0655 -0.1322
 1022YOPC   C4A14418   1.395   8.511   6.288  0.3295 -0.1420 -0.0134
 1022YOPC   C1B14419   0.410   8.489   5.379 -0.1977  0.0872 -0.0281
 1022YOPC   C2B14420  -0.056   8.537   5.327 -0.1023 -0.0798  0.0334
 1022YOPC   D3B14421  -0.368   8.743   5.547 -0.1115 -0.0004  0.0738
 1022YOPC   C4B14422  -0.475   8.867   6.003 -0.3146 -0.2527 -0.0802
 1023YOPC   NC314423  17.943   4.088   5.359  0.0529  0.0761  0.1342
 1023YOPC   PO414424  18.361   4.006   5.274 -0.0205  0.0399 -0.2395
 1023YOPC   GL114425  18.372   3.938   5.693 -0.2288  0.2778 -0.0962
 1023YOPC   GL214426  18.258   3.703   5.855  0.0452 -0.0973  0.2873
 1023YOPC   C1A14427  18.532   4.012   6.132  0.0399  0.1172  0.0834
 1023YOPC   D2A14428  18.526   3.920   6.554 -0.1072 -0.0788 -0.0770
 1023YOPC   C3A14429  18.913   4.009   6.694  0.0176 -0.2399  0.2257
 1023YOPC   C4A14430  19.169   4.018   6.997  0.0734  0.1076 -0.0608
 1023YOPC   C1B14431  18.094   3.800   6.413 -0.1695  0.1172  0.0444
 1023YOPC   C2B14432  17.924   3.822   6.843 -0.0570  0.2277  0.2975
 1023YOPC   D3B14433  17.897   3.523   7.154  0.4694  0.0557 -0.0296
 1023YOPC   C4B14434  17.740   3.218   7.420  0.0926 -0.2319 -0.1677
 1024YOPC   NC314435   3.160   3.375   5.362 -0.2562  0.0439 -0.0886
 1024YOPC   PO414436   3.010   3.846   5.505 -0.2540  0.0361 -0.0117
 1024YOPC   GL114437   3.010   3.648   5.929 -0.2583  0.1705 -0.1666
 1024YOPC   GL214438   3.033   3.353   5.966 -0.1106 -0.0379 -0.2754
 1024YOPC   C1A14439   3.165   3.629   6.358 -0.2934 -0.0843  0.2847
 1024YOPC   D2A14440   3.046   3.459   6.738  0.2268  0.0570  0.0614
 1024YOPC   C3A14441   2.751   3.133   6.747 -0.0510 -0.1053  0.0078
 1024YOPC   C4A14442   2.371   2.893   7.064  0.0093 -0.1376  0.0110
 1024YOPC   C1B14443   3.080   3.084   6.378  0.1393 -0.0876 -0.2907
 1024YOPC   C2B14444   3.397   3.093   6.709 -0.1533 -0.3324 -0.3334
 1024YOPC   D3B14445   3.828   3.232   6.814 -0.1895 -0.2655  0.1947
 1024YOPC   C4B14446   4.128   3.369   6.552  0.1482  0.1328 -0.0672
 1025YOPC   NC314447  17.138   0.248   5.145 -0.2530  0.0170 -0.5266
 1025YOPC   PO414448  17.001   0.612   5.352  0.0530  0.2325  0.2164
 1025YOPC   GL114449  17.283   0.595   5.556  0.0372 -0.0261 -0.1815
 1025YOPC   GL214450  17.541   0.341   5.681 -0.2183 -0.0870 -0.2693
 1025YOPC   C1A14451  17.673   0.885   5.760 -0.1348 -0.0102  0.1875
 1025YOPC   D2A14452  17.928   0.829   6.098  0.0826  0.0004 -0.1103
 1025YOPC   C3A14453  17.723   0.691   6.523 -0.2857 -0.1323 -0.0097
 1025YOPC   C4A14454  17.582   0.953   6.906 -0.1502 -0.0401  0.0520
 1025YOPC   C1B14455  17.504   0.520   6.117  0.2405  0.0654 -0.0984
 1025YOPC   C2B14456  17.180   0.755   6.375  0.3626 -0.0611  0.0355
 1025YOPC   D3B14457  17.208   0.636   6.751 -0.3514  0.0429 -0.1178
 1025YOPC   C4B14458  17.178   0.432   7.114 -0.0177 -0.0537 -0.0541
 1026YOPC   NC314459   4.891   4.334   5.506 -0.1210 -0.1112  0.4842
 1026YOPC   PO414460   5.356   4.454   5.474  0.3324  0.1735 -0.1648
 1026YOPC   GL114461   5.599   4.462   5.880  0.2819 -0.1507  0.3284
 1026YOPC   GL214462   5.885   4.425   5.883 -0.0572  0.0704  0.0635
 1026YOPC   C1A14463   5.660   4.596   6.291 -0.2631  0.0545  0.2579
 1026YOPC   D2A14464   5.495   4.589   6.677 -0.1091  0.2591  0.1282
 1026YOPC   C3A14465   5.563   4.882   6.993 -0.2415  0.1057  0.0445
 1026YOPC   C4A14466   5.882   5.221   7.137  0.0192  0.2983  0.2681
 1026YOPC   C1B14467   5.754   4.084   6.176  0.2204  0.0165  0.1402
 1026YOPC   C2B14468   5.937   3.782   6.555 -0.0148  0.0163  0.2526
 1026YOPC   D3B14469   5.852   3.818   6.986 -0.0414 -0.1549  0.0640
 1026YOPC   C4B14470   5.781   4.075   7.314  0.1774  0.0916  0.2899
 1027YOPC   NC314471  14.838   1.661   4.746  0.0684  0.1977 -0.0949
 1027YOPC   PO414472  14.523   1.697   5.107 -0.0821 -0.1461 -0.0121
 1027YOPC   GL114473  14.465   1.879   5.440 -0.0977 -0.0413  0.1097
 1027YOPC   GL214474  14.733   2.027   5.439 -0.0474 -0.3899  0.0059
 1027YOPC   C1A14475  14.256   2.055   5.808 -0.0727  0.0562  0.1592
 1027YOPC   D2A14476  14.339   2.351   6.098  0.0001 -0.0150  0.1684
 1027YOPC   C3A14477  14.165   2.521   6.374 -0.2497 -0.1597 -0.1616
 1027YOPC   C4A14478  14.084   2.648   6.851  0.3538 -0.2212  0.1134
 1027YOPC   C1B14479  14.795   2.285   5.762  0.1439  0.1746 -0.0010
 1027YOPC   C2B14480  14.756   2.165   6.286 -0.2438  0.0847 -0.0744
 1027YOPC   D3B14481  14.851   1.798   6.425  0.2163  0.1023 -0.0529
 1027YOPC   C4B14482  15.139   1.497   6.678 -0.1653 -0.0890 -0.3173
 1028YOPC   NC314483  12.935   6.796   5.307  0.1953 -0.0276 -0.0339
 1028YOPC   PO414484  12.792   7.228   5.583  0.0443 -0.0277  0.0401
 1028YOPC   GL114485  12.843   7.569   5.881  0.0931 -0.0499 -0.1217
 1028YOPC   GL214486  13.108   7.672   6.128  0.1536 -0.1963 -0.3150
 1028YOPC   C1A14487  12.650   7.969   6.037  0.3792 -0.2637  0.1870
 1028YOPC   D2A14488  12.485   8.305   6.272 -0.1540  0.1182  0.2914
 1028YOPC   C3A14489  12.554   8.213   6.650 -0.0905 -0.0508  0.1788
 1028YOPC   C4A14490  12.334   8.066   7.035  0.0089 -0.2368 -0.1680
 1028YOPC   C1B14491  13.358   7.395   6.336 -0.0663 -0.4124  0.0231
 1028YOPC   C2B14492  13.539   7.105   6.580  0.2714  0.0644 -0.0353
 1028YOPC   D3B14493  13.980   7.191   6.878 -0.2336 -0.2027  0.2640
 1028YOPC   C4B14494  14.346   7.354   7.104 -0.2422  0.3145 -0.0610
 1029YOPC   NC314495   8.888  16.659   5.543 -0.0929  0.2560  0.1379
 1029YOPC   PO414496   9.407  16.554   5.671  0.1606 -0.0387 -0.0038
 1029YOPC   GL114497   9.635  16.539   6.014 -0.0232  0.0826 -0.3717
 1029YOPC   GL214498   9.752  16.863   6.082 -0.5098 -0.4305 -0.1113
 1029YOPC   C1A14499   9.685  16.474   6.483 -0.0717 -0.0107  0.1416
 1029YOPC   D2A14500   9.440  16.596   6.819  0.1249 -0.0197 -0.2573
 1029YOPC   C3A14501   9.450  16.274   6.962  0.3846  0.0485  0.3047
 1029YOPC   C4A14502   9.710  15.903   6.864  0.2101  0.0223  0.0624
 1029YOPC   C1B14503   9.832  16.963   6.390  0.3829  0.1251  0.0506
 1029YOPC   C2B14504  10.033  16.790   6.756 -0.0594  0.1297 -0.1274
 1029YOPC   D3B14505   9.931  16.400   6.981 -0.0984 -0.0427 -0.0999
 1029YOPC   C4B14506   9.899  16.163   7.379 -0.5736  0.3824 -0.1855
 1030YOPC   NC314507  19.034   2.448   5.007  0.0836 -0.4058  0.0079
 1030YOPC   PO414508  19.287   2.238   5.151  0.2198 -0.0067 -0.0830
 1030YOPC   GL114509  19.498   2.035   5.538  0.1348  0.1254 -0.2672
 1030YOPC   GL214510  19.648   1.769   5.614  0.0377  0.0820  0.2113
 1030YOPC   C1A14511  19.389   2.230   5.948 -0.3352 -0.0322 -0.0453
 1030YOPC   D2A14512  19.499   2.289   6.335 -0.3563 -0.2220 -0.0730
 1030YOPC   C3A14513  19.424   2.365   6.789  0.0242 -0.1799  0.0231
 1030YOPC   C4A14514  19.292   2.400   7.153  0.0343 -0.3905 -0.2211
 1030YOPC   C1B14515  19.385   1.676   6.023  0.0420  0.2659  0.0818
 1030YOPC   C2B14516  19.597   1.484   6.387 -0.1238 -0.0062 -0.2927
 1030YOPC   D3B14517  19.495   1.498   6.851 -0.0570  0.2011  0.0375
 1030YOPC   C4B14518  19.313   1.220   7.131  0.4708 -0.6367 -0.0172
 1031YOPC   NC314519   0.309   6.214   5.168  0.0430 -0.3159 -0.2795
 1031YOPC   PO414520   0.026   5.788   4.989 -0.1311 -0.0292  0.2750
 1031YOPC   GL114521   0.149   5.817   5.424 -0.1383 -0.1843 -0.2773
 1031YOPC   GL214522  -0.067   5.845   5.629 -0.0153  0.0212  0.2151
 1031YOPC   C1A14523   0.426   5.708   5.710 -0.0400  0.0032 -0.1474
 1031YOPC   D2A14524   0.710   5.837   6.036  0.1570  0.1735  0.0751
 1031YOPC   C3A14525   0.629   5.523   6.343 -0.2191  0.0799 -0.1917
 1031YOPC   C4A14526   0.602   5.094   6.442 -0.1922 -0.1145 -0.0480
 1031YOPC   C1B14527  -0.307   5.843   5.988  0.1680  0.1122  0.1954
 1031YOPC   C2B14528  -0.704   5.763   6.221 -0.3950  0.2009  0.1527
 1031YOPC   D3B14529  -0.680   5.837   6.624  0.0075 -0.0430  0.2850
 1031YOPC   C4B14530  -0.389   5.929   6.968 -0.0507  0.2475  0.0905
 1032YOPC   NC314531   2.058   3.634   5.220 -0.0946  0.2980 -0.5096
 1032YOPC   PO414532   1.664   3.627   5.171 -0.1125 -0.0148 -0.0448
 1032YOPC   GL114533   1.756   3.626   5.655  0.1459  0.1564 -0.0872
 1032YOPC   GL214534   2.018   3.691   5.776 -0.2434 -0.0170 -0.4321
 1032YOPC   C1A14535   1.725   3.576   6.139  0.2344  0.1977  0.1771
 1032YOPC   D2A14536   1.339   3.325   6.332  0.1921  0.1079  0.0625
 1032YOPC   C3A14537   1.315   3.315   6.803 -0.0164 -0.1705  0.2288
 1032YOPC   C4A14538   1.274   3.246   7.230  0.0623 -0.3968 -0.0474
 1032YOPC   C1B14539   2.059   3.973   6.068 -0.1889  0.0228 -0.0903
 1032YOPC   C2B14540   1.920   3.989   6.421 -0.0960  0.0413 -0.0490
 1032YOPC   D3B14541   2.013   4.330   6.684 -0.0978  0.4333 -0.0218
 1032YOPC   C4B14542   2.193   4.678   6.562 -0.2318  0.1183 -0.2381
 1033YOPC   NC314543   5.812  17.610   5.505  0.1965  0.0248 -0.2929
 1033YOPC   PO414544   5.866  17.183   5.753  0.0648 -0.3569  0.2755
 1033YOPC   GL114545   5.878  17.108   6.215  0.1829 -0.1364  0.0147
 1033YOPC   GL214546   5.577  17.070   6.229  0.0299  0.1788  0.2179
 1033YOPC   C1A14547   5.925  17.054   6.648  0.0317 -0.0020  0.0274
 1033YOPC   D2A14548   6.058  17.133   7.055 -0.2143  0.1439  0.2524
 1033YOPC   C3A14549   5.959  16.847   7.305 -0.1667  0.2232 -0.0460
 1033YOPC   C4A14550   5.520  16.718   7.347  0.0332 -0.0777 -0.2651
 1033YOPC   C1B14551   5.602  16.630   6.370  0.4327 -0.2179 -0.0110
 1033YOPC   C2B14552   5.621  16.607   6.762  0.0403 -0.0508  0.0106
 1033YOPC   D3B14553   5.709  16.169   7.095 -0.0905  0.2037  0.2168
 1033YOPC   C4B14554   5.861  15.826   7.266 -0.1080 -0.2916 -0.0205
 1034YOPC   NC314555   4.599  10.936   5.110  0.0122 -0.1045  0.2710
 1034YOPC   PO414556   4.516  10.482   5.116 -0.1176  0.5777  0.0797
 1034YOPC   GL114557   4.350  10.681   5.500 -0.1239 -0.0745  0.0177
 1034YOPC   GL214558   4.024  10.675   5.505 -0.1430  0.0631 -0.0706
 1034YOPC   C1A14559   4.351  10.760   5.890 -0.0323 -0.0746 -0.3414
 1034YOPC   D2A14560   4.388  10.783   6.400  0.0523 -0.0235 -0.1059
 1034YOPC   C3A14561   4.693  10.726   6.753 -0.0120  0.1125 -0.0812
 1034YOPC   C4A14562   5.014  10.705   6.983 -0.2324  0.0817 -0.0071
 1034YOPC   C1B14563   3.999  10.241   5.621  0.1014  0.1731 -0.1512
 1034YOPC   C2B14564   3.803   9.813   5.736  0.1805  0.0348 -0.0589
 1034YOPC   D3B14565   4.171   9.571   5.862 -0.2873 -0.0834 -0.0244
 1034YOPC   C4B14566   4.491   9.640   6.150 -0.2589 -0.0406 -0.1091
 1035YOPC   NC314567  13.540  15.799   4.908  0.0050  0.1272 -0.1724
 1035YOPC   PO414568  13.718  15.362   4.963 -0.0115  0.0399  0.1146
 1035YOPC   GL114569  13.818  15.591   5.355  0.0662  0.1707 -0.1010
 1035YOPC   GL214570  13.809  15.902   5.430 -0.0314 -0.0624 -0.3970
 1035YOPC   C1A14571  13.907  15.457   5.717 -0.4545  0.1490 -0.3530
 1035YOPC   D2A14572  14.056  15.320   6.096  0.0426  0.2614  0.1414
 1035YOPC   C3A14573  13.767  15.135   6.442  0.1366  0.0655 -0.3032
 1035YOPC   C4A14574  13.732  14.920   6.836 -0.0439  0.1137  0.0340
 1035YOPC   C1B14575  13.448  15.815   5.606  0.1186 -0.1995 -0.2818
 1035YOPC   C2B14576  13.376  15.518   5.894 -0.1189 -0.0234  0.3361
 1035YOPC   D3B14577  13.585  15.057   5.930 -0.0592  0.3268 -0.0539
 1035YOPC   C4B14578  13.957  14.815   5.905  0.3180 -0.0359  0.1010
 1036YOPC   NC314579   5.753  10.369   5.271  0.1481  0.0208  0.2025
 1036YOPC   PO414580   5.720   9.962   5.507 -0.0932  0.0479 -0.2250
 1036YOPC   GL114581   5.425   9.865   5.744  0.1087 -0.3277 -0.1695
 1036YOPC   GL214582   5.564   9.753   6.002  0.0269 -0.0063 -0.0826
 1036YOPC   C1A14583   5.082  10.153   5.931  0.1931 -0.0108  0.3846
 1036YOPC   D2A14584   4.732  10.122   6.157  0.1498 -0.0511  0.0600
 1036YOPC   C3A14585   4.879   9.869   6.550  0.0283 -0.1895 -0.2303
 1036YOPC   C4A14586   5.347   9.973   6.612 -0.0315  0.1546  0.0532
 1036YOPC   C1B14587   5.032   9.626   6.147  0.2382 -0.0045  0.1558
 1036YOPC   C2B14588   4.869   9.348   6.427  0.0065  0.0529 -0.2164
 1036YOPC   D3B14589   4.797   9.104   6.829 -0.1750 -0.1360  0.0553
 1036YOPC   C4B14590   4.533   9.211   7.131  0.1740 -0.0994 -0.1471
 1037YOPC   NC314591  18.279   3.484   5.260  0.1683  0.0121  0.4439
 1037YOPC   PO414592  17.913   3.641   5.532 -0.0054  0.0042  0.1073
 1037YOPC   GL114593  17.945   3.294   5.863  0.1348 -0.1319  0.3262
 1037YOPC   GL214594  18.188   3.009   5.864 -0.0509 -0.2468 -0.0776
 1037YOPC   C1A14595  17.932   3.353   6.233  0.1565 -0.1221  0.2460
 1037YOPC   D2A14596  17.666   3.155   6.583 -0.0139 -0.1556  0.0763
 1037YOPC   C3A14597  17.167   3.257   6.512 -0.3420 -0.0348  0.0817
 1037YOPC   C4A14598  16.745   3.180   6.608 -0.3104 -0.0477 -0.3783
 1037YOPC   C1B14599  18.545   2.945   6.067 -0.0918 -0.2973  0.1534
 1037YOPC   C2B14600  18.705   3.040   6.418  0.0006  0.5555 -0.2071
 1037YOPC   D3B14601  18.894   3.501   6.548 -0.0545  0.0036  0.3325
 1037YOPC   C4B14602  19.015   3.805   6.226 -0.1319 -0.0242  0.0769
 1038YOPC   NC314603  18.266  18.214   5.170 -0.0725 -0.1533  0.0577
 1038YOPC   PO414604  18.077  17.930   5.390  0.2786 -0.0518  0.2100
 1038YOPC   GL114605  17.942  18.332   5.535  0.2286 -0.0568  0.1352
 1038YOPC   GL214606  17.962  18.198   5.867 -0.1520 -0.1619  0.1564
 1038YOPC   C1A14607  17.741  18.698   5.815  0.0599  0.1652 -0.0221
 1038YOPC   D2A14608  17.648  19.096   6.093  0.1108  0.2541  0.3370
 1038YOPC   C3A14609  17.777  19.275   6.459  0.1357 -0.2740 -0.2854
 1038YOPC   C4A14610  18.050  19.382   6.791 -0.2168  0.0464  0.0464
 1038YOPC   C1B14611  17.952  18.212   6.334  0.1646 -0.6746  0.1016
 1038YOPC   C2B14612  17.865  18.368   6.800 -0.2817 -0.2256 -0.3268
 1038YOPC   D3B14613  18.096  18.012   7.062  0.6648  0.1766 -0.1156
 1038YOPC   C4B14614  18.368  18.148   7.448  0.0703 -0.4212 -0.2423
 1039YOPC   NC314615   5.030  18.807   5.056  0.0325 -0.1774  0.0720
 1039YOPC   PO414616   5.435  18.879   5.114 -0.0989  0.5064  0.1997
 1039YOPC   GL114617   5.646  19.209   5.299 -0.3468 -0.0313  0.0137
 1039YOPC   GL214618   5.527  19.190   5.584  0.2930 -0.0905 -0.1676
 1039YOPC   C1A14619   5.959  19.432   5.565 -0.0480  0.4138 -0.1244
 1039YOPC   D2A14620   6.207  19.886   5.552  0.2731 -0.2829  0.2971
 1039YOPC   C3A14621   6.359  20.137   5.864  0.0458 -0.2700 -0.1228
 1039YOPC   C4A14622   6.745  20.343   5.951  0.0977 -0.0919 -0.2671
 1039YOPC   C1B14623   5.643  19.123   6.071  0.1497 -0.2682 -0.0728
 1039YOPC   C2B14624   5.680  19.227   6.475 -0.0705  0.0774  0.0321
 1039YOPC   D3B14625   5.917  19.408   6.656  0.0338  0.0459  0.0882
 1039YOPC   C4B14626   5.835  19.469   7.029  0.1617  0.1508 -0.1090
 1040YOPC   NC314627   4.346  11.874   5.088 -0.4376 -0.0782 -0.0089
 1040YOPC   PO414628   4.412  11.458   5.283  0.0686 -0.4180 -0.0814
 1040YOPC   GL114629   4.180  11.690   5.558 -0.2079  0.0221  0.0935
 1040YOPC   GL214630   3.917  11.577   5.620 -0.0417 -0.3236  0.1502
 1040YOPC   C1A14631   4.169  11.706   6.030  0.2178 -0.2172  0.0533
 1040YOPC   D2A14632   4.299  11.616   6.407  0.0291 -0.1732 -0.2545
 1040YOPC   C3A14633   3.988  11.561   6.811  0.3583  0.0242  0.1851
 1040YOPC   C4A14634   3.578  11.407   7.038 -0.2595  0.1381 -0.2505
 1040YOPC   C1B14635   3.651  11.653   5.929 -0.4636 -0.0779  0.0253
 1040YOPC   C2B14636   3.298  11.510   6.161 -0.0803  0.3895 -0.0725
 1040YOPC   D3B14637   3.373  11.307   6.601 -0.2942 -0.4026  0.0632
 1040YOPC   C4B14638   3.241  10.931   6.815  0.3947 -0.0279 -0.1353
 1041YOPC   NC314639   7.535  17.726   5.389  0.0763  0.1130  0.3460
 1041YOPC   PO414640   7.248  17.606   5.704  0.0758  0.2677 -0.1008
 1041YOPC   GL114641   7.383  17.950   5.888  0.0722  0.0883 -0.1808
 1041YOPC   GL214642   7.117  17.966   6.121  0.1362  0.0847  0.0632
 1041YOPC   C1A14643   7.461  18.343   6.075  0.0079  0.2007 -0.2174
 1041YOPC   D2A14644   7.505  18.487   6.505 -0.4059 -0.1365 -0.2982
 1041YOPC   C3A14645   7.764  18.414   6.895  0.2199  0.5164  0.1773
 1041YOPC   C4A14646   7.838  18.383   7.318  0.0167  0.1765 -0.0335
 1041YOPC   C1B14647   7.050  18.352   6.388 -0.0097  0.2148 -0.2548
 1041YOPC   C2B14648   6.811  18.370   6.805 -0.0817 -0.1511 -0.0859
 1041YOPC   D3B14649   6.479  18.374   7.134 -0.1041  0.4126  0.0031
 1041YOPC   C4B14650   6.475  18.765   7.354  0.1446 -0.1518  0.5344
 1042YOPC   NC314651  13.934  14.945   5.075  0.0672  0.0526 -0.0251
 1042YOPC   PO414652  14.269  15.301   5.003  0.1553 -0.0301  0.0036
 1042YOPC   GL114653  14.548  15.278   5.278  0.0717 -0.1886  0.2593
 1042YOPC   GL214654  14.717  15.465   5.471  0.2174 -0.0258 -0.2818
 1042YOPC   C1A14655  14.445  15.233   5.786  0.3822  0.0433  0.1540
 1042YOPC   D2A14656  14.532  15.158   6.288 -0.0988  0.2600  0.4244
 1042YOPC   C3A14657  14.632  14.770   6.482  0.2053  0.1995 -0.1341
 1042YOPC   C4A14658  14.672  14.671   6.915 -0.1524 -0.0148 -0.3375
 1042YOPC   C1B14659  15.029  15.204   5.706  0.1656 -0.0075  0.3054
 1042YOPC   C2B14660  15.264  15.156   6.073 -0.1528 -0.3109 -0.0807
 1042YOPC   D3B14661  15.047  15.195   6.412  0.0686  0.0982 -0.0786
 1042YOPC   C4B14662  14.834  15.220   6.765 -0.1247  0.0472 -0.0567
 1043YOPC   NC314663   9.953  12.518   5.691 -0.0297 -0.1796  0.4176
 1043YOPC   PO414664   9.793  13.002   5.591  0.1661 -0.1323 -0.2493
 1043YOPC   GL114665   9.912  13.071   5.922 -0.2876  0.0319 -0.2123
 1043YOPC   GL214666   9.900  13.504   5.960  0.2006  0.0251 -0.1260
 1043YOPC   C1A14667  10.225  13.202   6.254  0.1059  0.1975  0.0972
 1043YOPC   D2A14668  10.205  13.455   6.539  0.2042 -0.1368 -0.1636
 1043YOPC   C3A14669  10.363  13.517   6.989 -0.4932 -0.1632 -0.1080
 1043YOPC   C4A14670  10.391  13.269   7.367 -0.0347 -0.1647  0.3237
 1043YOPC   C1B14671   9.780  13.714   6.324 -0.1031  0.3034  0.2563
 1043YOPC   C2B14672   9.839  13.722   6.742 -0.2442 -0.0721 -0.1730
 1043YOPC   D3B14673   9.658  14.095   6.948  0.1411 -0.1247 -0.1109
 1043YOPC   C4B14674   9.310  14.360   7.012 -0.2341 -0.0053 -0.0593
 1044YOPC   NC314675  12.812  13.734   4.807 -0.0817 -0.1071  0.1712
 1044YOPC   PO414676  13.312  13.684   4.889  0.1569 -0.1484  0.2619
 1044YOPC   GL114677  13.398  13.706   5.342 -0.0669 -0.4154  0.0619
 1044YOPC   GL214678  13.712  13.917   5.520 -0.1029  0.1182  0.1677
 1044YOPC   C1A14679  13.194  13.567   5.704  0.1442  0.2009 -0.1633
 1044YOPC   D2A14680  13.071  13.135   5.946  0.2035  0.2310  0.2029
 1044YOPC   C3A14681  12.734  13.002   6.056  0.0681  0.1574 -0.0251
 1044YOPC   C4A14682  12.663  12.987   6.472 -0.0436 -0.2200  0.3441
 1044YOPC   C1B14683  13.526  13.915   5.870 -0.0262  0.0483 -0.1149
 1044YOPC   C2B14684  13.511  13.573   6.214 -0.0084 -0.0116  0.2147
 1044YOPC   D3B14685  13.355  13.649   6.650 -0.3110 -0.0550  0.1570
 1044YOPC   C4B14686  13.586  13.649   6.963 -0.1054 -0.0021 -0.3241
 1045YOPC   NC314687   9.208  15.916   5.871 -0.2738 -0.0636 -0.0169
 1045YOPC   PO414688   8.843  16.234   5.756 -0.2000  0.1395 -0.0215
 1045YOPC   GL114689   9.099  16.490   6.014  0.3294  0.0566 -0.4586
 1045YOPC   GL214690   9.190  16.896   5.971 -0.2137 -0.1155  0.0862
 1045YOPC   C1A14691   9.279  16.735   6.414  0.1231  0.0427 -0.0756
 1045YOPC   D2A14692   9.338  17.021   6.652 -0.0189  0.1598 -0.1656
 1045YOPC   C3A14693   9.133  17.166   6.953 -0.1742  0.3409 -0.1111
 1045YOPC   C4A14694   9.235  17.396   7.287  0.3878  0.0042 -0.1248
 1045YOPC   C1B14695   9.251  17.221   6.129 -0.0736 -0.2829  0.1131
 1045YOPC   C2B14696   9.042  17.444   6.525 -0.2318  0.0371 -0.1787
 1045YOPC   D3B14697   8.964  17.872   6.458 -0.1576  0.2729  0.3799
 1045YOPC   C4B14698   8.658  18.086   6.157 -0.2315 -0.4143  0.0944
 1046YOPC   NC314699  16.311  14.540   4.862  0.3070 -0.0097 -0.0316
 1046YOPC   PO414700  16.402  14.288   5.200  0.1789 -0.0081  0.2780
 1046YOPC   GL114701  16.409  14.464   5.608  0.1717  0.0079  0.1844
 1046YOPC   GL214702  16.614  14.623   5.722 -0.1418  0.3391 -0.1219
 1046YOPC   C1A14703  16.251  14.419   6.063 -0.3714  0.1230  0.2000
 1046YOPC   D2A14704  16.399  14.564   6.431 -0.0703 -0.3281  0.0469
 1046YOPC   C3A14705  16.194  14.442   6.761 -0.1115  0.2867 -0.0753
 1046YOPC   C4A14706  15.849  14.604   7.227 -0.0049 -0.0511  0.1842
 1046YOPC   C1B14707  16.770  14.836   6.176 -0.0975  0.1787  0.0324
 1046YOPC   C2B14708  16.775  14.896   6.570  0.0213 -0.0050  0.0161
 1046YOPC   D3B14709  16.712  14.611   6.849 -0.1241 -0.3241  0.3126
 1046YOPC   C4B14710  16.548  14.295   7.100  0.4118  0.1961  0.0187
 1047YOPC   NC314711   6.489  15.516   5.879 -0.0500  0.0854  0.2851
 1047YOPC   PO414712   6.182  15.765   5.974  0.0961 -0.2288  0.0757
 1047YOPC   GL114713   6.420  15.837   6.357 -0.0224 -0.0381 -0.0030
 1047YOPC   GL214714   6.400  16.189   6.412 -0.0884  0.0344  0.2147
 1047YOPC   C1A14715   6.937  15.955   6.334 -0.4516  0.0060  0.0202
 1047YOPC   D2A14716   6.927  16.468   6.429  0.3103 -0.0168  0.1745
 1047YOPC   C3A14717   7.248  16.633   6.412 -0.2746 -0.1047  0.0495
 1047YOPC   C4A14718   7.469  16.986   6.516  0.0614  0.2308 -0.2219
 1047YOPC   C1B14719   6.514  16.292   6.789  0.0309 -0.0033  0.0128
 1047YOPC   C2B14720   6.835  16.602   6.956  0.0235 -0.3026 -0.0931
 1047YOPC   D3B14721   7.237  16.710   6.886 -0.0081  0.3043  0.2839
 1047YOPC   C4B14722   7.543  16.747   7.225  0.1502 -0.3619 -0.0284
 1048YOPC   NC314723  11.972   3.701   5.372 -0.1676 -0.1511 -0.2055
 1048YOPC   PO414724  12.365   3.546   5.583 -0.1603  0.0671  0.1801
 1048YOPC   GL114725  12.684   3.694   5.989 -0.3590 -0.1029  0.1346
 1048YOPC   GL214726  12.503   3.518   6.159  0.0117 -0.0936  0.1312
 1048YOPC   C1A14727  13.015   3.976   6.220  0.0483  0.1732  0.0311
 1048YOPC   D2A14728  13.315   4.122   6.535 -0.1356  0.0364 -0.2020
 1048YOPC   C3A14729  13.196   4.263   6.954  0.1603  0.2223  0.1054
 1048YOPC   C4A14730  12.807   4.362   7.110 -0.2003  0.3640 -0.3375
 1048YOPC   C1B14731  12.802   3.301   6.480  0.2259 -0.2571 -0.0846
 1048YOPC   C2B14732  12.800   3.191   6.897 -0.1251 -0.2394  0.2183
 1048YOPC   D3B14733  12.803   3.323   7.305 -0.2300  0.1283  0.0567
 1048YOPC   C4B14734  12.979   3.126   7.638 -0.2083 -0.0290  0.0296
 1049YOPC   NC314735   6.932  11.251   5.626  0.0745  0.0756 -0.1692
 1049YOPC   PO414736   6.453  11.057   5.626 -0.1896 -0.0297  0.0199
 1049YOPC   GL114737   6.629  11.021   6.028 -0.0224 -0.1032  0.0652
 1049YOPC   GL214738   6.822  11.223   6.158  0.0937 -0.0554 -0.2799
 1049YOPC   C1A14739   6.386  11.184   6.337 -0.0466  0.0399  0.1078
 1049YOPC   D2A14740   6.251  11.652   6.522 -0.0199 -0.0578  0.1793
 1049YOPC   C3A14741   6.461  11.983   6.464  0.1098  0.5359 -0.0210
 1049YOPC   C4A14742   6.891  12.033   6.398  0.0724  0.5378 -0.0959
 1049YOPC   C1B14743   6.823  11.536   6.531  0.1051 -0.3085  0.1373
 1049YOPC   C2B14744   6.716  11.788   6.858 -0.2183 -0.1046  0.2908
 1049YOPC   D3B14745   6.533  11.594   7.115  0.0073 -0.1978  0.1720
 1049YOPC   C4B14746   6.116  11.570   7.158 -0.2612  0.2416 -0.1921
 1050YOPC   NC314747   8.555  13.029   5.922  0.0290 -0.0071 -0.0941
 1050YOPC   PO414748   8.428  12.642   5.850  0.1386 -0.0850  0.0652
 1050YOPC   GL114749   8.498  12.598   6.217  0.1354  0.0906 -0.1212
 1050YOPC   GL214750   8.766  12.618   6.251  0.2962 -0.2500  0.0044
 1050YOPC   C1A14751   8.377  12.392   6.643 -0.4866  0.1804 -0.1081
 1050YOPC   D2A14752   8.536  11.916   6.810  0.0729 -0.0796  0.1993
 1050YOPC   C3A14753   8.616  11.838   7.270  0.3715  0.3612 -0.1552
 1050YOPC   C4A14754   8.576  11.855   7.762  0.0438  0.0013 -0.1274
 1050YOPC   C1B14755   8.871  12.756   6.580  0.0267  0.1092 -0.1944
 1050YOPC   C2B14756   9.021  12.764   7.051  0.2540  0.0402 -0.1518
 1050YOPC   D3B14757   9.247  12.968   7.273 -0.1181  0.1652 -0.1447
 1050YOPC   C4B14758   9.590  13.274   7.398  0.1057 -0.2781  0.3471
 1051YOPC   NC314759  15.812   9.265   5.329  0.4042 -0.4192  0.1382
 1051YOPC   PO414760  16.042   8.962   5.344  0.1347  0.0273 -0.4133
 1051YOPC   GL114761  15.897   8.694   5.614 -0.2123 -0.0587 -0.0608
 1051YOPC   GL214762  16.198   8.518   5.895  0.1426 -0.2096 -0.1160
 1051YOPC   C1A14763  15.811   8.765   6.006 -0.0578  0.2713 -0.0547
 1051YOPC   D2A14764  15.553   8.935   6.147  0.1482  0.3117  0.0710
 1051YOPC   C3A14765  15.571   9.112   6.546 -0.3253 -0.2544  0.0302
 1051YOPC   C4A14766  15.819   9.162   6.815 -0.0700  0.1813 -0.2699
 1051YOPC   C1B14767  16.187   8.583   6.288  0.0395  0.0703 -0.0935
 1051YOPC   C2B14768  16.070   8.844   6.578  0.1662  0.1686 -0.2334
 1051YOPC   D3B14769  16.030   8.550   6.835 -0.0414  0.0817 -0.1252
 1051YOPC   C4B14770  16.103   8.427   7.289 -0.4356 -0.1092 -0.0825
 1052YOPC   NC314771   7.000   8.034   5.846 -0.1850 -0.2826 -0.1181
 1052YOPC   PO414772   6.725   8.234   5.743 -0.2846 -0.3396  0.0834
 1052YOPC   GL114773   6.672   8.217   6.175  0.2715 -0.0121  0.0936
 1052YOPC   GL214774   6.769   8.462   6.205  0.0060  0.0461 -0.3539
 1052YOPC   C1A14775   6.502   8.445   6.575 -0.1567  0.0613 -0.0886
 1052YOPC   D2A14776   6.363   8.440   6.978 -0.1753  0.0283  0.1081
 1052YOPC   C3A14777   6.336   8.277   7.300 -0.0754  0.2101  0.0604
 1052YOPC   C4A14778   5.963   8.171   7.594 -0.1029  0.3826  0.1604
 1052YOPC   C1B14779   7.140   8.311   6.474  0.0797  0.0704 -0.0472
 1052YOPC   C2B14780   7.401   8.404   6.817  0.0138  0.0566  0.0633
 1052YOPC   D3B14781   7.378   8.838   6.812 -0.0215  0.0769  0.2524
 1052YOPC   C4B14782   7.210   9.282   6.680  0.2497 -0.2319 -0.0823
 1053YOPC   NC314783  17.909  12.438   4.986  0.1449  0.2963  0.2288
 1053YOPC   PO414784  17.747  12.697   5.333  0.3483 -0.1386 -0.3014
 1053YOPC   GL114785  17.780  12.375   5.644 -0.2448  0.0596  0.1002
 1053YOPC   GL214786  17.788  12.626   5.944  0.0601  0.0511  0.1831
 1053YOPC   C1A14787  17.607  12.131   6.092 -0.0618 -0.1491 -0.2684
 1053YOPC   D2A14788  17.722  11.880   6.405 -0.2522  0.0319 -0.0451
 1053YOPC   C3A14789  18.009  11.952   6.778  0.3377 -0.0395  0.0380
 1053YOPC   C4A14790  18.099  11.789   7.151  0.2774  0.2785 -0.0738
 1053YOPC   C1B14791  17.756  13.029   6.108  0.0073 -0.1217 -0.0368
 1053YOPC   C2B14792  17.444  13.288   5.983 -0.1021  0.0478 -0.1673
 1053YOPC   D3B14793  17.317  13.566   6.159 -0.2951 -0.0077  0.1114
 1053YOPC   C4B14794  17.188  13.616   6.645  0.1960 -0.0044  0.1443
 1054YOPC   NC314795  15.853  11.345   5.290 -0.0432 -0.2742  0.0386
 1054YOPC   PO414796  15.399  11.416   5.015  0.2142  0.1092  0.1251
 1054YOPC   GL114797  15.416  11.521   5.447 -0.0493 -0.2110  0.0680
 1054YOPC   GL214798  15.226  11.868   5.473 -0.2309 -0.1237  0.2340
 1054YOPC   C1A14799  15.413  11.570   5.920 -0.1330  0.1747 -0.1424
 1054YOPC   D2A14800  15.757  11.566   6.119  0.2049 -0.3675 -0.1358
 1054YOPC   C3A14801  15.771  11.674   6.488 -0.1317  0.0983  0.0121
 1054YOPC   C4A14802  15.503  11.792   6.805 -0.4104  0.1511  0.1725
 1054YOPC   C1B14803  14.950  11.665   5.637 -0.0826 -0.0738 -0.0057
 1054YOPC   C2B14804  14.730  11.272   5.820  0.1013 -0.0272  0.3302
 1054YOPC   D3B14805  14.664  11.388   6.249  0.1625 -0.0083 -0.0555
 1054YOPC   C4B14806  14.584  11.826   6.505 -0.0997  0.0707 -0.0759
 1055YOPC   NC314807   6.963   5.645   5.765  0.0673 -0.1224 -0.0311
 1055YOPC   PO414808   7.300   5.957   5.722  0.0102 -0.0543  0.2562
 1055YOPC   GL114809   6.836   6.072   5.981 -0.0387  0.1344  0.3179
 1055YOPC   GL214810   6.780   6.193   6.348  0.0924  0.0123  0.1741
 1055YOPC   C1A14811   6.394   6.175   5.991 -0.0908 -0.0781  0.0440
 1055YOPC   D2A14812   6.051   6.017   6.038 -0.0131 -0.0492 -0.0278
 1055YOPC   C3A14813   5.700   6.109   6.375 -0.0423 -0.0634  0.0109
 1055YOPC   C4A14814   5.499   6.076   6.846  0.2239  0.1221 -0.1668
 1055YOPC   C1B14815   6.908   5.970   6.696  0.2077  0.0053  0.0181
 1055YOPC   C2B14816   7.178   6.067   6.968  0.3482 -0.0244 -0.0334
 1055YOPC   D3B14817   7.123   6.332   7.286 -0.2407 -0.0954 -0.1343
 1055YOPC   C4B14818   6.883   6.464   7.672 -0.1831 -0.2879  0.0296
 1056YOPC   NC314819   1.333  10.063   4.857 -0.0522  0.0013  0.0165
 1056YOPC   PO414820   1.057   9.699   4.923  0.2637  0.0003 -0.3796
 1056YOPC   GL114821   1.161   9.873   5.313  0.1558  0.0771  0.0166
 1056YOPC   GL214822   1.437  10.051   5.359  0.1026  0.3875 -0.1761
 1056YOPC   C1A14823   1.290   9.919   5.861  0.1488  0.2881  0.0275
 1056YOPC   D2A14824   1.602  10.097   6.182 -0.0434 -0.2979 -0.0414
 1056YOPC   C3A14825   1.533   9.973   6.680  0.3187 -0.1610  0.1557
 1056YOPC   C4A14826   1.707  10.012   7.063 -0.0860 -0.1290  0.1095
 1056YOPC   C1B14827   1.767   9.846   5.630 -0.0725  0.3031 -0.3329
 1056YOPC   C2B14828   1.723   9.620   6.033 -0.1359 -0.1146 -0.1759
 1056YOPC   D3B14829   2.091   9.547   6.228  0.2792 -0.3220 -0.0084
 1056YOPC   C4B14830   2.470   9.516   6.269  0.0993  0.0602  0.0682
 1057YOPC   NC314831   5.975  13.797   5.577 -0.0317 -0.1746  0.1810
 1057YOPC   PO414832   6.349  13.617   5.714 -0.1393 -0.1588 -0.0393
 1057YOPC   GL114833   6.397  13.654   6.047  0.0482 -0.3229 -0.0584
 1057YOPC   GL214834   6.452  13.943   6.170 -0.0728 -0.0647  0.4108
 1057YOPC   C1A14835   6.455  13.501   6.478 -0.1163  0.0462  0.0318
 1057YOPC   D2A14836   6.372  13.646   6.865 -0.3558  0.1672 -0.1400
 1057YOPC   C3A14837   6.644  13.535   7.218  0.0811  0.0615 -0.0161
 1057YOPC   C4A14838   6.922  13.318   7.323 -0.2087 -0.1041  0.2056
 1057YOPC   C1B14839   6.306  14.085   6.608  0.2719  0.0558 -0.1144
 1057YOPC   C2B14840   6.125  14.054   6.980 -0.1790  0.1753 -0.0188
 1057YOPC   D3B14841   6.546  14.059   7.147  0.1669  0.3237  0.1293
 1057YOPC   C4B14842   6.898  14.156   6.934 -0.0120  0.0465 -0.1291
 1058YOPC   NC314843  17.330   2.066   5.539 -0.0822 -0.2028 -0.1874
 1058YOPC   PO414844  17.208   2.491   5.437  0.1574  0.1180 -0.0168
 1058YOPC   GL114845  17.083   2.461   5.860  0.1483 -0.0516 -0.1138
 1058YOPC   GL214846  17.388   2.430   6.085  0.2583  0.1226  0.1971
 1058YOPC   C1A14847  16.881   2.443   6.205 -0.4879 -0.2029 -0.1154
 1058YOPC   D2A14848  16.854   2.555   6.595  0.0290 -0.1139  0.0606
 1058YOPC   C3A14849  17.123   2.825   6.789 -0.1801  0.0190  0.1684
 1058YOPC   C4A14850  17.339   3.062   7.051 -0.1083 -0.1611  0.1408
 1058YOPC   C1B14851  17.455   2.109   6.461  0.0997 -0.0502  0.1759
 1058YOPC   C2B14852  17.364   1.952   6.826 -0.0375 -0.2612 -0.3599
 1058YOPC   D3B14853  17.082   2.275   6.982  0.2834 -0.4318  0.1410
 1058YOPC   C4B14854  17.060   2.690   7.312 -0.0730 -0.1272  0.0225
 1059YOPC   NC314855   3.487   2.186   5.250  0.0776 -0.1400 -0.0371
 1059YOPC   PO414856   3.019   1.994   5.145 -0.0203 -0.0591 -0.1554
 1059YOPC   GL114857   2.871   2.263   5.473 -0.1421 -0.3475  0.0203
 1059YOPC   GL214858   3.186   2.502   5.567 -0.0754  0.2928  0.2060
 1059YOPC   C1A14859   2.676   2.432   5.830 -0.1197 -0.1349 -0.3279
 1059YOPC   D2A14860   2.785   2.198   6.138  0.0135 -0.2797 -0.0209
 1059YOPC   C3A14861   2.725   2.193   6.614  0.1626 -0.2920 -0.2068
 1059YOPC   C4A14862   2.378   2.400   6.958  0.1550  0.0948 -0.1256
 1059YOPC   C1B14863   3.259   2.344   5.918 -0.1469  0.4115 -0.0161
 1059YOPC   C2B14864   3.209   2.136   6.355  0.1086  0.1113  0.3968
 1059YOPC   D3B14865   3.250   1.932   6.747  0.1388 -0.1563 -0.1554
 1059YOPC   C4B14866   3.350   2.006   7.171  0.0066 -0.0223  0.1721
 1060YOPC   NC314867   8.177   4.101   5.462 -0.0996 -0.0635 -0.0159
 1060YOPC   PO414868   8.399   4.325   5.712  0.2170 -0.0742  0.0109
 1060YOPC   GL114869   8.357   4.551   6.087 -0.3395  0.3040 -0.1303
 1060YOPC   GL214870   8.162   4.916   6.167 -0.0737  0.1474 -0.0608
 1060YOPC   C1A14871   8.291   4.603   6.584  0.1705 -0.2002  0.2751
 1060YOPC   D2A14872   8.440   4.871   6.923 -0.1818 -0.1026 -0.2011
 1060YOPC   C3A14873   8.662   5.334   6.822 -0.2072  0.0976  0.4000
 1060YOPC   C4A14874   8.615   5.765   6.523  0.1743  0.1483  0.0984
 1060YOPC   C1B14875   7.886   4.854   6.416  0.0004  0.0526 -0.4180
 1060YOPC   C2B14876   7.890   4.767   6.880  0.3458 -0.1807  0.1975
 1060YOPC   D3B14877   7.460   4.382   6.919  0.0490  0.0403 -0.2916
 1060YOPC   C4B14878   7.083   4.482   7.208 -0.1001  0.2454  0.1315
 1061YOPC   NC314879  17.182  10.548   5.067 -0.0878 -0.2317 -0.1233
 1061YOPC   PO414880  16.834  10.770   5.105 -0.2982 -0.0483  0.0899
 1061YOPC   GL114881  16.930  10.795   5.480 -0.2594 -0.2214  0.0158
 1061YOPC   GL214882  17.238  10.886   5.386 -0.3941 -0.2345  0.2501
 1061YOPC   C1A14883  17.074  11.046   5.834  0.0615 -0.2131 -0.1966
 1061YOPC   D2A14884  16.911  11.368   6.120  0.1363  0.0264 -0.1370
 1061YOPC   C3A14885  16.653  11.270   6.410 -0.0292  0.0011 -0.3261
 1061YOPC   C4A14886  16.445  11.465   6.698  0.0692  0.0498  0.0519
 1061YOPC   C1B14887  17.529  10.827   5.624  0.1373  0.0950 -0.2105
 1061YOPC   C2B14888  17.842  10.866   5.967  0.1650  0.0514 -0.0625
 1061YOPC   D3B14889  17.713  10.648   6.292 -0.0314  0.0958 -0.1731
 1061YOPC   C4B14890  17.819  10.280   6.549  0.0769 -0.1177  0.0226
 1062YOPC   NC314891  14.359   0.915   5.420  0.2387  0.3015  0.1073
 1062YOPC   PO414892  14.556   1.057   5.778 -0.0993 -0.0794 -0.0492
 1062YOPC   GL114893  14.423   0.862   6.017  0.3741 -0.0223 -0.1637
 1062YOPC   GL214894  14.167   0.671   5.847  0.3285 -0.2084  0.0090
 1062YOPC   C1A14895  14.354   0.922   6.546 -0.2926  0.1776  0.0764
 1062YOPC   D2A14896  14.427   0.903   6.975 -0.5388  0.1800 -0.3055
 1062YOPC   C3A14897  14.324   1.155   7.337  0.1416 -0.1460 -0.1078
 1062YOPC   C4A14898  14.347   1.255   7.737 -0.2368  0.3069 -0.2770
 1062YOPC   C1B14899  14.156   0.527   6.348 -0.0860 -0.2327  0.3082
 1062YOPC   C2B14900  14.079   0.351   6.789  0.2135 -0.2551  0.1882
 1062YOPC   D3B14901  14.294  -0.107   6.893  0.0371  0.0847 -0.1894
 1062YOPC   C4B14902  14.746  -0.293   7.066  0.0923 -0.0590  0.0525
 1063YOPC   NC314903  15.440   2.847   4.433 -0.0162 -0.0930 -0.1484
 1063YOPC   PO414904  15.604   2.940   4.836  0.1029  0.1791  0.0984
 1063YOPC   GL114905  15.520   2.838   5.294  0.0691  0.2596 -0.1266
 1063YOPC   GL214906  15.684   2.956   5.375  0.1909  0.2133  0.2244
 1063YOPC   C1A14907  15.522   2.627   5.741 -0.3446  0.2303 -0.1677
 1063YOPC   D2A14908  15.820   2.707   6.138  0.2918 -0.1240  0.0839
 1063YOPC   C3A14909  15.698   2.515   6.490 -0.1305 -0.2057  0.0512
 1063YOPC   C4A14910  15.462   2.670   6.782  0.0613  0.0306 -0.0074
 1063YOPC   C1B14911  15.922   3.049   5.771  0.2420  0.2891  0.0356
 1063YOPC   C2B14912  16.013   3.148   6.208  0.1012 -0.2778  0.0556
 1063YOPC   D3B14913  15.821   3.023   6.603 -0.1889  0.1970  0.2013
 1063YOPC   C4B14914  15.752   3.001   6.939 -0.1820  0.3641  0.1430
 1064YOPC   NC314915   2.256   8.653   4.596  0.0094  0.1594  0.2691
 1064YOPC   PO414916   2.266   8.425   5.033 -0.0563 -0.2049  0.1598
 1064YOPC   GL114917   2.259   8.207   5.391  0.1188  0.0457  0.1040
 1064YOPC   GL214918   2.138   8.413   5.536 -0.1593 -0.0855  0.4009
 1064YOPC   C1A14919   2.703   8.118   5.660  0.1495  0.2517  0.2394
 1064YOPC   D2A14920   2.817   7.937   5.931 -0.0375 -0.0250  0.0442
 1064YOPC   C3A14921   2.539   7.880   6.194  0.2434 -0.0295 -0.0518
 1064YOPC   C4A14922   2.220   8.020   6.419 -0.0366 -0.1103  0.1516
 1064YOPC   C1B14923   1.760   8.103   5.536  0.0786  0.0459 -0.0453
 1064YOPC   C2B14924   1.383   7.901   5.736 -0.0280 -0.0410  0.3277
 1064YOPC   D3B14925   1.491   7.931   6.126  0.2726  0.1601 -0.0544
 1064YOPC   C4B14926   1.705   8.094   6.454 -0.1507 -0.0832 -0.0372
 1065YOPC   NC314927   8.841  18.744   4.826  0.0342  0.0212 -0.3565
 1065YOPC   PO414928   8.916  18.862   5.278  0.0677 -0.4074  0.0910
 1065YOPC   GL114929   9.104  18.865   5.616  0.3513  0.2472 -0.0883
 1065YOPC   GL214930   9.335  19.003   5.629 -0.2535 -0.0497 -0.1605
 1065YOPC   C1A14931   8.849  18.885   5.971 -0.0184  0.2348  0.1814
 1065YOPC   D2A14932   8.825  18.866   6.380  0.1893  0.2632 -0.0680
 1065YOPC   C3A14933   9.049  19.072   6.694 -0.3831  0.3599  0.2121
 1065YOPC   C4A14934   8.996  19.055   7.111  0.0034  0.0079  0.1669
 1065YOPC   C1B14935   9.492  18.680   5.900 -0.2229  0.2334  0.0230
 1065YOPC   C2B14936   9.575  18.239   6.156  0.0365 -0.0859  0.2717
 1065YOPC   D3B14937   9.982  18.112   6.114  0.2735 -0.0662 -0.0738
 1065YOPC   C4B14938  10.347  17.930   6.359  0.1616 -0.2313 -0.2159
 1066YOPC   NC314939   3.461   9.779   5.378  0.2163 -0.2321  0.2396
 1066YOPC   PO414940   3.259   9.383   5.434 -0.0192  0.2002 -0.1458
 1066YOPC   GL114941   3.132   9.504   5.739 -0.0463  0.1017 -0.3767
 1066YOPC   GL214942   3.256   9.839   5.900 -0.1672  0.0784  0.1021
 1066YOPC   C1A14943   3.074   9.467   6.216  0.0600  0.1318  0.1733
 1066YOPC   D2A14944   3.275   9.419   6.570 -0.2904  0.0200 -0.2341
 1066YOPC   C3A14945   3.254   9.083   6.900 -0.2178  0.0232 -0.1014
 1066YOPC   C4A14946   3.392   9.040   7.407 -0.1773 -0.0305 -0.1719
 1066YOPC   C1B14947   3.569   9.696   6.222  0.3335 -0.0741  0.4387
 1066YOPC   C2B14948   3.742   9.665   6.584 -0.2027  0.2384 -0.3212
 1066YOPC   D3B14949   3.548   9.857   6.877 -0.1295  0.1130 -0.0805
 1066YOPC   C4B14950   3.536  10.104   7.276  0.0834 -0.0619 -0.1177
 1067YOPC   NC314951   9.346   8.663   6.042 -0.2501  0.0961 -0.0876
 1067YOPC   PO414952   9.437   8.391   5.762 -0.1853 -0.0699 -0.1185
 1067YOPC   GL114953   9.566   8.187   6.141  0.0861 -0.2401  0.2213
 1067YOPC   GL214954   9.741   8.391   6.191  0.0515 -0.3384 -0.2965
 1067YOPC   C1A14955   9.569   8.054   6.576  0.1340  0.4859 -0.2162
 1067YOPC   D2A14956   9.648   8.004   7.022  0.0962 -0.2474  0.0217
 1067YOPC   C3A14957   9.472   8.138   7.365  0.1980 -0.0481  0.3201
 1067YOPC   C4A14958   9.237   8.342   7.732  0.0967 -0.1547  0.0866
 1067YOPC   C1B14959   9.497   8.542   6.610 -0.3529 -0.2752 -0.4982
 1067YOPC   C2B14960   9.500   8.517   7.014  0.1753 -0.2423 -0.0113
 1067YOPC   D3B14961   9.758   8.569   7.347  0.3964 -0.2211 -0.1168
 1067YOPC   C4B14962  10.181   8.397   7.498  0.1449 -0.0494  0.0951
 1068YOPC   NC314963   5.674   8.888   5.664  0.2992 -0.1185 -0.0338
 1068YOPC   PO414964   5.811   9.305   5.841  0.2311 -0.2917  0.3681
 1068YOPC   GL114965   5.566   9.212   6.151 -0.2348  0.0947 -0.6935
 1068YOPC   GL214966   5.251   9.352   5.855 -0.1473  0.0604 -0.0598
 1068YOPC   C1A14967   5.347   9.390   6.554 -0.1695  0.0443  0.2110
 1068YOPC   D2A14968   5.275   9.520   6.933  0.0085  0.0461  0.2810
 1068YOPC   C3A14969   4.871   9.570   6.973 -0.0953 -0.0686  0.1068
 1068YOPC   C4A14970   4.449   9.743   7.084 -0.2630 -0.0422 -0.0261
 1068YOPC   C1B14971   4.845   9.297   5.824  0.0589 -0.1589 -0.0347
 1068YOPC   C2B14972   4.607   9.119   6.084  0.0018  0.0523  0.0528
 1068YOPC   D3B14973   4.504   8.968   6.453  0.0337  0.0859 -0.0549
 1068YOPC   C4B14974   4.138   8.935   6.685  0.1960 -0.0249 -0.0955
 1069YOPC   NC314975  18.998  18.871   5.232 -0.1414  0.2310  0.0670
 1069YOPC   PO414976  18.687  19.277   5.175  0.0787 -0.1083  0.0386
 1069YOPC   GL114977  19.009  19.174   5.596  0.0008  0.0416  0.0470
 1069YOPC   GL214978  19.423  19.374   5.677 -0.0155 -0.0086 -0.2224
 1069YOPC   C1A14979  19.155  19.107   5.994  0.3296  0.0138 -0.0633
 1069YOPC   D2A14980  19.084  18.934   6.404  0.3245  0.1851  0.2031
 1069YOPC   C3A14981  18.772  18.960   6.761 -0.1897  0.2884  0.0861
 1069YOPC   C4A14982  18.421  19.011   7.011 -0.0348 -0.3591  0.0671
 1069YOPC   C1B14983  19.117  19.585   6.004  0.2508  0.0248  0.1928
 1069YOPC   C2B14984  18.843  19.368   6.294 -0.2581 -0.1522  0.0585
 1069YOPC   D3B14985  19.057  19.415   6.756 -0.0237  0.1467  0.1659
 1069YOPC   C4B14986  18.925  19.329   7.132 -0.2252 -0.1708 -0.2623
 1070YOPC   NC314987  11.670  14.306   4.751 -0.0757 -0.4607 -0.1582
 1070YOPC   PO414988  11.637  14.342   5.221 -0.3755  0.3271 -0.0090
 1070YOPC   GL114989  11.628  14.345   5.726  0.2115 -0.2838  0.1236
 1070YOPC   GL214990  11.690  14.693   5.910  0.0447 -0.0060 -0.0193
 1070YOPC   C1A14991  11.484  14.309   6.057  0.1712  0.1258  0.0053
 1070YOPC   D2A14992  11.556  14.435   6.474  0.0736 -0.0656 -0.0557
 1070YOPC   C3A14993  11.407  14.112   6.731 -0.1202 -0.1105  0.2110
 1070YOPC   C4A14994  11.588  14.071   7.067  0.1723  0.1990 -0.0948
 1070YOPC   C1B14995  11.871  14.880   6.244 -0.2548  0.0630  0.0011
 1070YOPC   C2B14996  11.970  14.987   6.731  0.2179  0.0062 -0.2035
 1070YOPC   D3B14997  12.139  14.788   6.960 -0.1307  0.3846 -0.0343
 1070YOPC   C4B14998  12.075  14.822   7.325 -0.2132 -0.3289 -0.1425
 1071YOPC   NC314999  15.592   7.670   5.140  0.2309  0.1105 -0.2261
 1071YOPC   PO415000  15.234   7.787   5.190 -0.0434  0.4531  0.1574
 1071YOPC   GL115001  15.203   7.591   5.550  0.0612 -0.2704  0.2608
 1071YOPC   GL215002  14.811   7.690   5.557  0.1805  0.1904 -0.1368
 1071YOPC   C1A15003  15.084   7.276   5.870 -0.2174  0.0193  0.3235
 1071YOPC   D2A15004  14.916   7.242   6.136 -0.0965 -0.0825  0.1310
 1071YOPC   C3A15005  15.207   7.136   6.467  0.1798  0.3970 -0.0754
 1071YOPC   C4A15006  15.719   7.126   6.413 -0.0591 -0.1677  0.2545
 1071YOPC   C1B15007  14.509   7.760   5.901 -0.0539 -0.1231 -0.0389
 1071YOPC   C2B15008  14.583   7.636   6.287 -0.0500 -0.1559 -0.0783
 1071YOPC   D3B15009  14.676   7.288   6.637  0.1281 -0.2610 -0.0171
 1071YOPC   C4B15010  14.941   7.310   6.937 -0.2219  0.0466  0.1561
 1072YOPC   NC315011  14.125   1.364   5.126 -0.0663 -0.1030  0.0536
 1072YOPC   PO415012  13.834   0.983   5.370 -0.0308 -0.1967 -0.3900
 1072YOPC   GL115013  13.673   1.136   5.757  0.0038  0.1922  0.0793
 1072YOPC   GL215014  14.005   1.162   5.956  0.0735 -0.0671  0.1175
 1072YOPC   C1A15015  13.547   1.286   6.208  0.0230 -0.3211 -0.1324
 1072YOPC   D2A15016  13.596   1.272   6.677 -0.0706 -0.1309 -0.2575
 1072YOPC   C3A15017  13.219   1.450   6.820 -0.4173 -0.2121  0.1525
 1072YOPC   C4A15018  13.089   1.830   7.084 -0.1146  0.2455 -0.1951
 1072YOPC   C1B15019  14.023   1.176   6.318  0.3153 -0.0182 -0.0245
 1072YOPC   C2B15020  14.292   1.435   6.547  0.3358 -0.2592  0.3097
 1072YOPC   D3B15021  14.593   1.425   6.852 -0.3852 -0.3254 -0.0850
 1072YOPC   C4B15022  14.790   1.523   7.286 -0.1678 -0.3980 -0.4489
 1073YOPC   NC315023   8.437   6.691   5.550 -0.0492  0.2395 -0.1624
 1073YOPC   PO415024   8.028   6.593   5.592 -0.0349  0.1903  0.3644
 1073YOPC   GL115025   8.147   6.611   6.028 -0.2186  0.1795 -0.2332
 1073YOPC   GL215026   7.896   6.636   6.068  0.0197 -0.3643  0.2203
 1073YOPC   C1A15027   8.130   6.827   6.463  0.1995 -0.0516 -0.1130
 1073YOPC   D2A15028   8.350   6.911   6.881  0.2026 -0.1192 -0.1329
 1073YOPC   C3A15029   8.449   7.357   6.978  0.2103  0.0036 -0.0274
 1073YOPC   C4A15030   8.643   7.697   7.024 -0.1377  0.0954  0.0680
 1073YOPC   C1B15031   7.681   6.572   6.393 -0.0020 -0.0517 -0.2030
 1073YOPC   C2B15032   7.433   6.445   6.678  0.1003  0.0564  0.1479
 1073YOPC   D3B15033   7.073   6.469   6.718  0.0859 -0.0140  0.1762
 1073YOPC   C4B15034   6.705   6.533   7.051 -0.0006 -0.0524 -0.1656
 1074YOPC   NC315035   7.056  10.539   5.364  0.2442  0.2389 -0.3714
 1074YOPC   PO415036   6.828  10.726   5.692  0.2118  0.0301  0.2648
 1074YOPC   GL115037   6.911  10.579   6.102 -0.0081  0.0678 -0.3342
 1074YOPC   GL215038   6.582  10.449   6.262 -0.0758 -0.2246  0.2025
 1074YOPC   C1A15039   7.067  10.549   6.465  0.0813 -0.0224 -0.3173
 1074YOPC   D2A15040   7.086  10.570   6.848 -0.0876 -0.0803  0.0361
 1074YOPC   C3A15041   7.224  10.910   7.110 -0.0014  0.0141 -0.2126
 1074YOPC   C4A15042   7.353  10.777   7.523  0.1689  0.6283 -0.1539
 1074YOPC   C1B15043   6.452  10.389   6.624 -0.2976  0.0614  0.3400
 1074YOPC   C2B15044   6.219  10.484   7.063  0.2280  0.2608 -0.1516
 1074YOPC   D3B15045   5.822  10.461   7.059  0.0086  0.2584  0.2946
 1074YOPC   C4B15046   5.463  10.502   6.797  0.0657 -0.1428  0.0280
 1075YOPC   NC315047  13.571  12.365   5.025 -0.0639 -0.2511  0.1196
 1075YOPC   PO415048  13.650  12.792   5.208  0.0434 -0.2086 -0.0513
 1075YOPC   GL115049  13.646  12.845   5.597  0.1872 -0.3129  0.0639
 1075YOPC   GL215050  13.952  12.889   5.656 -0.3007 -0.1307 -0.2473
 1075YOPC   C1A15051  13.608  13.073   5.982  0.0017 -0.3164  0.1528
 1075YOPC   D2A15052  13.762  13.178   6.291 -0.0487 -0.3007  0.0092
 1075YOPC   C3A15053  13.910  13.541   6.626  0.0854 -0.0505 -0.3128
 1075YOPC   C4A15054  14.271  13.809   6.588  0.3449 -0.3305 -0.1498
 1075YOPC   C1B15055  14.108  12.840   6.076  0.0641 -0.0368 -0.5948
 1075YOPC   C2B15056  14.212  12.828   6.545  0.2271 -0.4074  0.1471
 1075YOPC   D3B15057  14.159  13.145   6.808 -0.1535 -0.0826 -0.2881
 1075YOPC   C4B15058  14.326  13.491   7.027  0.0664  0.1784 -0.1437
 1076YOPC   NC315059  11.726  18.897   4.872 -0.2902  0.0206 -0.3635
 1076YOPC   PO415060  11.846  18.568   5.171 -0.2343 -0.1198 -0.0298
 1076YOPC   GL115061  11.900  18.726   5.516  0.3064  0.0242  0.1792
 1076YOPC   GL215062  11.587  18.777   5.783 -0.1218  0.1659  0.4222
 1076YOPC   C1A15063  12.240  18.764   5.932  0.0829 -0.1167  0.0215
 1076YOPC   D2A15064  12.651  18.945   6.117  0.0871 -0.0542  0.0209
 1076YOPC   C3A15065  12.747  19.365   6.369  0.2692 -0.1002 -0.0658
 1076YOPC   C4A15066  12.861  19.767   6.577 -0.2784  0.4090 -0.0498
 1076YOPC   C1B15067  11.691  18.735   6.131 -0.2364  0.1751 -0.0966
 1076YOPC   C2B15068  12.023  18.717   6.503 -0.0296  0.0424 -0.0375
 1076YOPC   D3B15069  11.728  18.840   6.858 -0.1202  0.4210 -0.0643
 1076YOPC   C4B15070  11.390  18.967   7.183 -0.0027  0.0136  0.2991
 1077YOPC   NC315071   7.825   5.214   5.230 -0.2089  0.3622  0.0321
 1077YOPC   PO415072   7.884   4.796   5.350  0.1721 -0.0251 -0.0424
 1077YOPC   GL115073   7.655   5.052   5.696  0.1656  0.1542 -0.4529
 1077YOPC   GL215074   7.820   5.223   5.897 -0.2270  0.2546 -0.2518
 1077YOPC   C1A15075   7.472   4.887   6.104  0.0119 -0.1507 -0.0152
 1077YOPC   D2A15076   7.419   4.651   6.441  0.2904 -0.0360 -0.0143
 1077YOPC   C3A15077   7.048   4.466   6.622 -0.3421  0.1081  0.0798
 1077YOPC   C4A15078   6.668   4.308   6.899 -0.1048 -0.1911 -0.1035
 1077YOPC   C1B15079   7.431   5.390   6.004  0.2199 -0.0068 -0.0828
 1077YOPC   C2B15080   7.194   5.684   6.219  0.0728  0.1092  0.0191
 1077YOPC   D3B15081   7.013   5.429   6.535 -0.1188 -0.3299  0.0729
 1077YOPC   C4B15082   6.908   4.996   6.471  0.1795 -0.0187  0.0487
 1078YOPC   NC315083   0.892  10.957   4.899  0.2976  0.0252 -0.1991
 1078YOPC   PO415084   0.699  10.665   5.023 -0.1220 -0.0491  0.1309
 1078YOPC   GL115085   0.781  10.726   5.514  0.2022 -0.3111  0.1869
 1078YOPC   GL215086   0.721  10.746   5.828  0.1041 -0.0081  0.0168
 1078YOPC   C1A15087   1.218  10.838   5.808  0.1668  0.1143 -0.1157
 1078YOPC   D2A15088   1.483  10.698   6.096 -0.2147  0.0151 -0.2346
 1078YOPC   C3A15089   1.562  10.520   6.502 -0.1551  0.2289 -0.1447
 1078YOPC   C4A15090   1.189  10.368   6.730  0.0084 -0.1323  0.2301
 1078YOPC   C1B15091   0.602  10.721   6.348  0.0953 -0.1321  0.2470
 1078YOPC   C2B15092   0.772  10.923   6.732  0.1760 -0.3221 -0.1729
 1078YOPC   D3B15093   0.568  11.325   6.895 -0.1616 -0.3470  0.5760
 1078YOPC   C4B15094   0.647  11.764   6.976 -0.0213 -0.3067  0.3102
 1079YOPC   NC315095   7.423   7.761   5.753 -0.3242 -0.0360  0.2556
 1079YOPC   PO415096   7.104   7.557   5.706 -0.3251 -0.2620  0.0244
 1079YOPC   GL115097   6.842   7.559   6.065  0.0041  0.2086 -0.0338
 1079YOPC   GL215098   6.657   7.400   6.077  0.2038 -0.2725 -0.0802
 1079YOPC   C1A15099   6.939   7.778   6.466 -0.1008 -0.3629 -0.0909
 1079YOPC   D2A15100   6.791   8.074   6.693 -0.1796  0.2231  0.1871
 1079YOPC   C3A15101   6.788   8.092   7.103  0.0532 -0.4253  0.0989
 1079YOPC   C4A15102   6.649   8.005   7.520  0.3003  0.0175 -0.0943
 1079YOPC   C1B15103   6.472   7.390   6.530 -0.1067  0.0117 -0.1466
 1079YOPC   C2B15104   6.559   7.068   6.724  0.2428 -0.0697 -0.3513
 1079YOPC   D3B15105   6.543   7.074   7.114 -0.0063  0.0024 -0.0866
 1079YOPC   C4B15106   6.503   6.749   7.497 -0.0002 -0.3366 -0.3632
 1080YOPC   NC315107  13.136   2.269   4.720 -0.0558 -0.2283 -0.2376
 1080YOPC   PO415108  13.123   2.089   5.163 -0.2085 -0.1624 -0.0645
 1080YOPC   GL115109  12.939   1.949   5.621 -0.1947 -0.2990 -0.0525
 1080YOPC   GL215110  12.811   1.576   5.757 -0.1383 -0.2064 -0.1018
 1080YOPC   C1A15111  12.949   1.891   6.157  0.0497  0.2133 -0.1691
 1080YOPC   D2A15112  13.088   1.905   6.549  0.2126  0.3669 -0.4274
 1080YOPC   C3A15113  13.438   2.194   6.868 -0.0193 -0.3848  0.1484
 1080YOPC   C4A15114  13.559   2.429   7.296  0.0333 -0.2789 -0.0865
 1080YOPC   C1B15115  12.955   1.355   6.091  0.2556  0.1917 -0.0143
 1080YOPC   C2B15116  13.029   1.170   6.461  0.3003  0.0610 -0.0214
 1080YOPC   D3B15117  13.332   0.857   6.523 -0.3781  0.2164 -0.4401
 1080YOPC   C4B15118  13.301   0.497   6.776 -0.4540  0.0599 -0.0485
 1081YOPC   NC315119   0.123   9.189   4.753 -0.0886 -0.2034 -0.2129
 1081YOPC   PO415120  -0.069   9.432   5.022 -0.2217 -0.0163  0.0632
 1081YOPC   GL115121   0.019   9.096   5.401  0.2014  0.0307  0.0290
 1081YOPC   GL215122   0.295   8.927   5.587 -0.1045 -0.0904 -0.0580
 1081YOPC   C1A15123  -0.008   9.230   5.882 -0.1629 -0.1549  0.2032
 1081YOPC   D2A15124   0.113   9.541   6.255 -0.1926  0.0341 -0.1759
 1081YOPC   C3A15125  -0.068   9.600   6.619  0.0422 -0.1032  0.2190
 1081YOPC   C4A15126  -0.048   9.731   7.070 -0.0785 -0.2405 -0.1973
 1081YOPC   C1B15127   0.101   8.686   5.870 -0.1324  0.0306 -0.2028
 1081YOPC   C2B15128   0.118   8.644   6.201  0.0053  0.0872  0.1419
 1081YOPC   D3B15129   0.131   9.048   6.485 -0.0157  0.4115 -0.0894
 1081YOPC   C4B15130  -0.211   9.199   6.859  0.1228  0.3088 -0.0221
 1082YOPC   NC315131   4.006   2.807   5.364  0.1447 -0.1502 -0.1720
 1082YOPC   PO415132   3.964   2.397   5.342 -0.3170  0.2875 -0.0970
 1082YOPC   GL115133   4.242   2.154   5.645 -0.1277  0.0792 -0.0493
 1082YOPC   GL215134   4.536   2.089   5.571 -0.3688 -0.1084 -0.1372
 1082YOPC   C1A15135   4.310   1.856   5.986 -0.2887  0.0587 -0.1293
 1082YOPC   D2A15136   4.533   1.462   6.173  0.1988 -0.2429  0.0243
 1082YOPC   C3A15137   4.646   1.236   5.900 -0.2063  0.2337 -0.4088
 1082YOPC   C4A15138   4.772   0.873   5.617 -0.0626  0.2951 -0.0249
 1082YOPC   C1B15139   4.772   1.807   5.847 -0.0475  0.2187  0.2058
 1082YOPC   C2B15140   5.006   1.698   6.164  0.0063  0.2231  0.0118
 1082YOPC   D3B15141   4.979   1.506   6.489  0.2210 -0.4056 -0.3616
 1082YOPC   C4B15142   5.058   1.216   6.770  0.0928 -0.2970 -0.0850
 1083YOPC   NC315143   6.945  14.631   5.356 -0.0791 -0.0092 -0.2573
 1083YOPC   PO415144   7.083  14.729   5.712  0.3516  0.0672 -0.2500
 1083YOPC   GL115145   7.165  14.578   6.100  0.1424 -0.1238  0.2685
 1083YOPC   GL215146   7.125  14.195   6.141  0.0238 -0.0964 -0.0023
 1083YOPC   C1A15147   7.263  14.864   6.452  0.1742 -0.1169  0.3506
 1083YOPC   D2A15148   7.243  15.165   6.760  0.1673  0.2666 -0.3434
 1083YOPC   C3A15149   7.579  15.285   6.994  0.1288  0.2503 -0.0022
 1083YOPC   C4A15150   8.082  15.259   6.838  0.3282  0.0499  0.0636
 1083YOPC   C1B15151   7.038  14.384   6.509  0.1687 -0.1921 -0.3048
 1083YOPC   C2B15152   7.010  14.683   6.837 -0.2170  0.0912  0.3008
 1083YOPC   D3B15153   6.762  14.606   7.303 -0.3568 -0.1249  0.0397
 1083YOPC   C4B15154   6.609  14.694   7.768  0.0188 -0.1770 -0.3651
 1084YOPC   NC315155   6.350  10.597   5.821 -0.1288  0.1728 -0.0234
 1084YOPC   PO415156   6.421  10.114   5.810  0.0162  0.1740  0.3775
 1084YOPC   GL115157   6.428   9.995   6.255 -0.0239  0.0148 -0.2635
 1084YOPC   GL215158   6.151   9.842   6.226 -0.1091 -0.1135  0.0034
 1084YOPC   C1A15159   6.520   9.890   6.656  0.2935  0.0125 -0.0485
 1084YOPC   D2A15160   6.683  10.153   7.025 -0.0258  0.1464  0.0645
 1084YOPC   C3A15161   6.570  10.086   7.373  0.1933 -0.2952  0.1515
 1084YOPC   C4A15162   6.307   9.790   7.553  0.1625 -0.1627  0.1863
 1084YOPC   C1B15163   6.065  10.080   6.661 -0.0714 -0.0029  0.0248
 1084YOPC   C2B15164   6.202   9.967   7.027  0.0514  0.3043  0.0714
 1084YOPC   D3B15165   6.022  10.044   7.241  0.1043  0.2934  0.2948
 1084YOPC   C4B15166   5.691  10.285   7.503  0.0457 -0.2492  0.1047
 1085YOPC   NC315167  18.831  11.450   5.131 -0.0916 -0.1307  0.0129
 1085YOPC   PO415168  18.988  11.092   5.331  0.2298  0.2156 -0.1148
 1085YOPC   GL115169  19.082  10.681   5.504  0.0267  0.4168  0.0403
 1085YOPC   GL215170  18.750  10.636   5.582  0.1821  0.1912 -0.1624
 1085YOPC   C1A15171  19.321  10.418   5.757  0.2419  0.1527 -0.1570
 1085YOPC   D2A15172  19.363  10.817   6.088  0.1577  0.0329  0.1050
 1085YOPC   C3A15173  19.000  10.937   6.079  0.2489  0.5118 -0.3491
 1085YOPC   C4A15174  18.650  10.905   6.364 -0.0558 -0.1981 -0.1371
 1085YOPC   C1B15175  18.572  11.017   5.764 -0.0777 -0.1699  0.2980
 1085YOPC   C2B15176  18.617  11.327   6.087  0.5326  0.5610  0.0354
 1085YOPC   D3B15177  18.797  11.279   6.597  0.0773 -0.2100 -0.0048
 1085YOPC   C4B15178  18.870  11.409   6.883 -0.2900 -0.0365 -0.1664
 1086YOPC   NC315179  19.087  16.457   5.130  0.0230 -0.0526  0.0011
 1086YOPC   PO415180  19.464  16.383   5.231 -0.0101  0.2570 -0.2528
 1086YOPC   GL115181  19.377  16.228   5.647 -0.1123  0.4372 -0.2563
 1086YOPC   GL215182  19.487  16.300   5.903 -0.3844  0.0033  0.2062
 1086YOPC   C1A15183  19.163  15.894   5.950 -0.1381 -0.0224  0.2060
 1086YOPC   D2A15184  18.967  15.748   6.437 -0.1594 -0.2046 -0.1606
 1086YOPC   C3A15185  18.706  15.736   6.672 -0.1019  0.3675 -0.1685
 1086YOPC   C4A15186  18.328  15.526   6.765  0.0122 -0.3759  0.0819
 1086YOPC   C1B15187  19.430  16.064   6.369  0.1302 -0.0154 -0.1844
 1086YOPC   C2B15188  19.519  16.000   6.902 -0.4260  0.0012  0.0677
 1086YOPC   D3B15189  19.423  16.157   7.265  0.0330 -0.4888 -0.0069
 1086YOPC   C4B15190  19.478  16.146   7.652  0.1741  0.0446  0.0519
 1087YOPC   NC315191   8.390   2.972   5.205  0.0326  0.1921  0.0514
 1087YOPC   PO415192   8.645   3.042   5.478 -0.0055 -0.0407  0.0065
 1087YOPC   GL115193   8.410   2.979   5.835 -0.0329 -0.2821  0.2180
 1087YOPC   GL215194   8.207   2.798   5.809  0.1523 -0.2619  0.4994
 1087YOPC   C1A15195   8.367   2.852   6.295 -0.1569  0.1950  0.1899
 1087YOPC   D2A15196   8.577   2.662   6.646  0.2101  0.0162  0.2358
 1087YOPC   C3A15197   8.477   2.921   7.052  0.2883  0.0094  0.3995
 1087YOPC   C4A15198   8.454   2.912   7.445 -0.0415  0.0077 -0.1769
 1087YOPC   C1B15199   8.065   2.444   5.952  0.3855 -0.0089  0.1439
 1087YOPC   C2B15200   8.040   2.298   6.329  0.0103 -0.0899  0.1309
 1087YOPC   D3B15201   7.573   2.225   6.476  0.2893  0.0281  0.1407
 1087YOPC   C4B15202   7.456   2.075   6.869 -0.0535  0.0373 -0.4869
 1088YOPC   NC315203   9.308  17.834   5.247  0.0585  0.1763 -0.1029
 1088YOPC   PO415204   9.457  18.179   5.143  0.1337  0.1880 -0.1087
 1088YOPC   GL115205   9.690  18.078   5.513 -0.1400 -0.0421  0.0164
 1088YOPC   GL215206   9.940  17.876   5.450  0.2074 -0.5079  0.1746
 1088YOPC   C1A15207   9.669  17.794   5.841 -0.1701  0.2913  0.0886
 1088YOPC   D2A15208   9.434  17.758   6.201 -0.1287 -0.3326 -0.3242
 1088YOPC   C3A15209   9.799  17.861   6.579  0.1735 -0.0111  0.0208
 1088YOPC   C4A15210  10.106  17.568   6.545  0.0301 -0.4863 -0.1359
 1088YOPC   C1B15211  10.155  18.155   5.605  0.1201 -0.3158 -0.1403
 1088YOPC   C2B15212  10.561  18.276   5.889 -0.0322 -0.3232 -0.3094
 1088YOPC   D3B15213  10.687  18.262   6.442  0.0558  0.3635 -0.0623
 1088YOPC   C4B15214  10.563  18.528   6.816 -0.2040 -0.0856 -0.0691
 1089YOPC   NC315215  10.676  16.899   5.183 -0.1991 -0.0696  0.3236
 1089YOPC   PO415216  10.278  16.838   5.475 -0.2112 -0.0549  0.2007
 1089YOPC   GL115217  10.287  16.961   5.914 -0.0977 -0.1244  0.2765
 1089YOPC   GL215218  10.212  16.679   6.155 -0.2524 -0.1237 -0.0185
 1089YOPC   C1A15219  10.305  17.121   6.403 -0.1099  0.0997  0.3284
 1089YOPC   D2A15220  10.649  17.235   6.713  0.1230 -0.2617 -0.2037
 1089YOPC   C3A15221  10.400  17.635   6.968  0.1630  0.3801  0.2757
 1089YOPC   C4A15222  10.035  17.941   7.087 -0.1450 -0.0212 -0.0042
 1089YOPC   C1B15223  10.412  16.555   6.451  0.0900 -0.1792  0.2290
 1089YOPC   C2B15224  10.542  16.685   6.786 -0.0717  0.0688 -0.1523
 1089YOPC   D3B15225  10.795  16.532   7.107 -0.4092  0.0893 -0.2770
 1089YOPC   C4B15226  10.897  16.330   7.399 -0.0497 -0.2652  0.1001
 1090YOPC   NC315227   4.981   7.616   5.599  0.1024 -0.1392 -0.4146
 1090YOPC   PO415228   5.220   7.886   5.764  0.3176  0.0001 -0.0356
 1090YOPC   GL115229   4.873   7.780   6.102  0.2142  0.1268 -0.0901
 1090YOPC   GL215230   4.931   7.501   6.082  0.2645 -0.1945  0.4854
 1090YOPC   C1A15231   4.953   7.599   6.539  0.1252 -0.0400  0.2166
 1090YOPC   D2A15232   4.865   7.224   6.902 -0.0176 -0.0917  0.0791
 1090YOPC   C3A15233   4.649   7.322   7.350  0.1589 -0.0997  0.2096
 1090YOPC   C4A15234   4.897   7.272   7.705 -0.0560 -0.1395 -0.0869
 1090YOPC   C1B15235   4.846   7.070   6.337 -0.0396 -0.4411  0.2646
 1090YOPC   C2B15236   4.612   6.882   6.702 -0.0424  0.1243  0.2096
 1090YOPC   D3B15237   4.876   6.796   7.142  0.0033 -0.1083 -0.1998
 1090YOPC   C4B15238   4.853   6.426   7.505  0.2266  0.2982  0.1219
 1091YOPC   NC315239   6.483  18.661   4.884  0.0732 -0.1749  0.0148
 1091YOPC   PO415240   6.410  18.748   5.428 -0.3526 -0.0197 -0.1801
 1091YOPC   GL115241   6.232  18.528   5.834 -0.1839 -0.1228  0.2154
 1091YOPC   GL215242   5.903  18.388   5.836  0.1519 -0.0538  0.3641
 1091YOPC   C1A15243   6.080  18.304   6.267  0.2768  0.0887 -0.1255
 1091YOPC   D2A15244   5.892  18.407   6.684  0.2885  0.2574  0.2089
 1091YOPC   C3A15245   5.827  18.760   6.738 -0.2149 -0.4979 -0.0077
 1091YOPC   C4A15246   5.684  19.034   6.929 -0.0212 -0.0697 -0.0254
 1091YOPC   C1B15247   5.949  18.758   6.216 -0.1949  0.2669  0.0946
 1091YOPC   C2B15248   6.243  19.125   6.275  0.0158 -0.2251 -0.0478
 1091YOPC   D3B15249   6.416  19.416   6.580 -0.0378 -0.1646 -0.0628
 1091YOPC   C4B15250   6.347  19.558   6.896 -0.0159  0.4159  0.0100
 1092YOPC   NC315251  18.965  12.242   5.088 -0.0072  0.0768 -0.0556
 1092YOPC   PO415252  19.195  12.599   5.061  0.0188 -0.2278 -0.1851
 1092YOPC   GL115253  19.236  12.505   5.564 -0.0469  0.0929 -0.0114
 1092YOPC   GL215254  19.435  12.778   5.752  0.2582  0.0774 -0.0717
 1092YOPC   C1A15255  19.185  12.320   6.003 -0.1890 -0.1540  0.2193
 1092YOPC   D2A15256  18.946  12.325   6.375 -0.1938 -0.3293 -0.1404
 1092YOPC   C3A15257  19.102  12.710   6.712  0.1406 -0.0427 -0.2297
 1092YOPC   C4A15258  19.195  13.023   6.982 -0.0349 -0.1619 -0.1174
 1092YOPC   C1B15259  19.410  13.262   5.864 -0.5604  0.2103 -0.2345
 1092YOPC   C2B15260  19.708  13.517   5.763 -0.0412  0.1228  0.1969
 1092YOPC   D3B15261  19.603  13.905   5.860 -0.1798  0.1355 -0.2524
 1092YOPC   C4B15262  19.435  13.956   6.226 -0.1889 -0.2256  0.0698
 1093YOPC   NC315263   8.505   7.404   5.661  0.1465  0.0261 -0.0576
 1093YOPC   PO415264   8.633   7.101   5.692  0.0169  0.0788  0.5021
 1093YOPC   GL115265   8.700   6.674   5.962 -0.2868 -0.1551  0.0224
 1093YOPC   GL215266   8.621   6.349   5.999 -0.0108  0.3470 -0.1602
 1093YOPC   C1A15267   8.939   6.639   6.298  0.3507  0.0789 -0.0077
 1093YOPC   D2A15268   8.868   6.639   6.705  0.5593  0.3050 -0.0402
 1093YOPC   C3A15269   9.107   6.513   7.138  0.0150 -0.3212  0.0024
 1093YOPC   C4A15270   8.919   6.470   7.523 -0.2458  0.2667 -0.0301
 1093YOPC   C1B15271   8.464   6.426   6.380 -0.1065 -0.2405 -0.1785
 1093YOPC   C2B15272   8.422   6.447   6.890 -0.0528 -0.1648  0.0478
 1093YOPC   D3B15273   8.093   6.555   7.036  0.3064  0.1656  0.0301
 1093YOPC   C4B15274   8.002   6.935   7.234 -0.2094  0.1845  0.0097
 1094YOPC   NC315275  17.417   6.025   5.342 -0.0911  0.1649  0.4032
 1094YOPC   PO415276  17.195   6.393   5.136 -0.2748  0.0213  0.2690
 1094YOPC   GL115277  17.242   6.522   5.463  0.1098 -0.0442  0.0873
 1094YOPC   GL215278  17.512   6.505   5.613 -0.0542  0.2050  0.0782
 1094YOPC   C1A15279  17.026   6.788   5.767 -0.0863  0.0624  0.3347
 1094YOPC   D2A15280  17.122   7.063   6.058  0.0134  0.0533  0.1349
 1094YOPC   C3A15281  16.999   7.087   6.458  0.3318 -0.1215  0.2006
 1094YOPC   C4A15282  17.361   7.141   6.822  0.1261  0.2398  0.2079
 1094YOPC   C1B15283  17.257   6.406   6.001  0.0085 -0.1290  0.2668
 1094YOPC   C2B15284  17.124   6.645   6.330 -0.0002  0.0715  0.3238
 1094YOPC   D3B15285  17.219   6.628   6.753  0.1823  0.2175 -0.1762
 1094YOPC   C4B15286  17.702   6.725   6.916 -0.0060 -0.2534  0.1395
 1095YOPC   NC315287   1.628  17.318   5.523  0.3242  0.1442 -0.2390
 1095YOPC   PO415288   1.344  17.139   5.839  0.0554  0.1320  0.2304
 1095YOPC   GL115289   1.048  16.954   6.051  0.2850  0.1047  0.0116
 1095YOPC   GL215290   1.136  16.672   6.108 -0.1070  0.0614 -0.0891
 1095YOPC   C1A15291   0.911  16.977   6.461 -0.2224 -0.1475  0.0079
 1095YOPC   D2A15292   1.002  17.213   6.910  0.0782 -0.0096  0.0849
 1095YOPC   C3A15293   1.363  17.532   6.936  0.1375  0.0041 -0.2023
 1095YOPC   C4A15294   1.393  17.791   6.589  0.2482 -0.0792  0.2402
 1095YOPC   C1B15295   1.163  16.537   6.495 -0.0015  0.0207  0.0833
 1095YOPC   C2B15296   1.051  16.733   6.917  0.1290  0.1115 -0.1954
 1095YOPC   D3B15297   1.116  16.536   7.256 -0.1392  0.0131 -0.0476
 1095YOPC   C4B15298   1.167  16.197   7.582  0.0233 -0.0850 -0.0432
 1096YOPC   NC315299   1.297  18.127   5.067  0.0743 -0.2375 -0.0624
 1096YOPC   PO415300   1.572  17.797   5.305  0.0274 -0.2577 -0.1039
 1096YOPC   GL115301   1.513  17.780   5.720  0.0984 -0.5370 -0.1576
 1096YOPC   GL215302   1.569  17.567   5.991  0.0122 -0.1182  0.0197
 1096YOPC   C1A15303   1.478  18.075   6.085 -0.1124 -0.2111 -0.1301
 1096YOPC   D2A15304   1.802  18.172   6.411 -0.0693 -0.0170  0.1559
 1096YOPC   C3A15305   2.115  17.905   6.620  0.0554 -0.1685 -0.3091
 1096YOPC   C4A15306   2.464  17.773   6.816  0.1873  0.0105 -0.1080
 1096YOPC   C1B15307   1.793  17.593   6.373 -0.0798 -0.0292 -0.2527
 1096YOPC   C2B15308   2.008  17.379   6.572  0.2586  0.1847  0.0906
 1096YOPC   D3B15309   2.080  17.405   6.944 -0.1407 -0.3473  0.0767
 1096YOPC   C4B15310   2.011  17.486   7.393  0.0698 -0.3329 -0.1491
 1097YOPC   NC315311  16.004  17.413   5.579  0.1731  0.0776 -0.1026
 1097YOPC   PO415312  15.607  17.595   5.425 -0.0197 -0.1364  0.1439
 1097YOPC   GL115313  15.476  17.502   5.817  0.0631 -0.2729 -0.2568
 1097YOPC   GL215314  15.847  17.538   6.004  0.2074 -0.0243 -0.1320
 1097YOPC   C1A15315  15.351  17.522   6.179 -0.0567  0.0029  0.2599
 1097YOPC   D2A15316  15.297  17.344   6.674  0.2109 -0.2468  0.2347
 1097YOPC   C3A15317  15.002  17.033   6.755  0.0488  0.1228  0.1187
 1097YOPC   C4A15318  14.911  16.839   7.164  0.3211  0.1225  0.0135
 1097YOPC   C1B15319  15.812  17.440   6.428 -0.0125 -0.0712  0.2048
 1097YOPC   C2B15320  15.786  17.482   6.865 -0.1267 -0.0877  0.1395
 1097YOPC   D3B15321  15.894  17.230   7.115  0.4332 -0.4840 -0.4529
 1097YOPC   C4B15322  16.061  17.208   7.565 -0.1880  0.2025 -0.0500
 1098YOPC   NC315323  14.601  10.886   5.528 -0.0859  0.1029  0.1524
 1098YOPC   PO415324  14.313  10.623   5.311 -0.3441 -0.1599 -0.1545
 1098YOPC   GL115325  14.197  10.515   5.697 -0.1274  0.0251  0.2989
 1098YOPC   GL215326  14.160  10.889   5.875  0.0609 -0.3976 -0.0455
 1098YOPC   C1A15327  14.166  10.426   6.190  0.0244  0.2707 -0.0341
 1098YOPC   D2A15328  14.342  10.295   6.647 -0.2341 -0.1695  0.1016
 1098YOPC   C3A15329  14.160   9.948   6.838 -0.0466 -0.0562  0.0143
 1098YOPC   C4A15330  14.323   9.721   7.174  0.0539  0.2054  0.1980
 1098YOPC   C1B15331  14.222  11.278   6.042  0.0262  0.0010  0.1400
 1098YOPC   C2B15332  14.020  11.675   6.282 -0.1254 -0.0075  0.0315
 1098YOPC   D3B15333  14.190  11.578   6.696 -0.0188  0.0660 -0.2214
 1098YOPC   C4B15334  14.532  11.491   6.916 -0.1591 -0.1372  0.0101
 1099YOPC   NC315335   1.514   0.509   5.163 -0.1882 -0.0233 -0.0759
 1099YOPC   PO415336   1.892   0.595   5.409 -0.1669  0.1187  0.4361
 1099YOPC   GL115337   1.931   0.382   5.779 -0.2375  0.1523  0.2982
 1099YOPC   GL215338   1.770   0.161   5.875 -0.2739 -0.2437  0.1086
 1099YOPC   C1A15339   2.062   0.571   6.150 -0.1274 -0.2668 -0.3006
 1099YOPC   D2A15340   2.104   0.717   6.542  0.3057 -0.0370  0.0083
 1099YOPC   C3A15341   2.031   0.604   6.949 -0.1240 -0.0419  0.2613
 1099YOPC   C4A15342   1.943   0.680   7.307  0.3353 -0.1530 -0.3572
 1099YOPC   C1B15343   1.944  -0.033   6.218 -0.0367 -0.1381  0.1949
 1099YOPC   C2B15344   2.111   0.245   6.542  0.3680 -0.0462  0.1568
 1099YOPC   D3B15345   2.538   0.552   6.323 -0.1285 -0.1222 -0.0603
 1099YOPC   C4B15346   2.761   0.878   6.062 -0.1690  0.0055 -0.0360
 1100YOPC   NC315347   3.977   3.671   5.015 -0.0207  0.0362  0.2217
 1100YOPC   PO415348   3.764   3.434   5.344  0.0582 -0.1758 -0.0581
 1100YOPC   GL115349   3.599   3.224   5.720  0.1275 -0.1507  0.1439
 1100YOPC   GL215350   3.267   3.029   5.738  0.0221 -0.2201 -0.1375
 1100YOPC   C1A15351   3.510   3.469   5.973 -0.2258 -0.0304  0.4573
 1100YOPC   D2A15352   3.617   3.446   6.353 -0.0930 -0.3766  0.2961
 1100YOPC   C3A15353   3.500   3.622   6.809  0.3352 -0.2044  0.1868
 1100YOPC   C4A15354   3.726   3.627   7.204  0.1226  0.1256 -0.0270
 1100YOPC   C1B15355   3.027   2.824   5.943 -0.1777  0.2161 -0.0648
 1100YOPC   C2B15356   2.761   2.649   6.307 -0.0101 -0.0543 -0.0611
 1100YOPC   D3B15357   2.971   2.616   6.739 -0.1577  0.2241  0.0740
 1100YOPC   C4B15358   3.031   2.392   7.072 -0.2990 -0.2125 -0.0330
 1101YOPC   NC315359   4.717  16.921   5.481  0.4983  0.0561 -0.2988
 1101YOPC   PO415360   5.053  17.191   5.417  0.1606 -0.1936 -0.1621
 1101YOPC   GL115361   4.941  17.416   5.818  0.1147  0.1288  0.2664
 1101YOPC   GL215362   4.634  17.404   5.813 -0.3723 -0.1309  0.0489
 1101YOPC   C1A15363   4.837  17.738   6.170 -0.1026  0.0420 -0.1916
 1101YOPC   D2A15364   4.709  17.759   6.520  0.1846  0.0157 -0.1505
 1101YOPC   C3A15365   4.527  18.138   6.681 -0.2730 -0.1574  0.1925
 1101YOPC   C4A15366   4.586  18.521   6.739 -0.0536 -0.0459 -0.0710
 1101YOPC   C1B15367   4.677  17.264   6.175 -0.1806 -0.0424 -0.1158
 1101YOPC   C2B15368   4.540  17.320   6.643  0.2518 -0.1962  0.3535
 1101YOPC   D3B15369   4.354  17.653   7.000 -0.2732  0.0286  0.2605
 1101YOPC   C4B15370   4.209  17.778   7.378 -0.1466  0.0511  0.1574
 1102YOPC   NC315371  16.141  18.857   5.386  0.1486  0.1873  0.1582
 1102YOPC   PO415372  15.839  19.087   5.660  0.2374 -0.0652 -0.0539
 1102YOPC   GL115373  15.909  18.892   6.076 -0.0412  0.0121  0.0385
 1102YOPC   GL215374  15.888  18.609   6.137  0.0186  0.0872 -0.0729
 1102YOPC   C1A15375  15.927  18.942   6.571  0.2574  0.1007  0.0142
 1102YOPC   D2A15376  15.875  19.001   7.026  0.0986 -0.0028 -0.0998
 1102YOPC   C3A15377  15.670  19.312   7.175  0.0388 -0.4372  0.2089
 1102YOPC   C4A15378  15.628  19.738   7.170 -0.0286 -0.1518 -0.1982
 1102YOPC   C1B15379  15.962  18.415   6.581  0.0031  0.0452 -0.0439
 1102YOPC   C2B15380  16.211  18.651   6.921 -0.2349 -0.1023  0.0706
 1102YOPC   D3B15381  16.107  18.624   7.413  0.0193  0.3152  0.0718
 1102YOPC   C4B15382  16.015  18.699   7.829 -0.0062 -0.1295 -0.2529
 1103YOPC   NC315383  14.131  16.615   5.007 -0.0192 -0.0901 -0.2720
 1103YOPC   PO415384  14.348  16.297   5.192 -0.2373  0.3925 -0.0800
 1103YOPC   GL115385  14.268  16.080   5.573  0.2623 -0.2576  0.2779
 1103YOPC   GL215386  14.332  15.792   5.718  0.0812  0.1189 -0.0336
 1103YOPC   C1A15387  14.074  16.095   6.014  0.0142  0.3338  0.5312
 1103YOPC   D2A15388  13.812  15.743   6.096 -0.2163 -0.0458 -0.1485
 1103YOPC   C3A15389  13.814  15.649   6.498  0.4316  0.4772  0.2583
 1103YOPC   C4A15390  13.779  15.428   6.841 -0.0472  0.1303  0.3961
 1103YOPC   C1B15391  14.479  15.688   6.141 -0.2514  0.1816 -0.2458
 1103YOPC   C2B15392  14.606  15.605   6.523 -0.0293  0.0931 -0.0817
 1103YOPC   D3B15393  14.749  15.862   6.885 -0.2634  0.0094 -0.3088
 1103YOPC   C4B15394  14.798  16.010   7.337 -0.0445  0.0437  0.1844
 1104YOPC   NC315395  10.982   8.089   5.057  0.0293  0.1946  0.0946
 1104YOPC   PO415396  11.072   8.171   5.417 -0.0471  0.1422 -0.0859
 1104YOPC   GL115397  11.159   8.293   5.818  0.0990 -0.0404 -0.1047
 1104YOPC   GL215398  10.949   8.154   5.934 -0.0271 -0.0535 -0.2065
 1104YOPC   C1A15399  11.370   8.295   6.213  0.1287  0.1081 -0.2599
 1104YOPC   D2A15400  11.573   8.483   6.478 -0.1876 -0.0608 -0.2847
 1104YOPC   C3A15401  11.425   8.257   6.870 -0.0171  0.2706 -0.1527
 1104YOPC   C4A15402  11.362   8.365   7.374 -0.1747 -0.0280  0.4687
 1104YOPC   C1B15403  10.967   8.030   6.316  0.1291  0.2305 -0.2399
 1104YOPC   C2B15404  10.975   8.003   6.762  0.2562 -0.3984  0.3090
 1104YOPC   D3B15405  10.842   7.863   7.004 -0.2476 -0.3073  0.3540
 1104YOPC   C4B15406  10.787   7.635   7.368  0.0929  0.0615 -0.0899
 1105YOPC   NC315407   2.446  17.285   5.087 -0.1986 -0.0154 -0.0984
 1105YOPC   PO415408   2.053  17.485   5.194 -0.2217  0.1937 -0.1899
 1105YOPC   GL115409   2.183  17.322   5.595  0.2577  0.0410  0.2330
 1105YOPC   GL215410   2.317  16.948   5.602  0.0708 -0.0140  0.1969
 1105YOPC   C1A15411   2.256  17.343   6.097 -0.2892 -0.1006 -0.0176
 1105YOPC   D2A15412   2.396  17.620   6.260  0.1860  0.2060 -0.2918
 1105YOPC   C3A15413   2.623  17.958   6.353 -0.0688  0.0187 -0.3135
 1105YOPC   C4A15414   2.825  18.408   6.211  0.1980  0.5874  0.0594
 1105YOPC   C1B15415   2.552  16.922   6.055  0.2558  0.0170 -0.0316
 1105YOPC   C2B15416   2.516  16.758   6.422  0.3439 -0.2189  0.1036
 1105YOPC   D3B15417   2.203  16.562   6.649 -0.0483 -0.1985  0.0527
 1105YOPC   C4B15418   2.173  16.499   7.048  0.1357  0.0063  0.0333
 1106YOPC   NC315419   9.502  11.600   5.530  0.0747  0.1202 -0.1952
 1106YOPC   PO415420   9.250  11.326   5.652  0.2137  0.1971 -0.2143
 1106YOPC   GL115421   9.286  11.421   6.101  0.0266  0.0285 -0.1622
 1106YOPC   GL215422   9.532  11.383   6.261 -0.0489  0.0325  0.0775
 1106YOPC   C1A15423   8.984  11.508   6.563  0.0173  0.2084  0.0560
 1106YOPC   D2A15424   8.643  11.302   6.804  0.4035 -0.1066  0.2219
 1106YOPC   C3A15425   8.699  11.368   7.219 -0.3436 -0.1270 -0.1487
 1106YOPC   C4A15426   8.671  11.098   7.585  0.2366 -0.0566  0.0701
 1106YOPC   C1B15427   9.572  11.236   6.697 -0.0379  0.2202  0.2312
 1106YOPC   C2B15428   9.706  11.446   7.032 -0.1300 -0.1617 -0.1621
 1106YOPC   D3B15429   9.452  11.657   7.322 -0.1761 -0.1750 -0.1743
 1106YOPC   C4B15430   9.615  11.958   7.625  0.3316  0.0718 -0.5180
 1107YOPC   NC315431   5.374  15.765   6.160 -0.0935  0.1049 -0.2538
 1107YOPC   PO415432   5.400  16.089   5.975  0.2928 -0.0597 -0.0977
 1107YOPC   GL115433   5.318  16.151   6.404  0.1086  0.0620 -0.1838
 1107YOPC   GL215434   5.491  15.963   6.624 -0.1760 -0.1762  0.0554
 1107YOPC   C1A15435   4.921  16.085   6.600  0.3574  0.0338  0.1132
 1107YOPC   D2A15436   4.694  16.044   6.880  0.0247  0.0534  0.0844
 1107YOPC   C3A15437   4.886  15.941   7.184  0.4169 -0.1017  0.1580
 1107YOPC   C4A15438   4.959  15.923   7.607 -0.0349 -0.0962  0.0693
 1107YOPC   C1B15439   6.035  16.165   6.684  0.3160 -0.1965 -0.2460
 1107YOPC   C2B15440   6.280  15.915   6.956  0.1779  0.0100 -0.0816
 1107YOPC   D3B15441   6.396  15.915   7.361  0.1551  0.0454  0.0350
 1107YOPC   C4B15442   6.628  15.514   7.550  0.3274  0.0473  0.1151
 1108YOPC   NC315443  11.441   0.309   5.409  0.0699  0.0836  0.1097
 1108YOPC   PO415444  11.619   0.622   5.714 -0.0064  0.3511  0.2297
 1108YOPC   GL115445  11.624   0.934   5.993 -0.0499 -0.5087  0.1218
 1108YOPC   GL215446  11.308   0.971   6.061  0.0669  0.0959 -0.0386
 1108YOPC   C1A15447  11.702   0.910   6.452  0.0059 -0.4002  0.0074
 1108YOPC   D2A15448  11.737   0.790   6.871 -0.1052  0.0810  0.3439
 1108YOPC   C3A15449  11.619   1.176   7.180 -0.0988 -0.2021 -0.0819
 1108YOPC   C4A15450  11.908   1.410   7.345  0.1076  0.0212 -0.0454
 1108YOPC   C1B15451  11.169   0.882   6.501  0.1482  0.2265 -0.0434
 1108YOPC   C2B15452  11.282   0.643   6.862  0.1458 -0.0784  0.3330
 1108YOPC   D3B15453  11.118   0.749   7.237  0.1955 -0.0543 -0.0815
 1108YOPC   C4B15454  11.379   0.560   7.447 -0.0246  0.1388  0.0356
 1109YOPC   NC315455  13.433  17.176   5.284 -0.1122 -0.0268 -0.0419
 1109YOPC   PO415456  13.055  16.896   5.296 -0.1730 -0.2065  0.1135
 1109YOPC   GL115457  13.258  16.799   5.653 -0.1292 -0.0008  0.2135
 1109YOPC   GL215458  13.607  16.756   5.621 -0.1847 -0.1211 -0.1103
 1109YOPC   C1A15459  13.366  16.594   6.006  0.1025 -0.4084 -0.2688
 1109YOPC   D2A15460  13.540  16.555   6.390  0.2017 -0.1880  0.0264
 1109YOPC   C3A15461  13.363  16.247   6.621  0.0788  0.0672 -0.1250
 1109YOPC   C4A15462  13.344  15.805   6.470 -0.0391 -0.5282  0.3525
 1109YOPC   C1B15463  13.849  16.858   5.960  0.0151 -0.1051  0.0350
 1109YOPC   C2B15464  13.952  16.509   6.184 -0.0912 -0.0377  0.0334
 1109YOPC   D3B15465  13.875  16.218   6.489  0.0031 -0.2806 -0.2677
 1109YOPC   C4B15466  13.858  15.989   6.886  0.2715 -0.2534 -0.4420
 1110YOPC   NC315467  16.517   0.961   5.474 -0.0035  0.0897  0.2028
 1110YOPC   PO415468  16.416   0.923   5.823  0.0136  0.4462 -0.1132
 1110YOPC   GL115469  16.249   1.184   6.151 -0.0985 -0.1345  0.0668
 1110YOPC   GL215470  16.289   1.093   6.451 -0.2107  0.0548  0.1639
 1110YOPC   C1A15471  15.885   1.207   6.203  0.2764  0.0292  0.1308
 1110YOPC   D2A15472  15.830   1.502   6.488  0.0134 -0.1881 -0.0856
 1110YOPC   C3A15473  15.622   1.339   6.877 -0.2690  0.2682  0.1401
 1110YOPC   C4A15474  15.255   1.326   7.171  0.0360 -0.1575  0.1530
 1110YOPC   C1B15475  16.430   1.077   6.838  0.0763 -0.0045  0.0740
 1110YOPC   C2B15476  16.705   1.319   7.062  0.0258  0.1060  0.3270
 1110YOPC   D3B15477  16.872   1.553   7.394 -0.1136 -0.0276  0.1964
 1110YOPC   C4B15478  16.791   1.828   7.662  0.0109 -0.2289  0.0503
 1111YOPC   NC315479  15.631   6.942   5.011  0.0118  0.0750  0.0861
 1111YOPC   PO415480  15.852   7.244   5.171 -0.3792 -0.0464  0.2678
 1111YOPC   GL115481  15.904   7.522   5.582  0.0242  0.0341  0.2106
 1111YOPC   GL215482  16.292   7.455   5.740 -0.1600 -0.0752  0.1054
 1111YOPC   C1A15483  15.949   7.462   6.047  0.1429 -0.2715 -0.1814
 1111YOPC   D2A15484  16.103   7.412   6.532 -0.2023 -0.0017  0.0145
 1111YOPC   C3A15485  15.780   7.648   6.836  0.0832  0.3903 -0.0889
 1111YOPC   C4A15486  15.699   7.657   7.331 -0.1492 -0.1462  0.1010
 1111YOPC   C1B15487  16.114   7.063   5.868 -0.0050  0.2123  0.0156
 1111YOPC   C2B15488  16.398   6.827   5.955 -0.2471  0.0922 -0.0842
 1111YOPC   D3B15489  16.285   6.677   6.253  0.2960  0.1562  0.1007
 1111YOPC   C4B15490  16.018   6.657   6.552  0.5549 -0.0578  0.1005
 1112YOPC   NC315491  15.225  16.214   5.043  0.0123  0.2321  0.2894
 1112YOPC   PO415492  15.554  15.909   5.148  0.0085 -0.0486 -0.1020
 1112YOPC   GL115493  15.657  15.806   5.629 -0.2594  0.1926 -0.3009
 1112YOPC   GL215494  15.754  16.101   5.885  0.2257  0.1556 -0.2104
 1112YOPC   C1A15495  15.508  15.602   5.862  0.3766 -0.4082 -0.1223
 1112YOPC   D2A15496  15.495  15.565   6.294 -0.1394  0.1258 -0.0235
 1112YOPC   C3A15497  15.582  15.263   6.554 -0.0852  0.1734 -0.1801
 1112YOPC   C4A15498  15.404  14.948   6.807  0.2293  0.1420 -0.1717
 1112YOPC   C1B15499  15.759  15.982   6.307 -0.0669  0.0467  0.3136
 1112YOPC   C2B15500  15.677  15.822   6.688 -0.0662  0.0876  0.0562
 1112YOPC   D3B15501  15.757  15.475   6.975 -0.0122  0.0963  0.2061
 1112YOPC   C4B15502  15.877  15.176   7.209 -0.0788 -0.3080 -0.6311
 1113YOPC   NC315503  10.987   9.762   5.568  0.0890 -0.0014 -0.1006
 1113YOPC   PO415504  10.603   9.481   5.734 -0.0222  0.0660 -0.2085
 1113YOPC   GL115505  10.700   9.590   6.114  0.1640  0.0650 -0.2609
 1113YOPC   GL215506  10.890   9.843   6.216  0.0774 -0.2755  0.1699
 1113YOPC   C1A15507  10.876   9.555   6.621  0.0307 -0.1691 -0.1253
 1113YOPC   D2A15508  10.748   9.582   7.079 -0.0735 -0.0290  0.0280
 1113YOPC   C3A15509  10.512   9.754   7.363  0.0700  0.3240 -0.3359
 1113YOPC   C4A15510  10.178   9.991   7.408 -0.2280  0.0692 -0.0585
 1113YOPC   C1B15511  11.103  10.046   6.607 -0.1478 -0.0828 -0.2370
 1113YOPC   C2B15512  11.168  10.270   6.777  0.1023  0.0031  0.0721
 1113YOPC   D3B15513  11.464  10.186   7.129 -0.1448 -0.3265 -0.1118
 1113YOPC   C4B15514  11.609   9.821   7.353 -0.0529 -0.1448  0.1065
 1114YOPC   NC315515   4.223   7.659   4.872 -0.2604 -0.0970 -0.1442
 1114YOPC   PO415516   3.844   7.802   4.863  0.1727  0.4095  0.2889
 1114YOPC   GL115517   3.692   7.666   5.231 -0.3202  0.2694 -0.3471
 1114YOPC   GL215518   3.616   7.333   5.418  0.0643  0.0876 -0.3055
 1114YOPC   C1A15519   3.559   7.944   5.639 -0.0672  0.0778  0.1098
 1114YOPC   D2A15520   3.784   8.136   5.984 -0.2810  0.0209  0.0260
 1114YOPC   C3A15521   4.020   8.470   6.155 -0.1508 -0.2497  0.0455
 1114YOPC   C4A15522   4.055   8.838   6.246 -0.2117 -0.0628 -0.0013
 1114YOPC   C1B15523   3.670   7.465   5.768  0.1508  0.1663 -0.1689
 1114YOPC   C2B15524   3.517   7.355   6.194 -0.3266  0.1945  0.0749
 1114YOPC   D3B15525   3.671   7.392   6.615 -0.2009 -0.0797  0.0154
 1114YOPC   C4B15526   3.884   7.261   6.984  0.1741  0.2730  0.0393
 1115YOPC   NC315527  12.101  11.236   5.322 -0.1161 -0.0130  0.3090
 1115YOPC   PO415528  12.324  11.587   5.571  0.0622 -0.3216  0.2012
 1115YOPC   GL115529  12.372  11.781   5.954  0.0926 -0.0105  0.2438
 1115YOPC   GL215530  12.066  11.847   6.090 -0.0689  0.0007 -0.2409
 1115YOPC   C1A15531  12.468  11.864   6.379  0.0626 -0.1305  0.2188
 1115YOPC   D2A15532  12.313  11.661   6.779 -0.0921  0.1504  0.0100
 1115YOPC   C3A15533  12.496  11.347   7.078  0.1008 -0.1575  0.2419
 1115YOPC   C4A15534  12.385  11.175   7.440 -0.1542 -0.0243  0.0286
 1115YOPC   C1B15535  11.935  11.904   6.536  0.0153  0.2715  0.0440
 1115YOPC   C2B15536  11.676  11.733   6.794 -0.4364  0.1519  0.2400
 1115YOPC   D3B15537  11.516  11.402   6.614 -0.1798 -0.0865  0.0473
 1115YOPC   C4B15538  11.622  11.051   6.772 -0.1509 -0.1184 -0.1140
 1116YOPC   NC315539  17.859  15.039   5.066  0.0659  0.2352 -0.1645
 1116YOPC   PO415540  18.212  14.809   4.931  0.1964 -0.1869  0.1314
 1116YOPC   GL115541  18.230  14.903   5.394  0.0831  0.1247  0.0433
 1116YOPC   GL215542  18.060  14.861   5.696  0.4055 -0.2574  0.0287
 1116YOPC   C1A15543  18.593  14.983   5.748  0.0189 -0.0217 -0.0671
 1116YOPC   D2A15544  18.804  14.877   6.084 -0.1995 -0.2458  0.0582
 1116YOPC   C3A15545  19.232  14.807   6.143 -0.4771  0.0783  0.1943
 1116YOPC   C4A15546  19.331  14.917   6.504 -0.2107  0.1067  0.1542
 1116YOPC   C1B15547  18.183  14.726   6.110 -0.2551  0.1213  0.2185
 1116YOPC   C2B15548  18.526  14.614   6.358 -0.2423 -0.2443 -0.5099
 1116YOPC   D3B15549  18.732  14.864   6.641  0.1425 -0.0601 -0.1538
 1116YOPC   C4B15550  18.867  15.203   6.576  0.2176 -0.0808  0.1671
 1117YOPC   NC315551  18.845  13.157   5.039  0.0125 -0.0029 -0.0776
 1117YOPC   PO415552  18.752  12.815   5.185  0.1410  0.3956  0.1652
 1117YOPC   GL115553  18.524  12.873   5.450 -0.2105  0.0302 -0.1015
 1117YOPC   GL215554  18.651  13.029   5.660 -0.1585 -0.3273 -0.1191
 1117YOPC   C1A15555  18.308  12.619   5.836 -0.0020 -0.3004  0.1750
 1117YOPC   D2A15556  18.180  12.490   6.179  0.2173 -0.1553  0.1218
 1117YOPC   C3A15557  17.820  12.518   6.443 -0.1092  0.0977  0.0215
 1117YOPC   C4A15558  17.471  12.633   6.703 -0.0186 -0.0575  0.0277
 1117YOPC   C1B15559  18.453  13.184   5.985  0.1296 -0.2537 -0.1008
 1117YOPC   C2B15560  18.329  12.976   6.332 -0.0652 -0.2760 -0.2426
 1117YOPC   D3B15561  17.965  12.950   6.569 -0.1695 -0.2781  0.3035
 1117YOPC   C4B15562  17.530  13.106   6.517  0.0980  0.1894 -0.4297
 1118YOPC   NC315563   9.587  19.119   5.203  0.3581 -0.0439  0.2274
 1118YOPC   PO415564   9.983  18.959   5.162  0.1708 -0.1233  0.1603
 1118YOPC   GL115565   9.957  19.010   5.536 -0.0228  0.3449  0.0447
 1118YOPC   GL215566  10.044  19.292   5.702  0.0675 -0.0243 -0.4598
 1118YOPC   C1A15567  10.102  18.816   5.908 -0.0089  0.0842  0.3461
 1118YOPC   D2A15568  10.264  18.521   6.202  0.0296 -0.0402  0.0192
 1118YOPC   C3A15569  10.256  18.785   6.554 -0.2865  0.3086  0.0982
 1118YOPC   C4A15570   9.922  18.757   6.857 -0.0304  0.1160  0.1653
 1118YOPC   C1B15571   9.669  19.251   5.953  0.1929 -0.0511  0.0426
 1118YOPC   C2B15572   9.343  19.175   6.196  0.0159  0.1201  0.1320
 1118YOPC   D3B15573   9.387  18.850   6.384 -0.3066  0.1312 -0.1510
 1118YOPC   C4B15574   9.448  18.654   6.726 -0.1346  0.1635 -0.1058
 1119YOPC   NC315575  13.579   4.254   4.975 -0.0780  0.0605 -0.2773
 1119YOPC   PO415576  13.776   3.982   5.199 -0.1391  0.1389 -0.0063
 1119YOPC   GL115577  13.846   3.642   5.497 -0.1396  0.0898  0.0125
 1119YOPC   GL215578  13.698   3.275   5.451  0.1610  0.2647  0.1313
 1119YOPC   C1A15579  13.995   3.631   5.972 -0.2100 -0.0255 -0.0518
 1119YOPC   D2A15580  14.326   3.593   6.229 -0.0077 -0.0157  0.0944
 1119YOPC   C3A15581  14.259   3.500   6.742 -0.2732  0.3341  0.2915
 1119YOPC   C4A15582  13.827   3.573   6.983 -0.2086  0.0586  0.1949
 1119YOPC   C1B15583  14.027   3.197   5.743 -0.1785 -0.5280 -0.0482
 1119YOPC   C2B15584  14.080   2.916   6.088  0.1342  0.0939  0.1934
 1119YOPC   D3B15585  14.349   2.994   6.567 -0.0322 -0.1543 -0.1143
 1119YOPC   C4B15586  14.374   3.054   6.992 -0.1658  0.0294  0.1264
 1120YOPC   NC315587   4.455  12.566   5.315  0.0912 -0.0646  0.2613
 1120YOPC   PO415588   4.306  12.255   5.398 -0.3108 -0.1966 -0.2004
 1120YOPC   GL115589   4.227  12.191   5.837  0.0027  0.3387  0.0122
 1120YOPC   GL215590   4.446  12.506   5.944  0.1887  0.0115  0.1314
 1120YOPC   C1A15591   4.109  12.191   6.267 -0.1718 -0.0673  0.0619
 1120YOPC   D2A15592   4.214  12.018   6.700  0.0006 -0.0380 -0.4364
 1120YOPC   C3A15593   4.622  12.172   6.803  0.2341 -0.0535 -0.0673
 1120YOPC   C4A15594   5.010  12.314   7.037  0.1245  0.1480 -0.1694
 1120YOPC   C1B15595   4.564  12.943   6.203 -0.0411 -0.1942  0.3069
 1120YOPC   C2B15596   4.409  13.238   6.579 -0.3316  0.1058  0.0770
 1120YOPC   D3B15597   4.426  13.006   7.007  0.3101 -0.4935 -0.0469
 1120YOPC   C4B15598   4.536  13.098   7.372  0.0072  0.0711  0.0470
 1121YOPC   NC315599  16.956  12.381   4.958  0.0018  0.0733 -0.0706
 1121YOPC   PO415600  17.186  12.209   5.196 -0.1930  0.2514 -0.1613
 1121YOPC   GL115601  16.922  12.110   5.680  0.3570 -0.1258  0.4085
 1121YOPC   GL215602  16.513  11.983   5.585  0.0129  0.2416  0.0339
 1121YOPC   C1A15603  16.750  12.366   6.148  0.2789  0.1151 -0.0771
 1121YOPC   D2A15604  16.452  12.768   6.282  0.3851  0.2522  0.1075
 1121YOPC   C3A15605  16.358  12.904   6.729  0.0459  0.1192  0.0450
 1121YOPC   C4A15606  16.441  13.117   7.054 -0.1008 -0.3366  0.1964
 1121YOPC   C1B15607  16.484  11.649   5.902 -0.3013 -0.2905  0.0401
 1121YOPC   C2B15608  16.240  11.628   6.291 -0.3873 -0.0701 -0.4182
 1121YOPC   D3B15609  16.144  11.171   6.238 -0.0505  0.2499 -0.2016
 1121YOPC   C4B15610  16.055  10.850   6.024  0.0877 -0.3007  0.1101
 1122YOPC   NC315611   2.381  16.067   5.879  0.1333  0.1123  0.2450
 1122YOPC   PO415612   2.071  15.879   6.014  0.2317  0.1404 -0.0059
 1122YOPC   GL115613   2.337  15.980   6.353  0.0633 -0.0082  0.0143
 1122YOPC   GL215614   2.102  16.020   6.507  0.1726  0.1971  0.1018
 1122YOPC   C1A15615   2.598  16.280   6.509 -0.1767  0.2664 -0.4182
 1122YOPC   D2A15616   2.553  16.252   6.836  0.2706 -0.2091 -0.0333
 1122YOPC   C3A15617   2.642  16.321   7.175 -0.3099  0.2533  0.3135
 1122YOPC   C4A15618   2.654  16.359   7.705  0.1076  0.1887  0.3175
 1122YOPC   C1B15619   2.093  16.017   6.860 -0.0446 -0.0420 -0.2969
 1122YOPC   C2B15620   1.814  16.168   7.092  0.0465  0.2423  0.0462
 1122YOPC   D3B15621   1.463  15.858   7.269  0.0793  0.0339  0.0038
 1122YOPC   C4B15622   1.134  15.646   7.473  0.1491  0.2836 -0.1342
 1123YOPC   NC315623  12.178   4.788   5.593  0.1005  0.3282  0.0238
 1123YOPC   PO415624  12.234   4.421   5.778 -0.0249 -0.1947  0.3031
 1123YOPC   GL115625  12.401   4.527   6.097 -0.0701  0.0501 -0.1237
 1123YOPC   GL215626  12.676   4.670   6.062  0.0512 -0.2303  0.0925
 1123YOPC   C1A15627  12.354   4.460   6.543 -0.0970  0.2926 -0.0293
 1123YOPC   D2A15628  12.358   4.342   6.986  0.1007  0.0523 -0.2738
 1123YOPC   C3A15629  12.087   4.346   7.342  0.1481 -0.2236  0.1352
 1123YOPC   C4A15630  12.380   4.474   7.725  0.1059  0.0961  0.3025
 1123YOPC   C1B15631  12.945   4.463   6.197 -0.1587 -0.0668 -0.0529
 1123YOPC   C2B15632  12.867   4.398   6.596  0.0680  0.3839 -0.0896
 1123YOPC   D3B15633  12.971   4.690   6.814 -0.0624  0.0799  0.0295
 1123YOPC   C4B15634  12.836   5.135   6.842  0.0438  0.2320 -0.1326
 1124YOPC   NC315635   6.291  17.058   5.466 -0.1886  0.0735  0.2577
 1124YOPC   PO415636   6.644  17.089   5.666 -0.1056  0.1961 -0.0447
 1124YOPC   GL115637   6.699  17.288   6.080 -0.2303 -0.2069 -0.0190
 1124YOPC   GL215638   6.957  17.487   6.037  0.0182 -0.1372 -0.1796
 1124YOPC   C1A15639   6.382  17.261   6.405  0.3877  0.0707  0.3014
 1124YOPC   D2A15640   6.191  17.464   6.710 -0.0797 -0.0038 -0.4673
 1124YOPC   C3A15641   6.119  17.865   6.614  0.0100  0.1159 -0.2522
 1124YOPC   C4A15642   6.331  18.224   6.688  0.1018  0.1527 -0.2363
 1124YOPC   C1B15643   7.269  17.500   6.329  0.0323 -0.1617 -0.2013
 1124YOPC   C2B15644   7.436  17.518   6.692  0.1218  0.1799 -0.4903
 1124YOPC   D3B15645   7.509  17.176   7.053  0.0549  0.0419 -0.2063
 1124YOPC   C4B15646   7.791  17.259   7.432 -0.2204 -0.1424  0.0158
 1125YOPC   NC315647   1.661   1.476   4.937  0.0505 -0.0481  0.1323
 1125YOPC   PO415648   1.562   1.068   5.071 -0.0162  0.1456  0.1055
 1125YOPC   GL115649   1.421   1.002   5.545  0.0106  0.1139 -0.2217
 1125YOPC   GL215650   1.752   0.969   5.786  0.1915  0.2440  0.0074
 1125YOPC   C1A15651   1.076   1.054   5.875  0.0160  0.0242 -0.0322
 1125YOPC   D2A15652   0.870   0.838   6.184  0.2730 -0.2953 -0.1470
 1125YOPC   C3A15653   0.825   0.944   6.557  0.1779 -0.1567  0.0913
 1125YOPC   C4A15654   0.428   0.941   6.777  0.2483  0.3728 -0.1854
 1125YOPC   C1B15655   1.781   1.205   6.235  0.3525  0.0181  0.3746
 1125YOPC   C2B15656   1.660   1.512   6.677 -0.1153 -0.2328 -0.0736
 1125YOPC   D3B15657   1.732   1.659   7.053  0.3337  0.1509 -0.0453
 1125YOPC   C4B15658   1.861   1.979   7.377  0.0641  0.0823 -0.4791
 1126YOPC   NC315659   8.436   1.018   4.928 -0.0123  0.0537 -0.1292
 1126YOPC   PO415660   8.690   1.442   5.031 -0.1101 -0.1859 -0.1422
 1126YOPC   GL115661   8.734   1.438   5.473 -0.2189 -0.3329 -0.1132
 1126YOPC   GL215662   8.463   1.513   5.584 -0.1188 -0.1338 -0.2042
 1126YOPC   C1A15663   8.948   1.534   5.810  0.1784 -0.0660  0.1007
 1126YOPC   D2A15664   9.294   1.747   6.037  0.1158  0.0534 -0.1958
 1126YOPC   C3A15665   9.060   1.814   6.443  0.1030  0.4838 -0.2195
 1126YOPC   C4A15666   8.944   1.557   6.709 -0.3231  0.1472  0.0658
 1126YOPC   C1B15667   8.455   1.649   5.930  0.0958 -0.0238  0.1022
 1126YOPC   C2B15668   8.647   1.626   6.267 -0.1817 -0.0011  0.0085
 1126YOPC   D3B15669   8.996   1.340   6.246  0.1077  0.2426 -0.3425
 1126YOPC   C4B15670   9.312   1.039   6.208 -0.0169  0.0334 -0.0772
 1127YOPC   NC315671  15.298   8.276   4.902 -0.0715  0.0968 -0.0660
 1127YOPC   PO415672  15.650   8.181   5.059  0.3319  0.0449 -0.3072
 1127YOPC   GL115673  15.546   8.068   5.460 -0.3346 -0.1144 -0.3784
 1127YOPC   GL215674  15.863   8.197   5.540 -0.0513 -0.0883  0.0073
 1127YOPC   C1A15675  15.519   7.890   5.873  0.0235  0.0840 -0.0947
 1127YOPC   D2A15676  15.715   7.831   6.316 -0.1099  0.2796 -0.0105
 1127YOPC   C3A15677  15.381   7.802   6.548 -0.0588 -0.2580 -0.0430
 1127YOPC   C4A15678  15.296   7.820   6.986  0.1488 -0.0215 -0.1026
 1127YOPC   C1B15679  15.781   8.268   6.005  0.2132  0.1254 -0.0325
 1127YOPC   C2B15680  15.748   8.318   6.411 -0.1965 -0.1182  0.2952
 1127YOPC   D3B15681  15.598   8.601   6.550 -0.2690 -0.0460 -0.4348
 1127YOPC   C4B15682  15.564   8.782   7.016  0.0611 -0.2271 -0.0591
 1128YOPC   NC315683   8.237  17.906   5.221 -0.0804  0.0660  0.2044
 1128YOPC   PO415684   8.036  17.937   5.579  0.0248  0.2062 -0.0943
 1128YOPC   GL115685   8.042  18.113   6.003 -0.0374  0.1293 -0.1194
 1128YOPC   GL215686   7.991  18.359   5.859  0.0801  0.4249 -0.1460
 1128YOPC   C1A15687   8.128  18.039   6.497  0.0505  0.2442 -0.0214
 1128YOPC   D2A15688   8.218  18.106   6.883 -0.1364  0.1769 -0.1109
 1128YOPC   C3A15689   8.318  18.513   7.058  0.0486 -0.1990 -0.2383
 1128YOPC   C4A15690   8.320  18.442   7.501 -0.1247  0.3396 -0.0410
 1128YOPC   C1B15691   8.401  18.479   6.024  0.0789  0.1129 -0.3425
 1128YOPC   C2B15692   8.505  18.507   6.405  0.0669  0.1705 -0.0894
 1128YOPC   D3B15693   8.084  18.729   6.602  0.4839 -0.0860  0.1094
 1128YOPC   C4B15694   8.073  19.131   6.448 -0.1761 -0.1967 -0.1408
 1129YOPC   NC315695  11.784   7.666   5.210 -0.0877 -0.2226  0.2668
 1129YOPC   PO415696  12.083   7.633   5.413 -0.0814 -0.0089  0.1442
 1129YOPC   GL115697  11.964   7.780   5.717  0.0482 -0.0119 -0.4041
 1129YOPC   GL215698  11.783   7.511   5.870 -0.0121  0.1738 -0.0715
 1129YOPC   C1A15699  11.922   7.959   6.165 -0.0682  0.4688  0.2032
 1129YOPC   D2A15700  12.162   7.927   6.512 -0.1988  0.0704 -0.1484
 1129YOPC   C3A15701  11.838   7.941   6.839 -0.2253 -0.1422 -0.2972
 1129YOPC   C4A15702  11.675   7.882   7.178  0.1330 -0.2448 -0.2508
 1129YOPC   C1B15703  11.951   7.353   6.179 -0.0217  0.0310  0.0229
 1129YOPC   C2B15704  11.874   7.518   6.576 -0.0228 -0.1089  0.1011
 1129YOPC   D3B15705  11.908   7.434   7.045  0.2017  0.0223 -0.4507
 1129YOPC   C4B15706  12.145   7.599   7.322  0.2859  0.0789 -0.0556
 1130YOPC   NC315707   9.567  15.302   5.607  0.1543  0.0126 -0.0115
 1130YOPC   PO415708   9.156  15.413   5.758 -0.1074  0.0714 -0.5099
 1130YOPC   GL115709   9.064  15.541   6.146 -0.1011 -0.1680  0.0712
 1130YOPC   GL215710   9.100  15.408   6.317  0.1398  0.2022  0.2609
 1130YOPC   C1A15711   8.705  15.638   6.488  0.1078 -0.0808  0.1846
 1130YOPC   D2A15712   8.697  15.859   6.895 -0.0266 -0.0357  0.2404
 1130YOPC   C3A15713   8.469  16.229   7.026 -0.0360  0.0387  0.1331
 1130YOPC   C4A15714   8.313  16.536   6.852 -0.1312  0.0895 -0.2905
 1130YOPC   C1B15715   9.103  15.256   6.693 -0.0148  0.1227 -0.1047
 1130YOPC   C2B15716   8.612  15.309   6.901  0.2257 -0.2130  0.0182
 1130YOPC   D3B15717   8.461  15.258   7.306 -0.4246  0.0315  0.0291
 1130YOPC   C4B15718   8.586  15.346   7.755  0.2232 -0.0314 -0.3696
 1131YOPC   NC315719   1.324   9.421   4.539  0.0507 -0.4079  0.1690
 1131YOPC   PO415720   1.551   9.596   4.843  0.0415  0.1863 -0.1135
 1131YOPC   GL115721   1.555   9.551   5.257  0.1735  0.0523  0.0612
 1131YOPC   GL215722   1.987   9.395   5.258  0.0075 -0.4976 -0.1050
 1131YOPC   C1A15723   1.434   9.429   5.682  0.1066  0.2666  0.1328
 1131YOPC   D2A15724   1.240   9.448   6.132 -0.3080 -0.0556  0.1462
 1131YOPC   C3A15725   1.635   9.370   6.447 -0.4086  0.2618 -0.0027
 1131YOPC   C4A15726   1.778   9.330   6.844 -0.1459  0.0991 -0.1424
 1131YOPC   C1B15727   2.085   9.403   5.681  0.1884  0.0879  0.1978
 1131YOPC   C2B15728   2.062   9.091   6.044 -0.0958 -0.0170  0.5074
 1131YOPC   D3B15729   2.133   9.125   6.491  0.2811  0.1034  0.1974
 1131YOPC   C4B15730   2.367   9.311   6.838 -0.1844 -0.1699 -0.0261
 1132YOPC   NC315731  10.317   5.941   5.233  0.1783  0.2508  0.0795
 1132YOPC   PO415732  10.432   6.118   5.606 -0.0726  0.4999 -0.0696
 1132YOPC   GL115733  10.307   6.101   6.044  0.2279 -0.0150  0.0707
 1132YOPC   GL215734  10.535   6.273   6.232  0.0737  0.0841  0.0170
 1132YOPC   C1A15735  10.156   6.162   6.521 -0.0863  0.0444  0.0062
 1132YOPC   D2A15736  10.359   6.163   6.899  0.3778 -0.2547  0.2968
 1132YOPC   C3A15737  10.689   6.150   7.235  0.0560  0.0269 -0.1246
 1132YOPC   C4A15738  10.892   6.350   7.465  0.1348  0.1839 -0.2521
 1132YOPC   C1B15739  10.705   5.910   6.464  0.0610  0.3011 -0.1445
 1132YOPC   C2B15740  10.947   6.032   6.793  0.0586 -0.1898 -0.0218
 1132YOPC   D3B15741  11.336   6.065   6.633  0.3170  0.0659  0.0022
 1132YOPC   C4B15742  11.451   5.822   6.291 -0.0178 -0.0818  0.1498
 1133YOPC   NC315743   7.221   6.457   5.807  0.0414  0.1214 -0.0017
 1133YOPC   PO415744   7.535   6.754   5.794  0.1923 -0.1983 -0.2860
 1133YOPC   GL115745   7.324   6.896   6.134  0.1176 -0.3326 -0.1775
 1133YOPC   GL215746   7.084   7.104   5.985 -0.0287  0.2722 -0.2890
 1133YOPC   C1A15747   7.315   6.920   6.521 -0.0927  0.1703 -0.1120
 1133YOPC   D2A15748   7.228   6.952   6.932 -0.1309 -0.1984 -0.0496
 1133YOPC   C3A15749   7.199   6.814   7.281  0.1927 -0.5201  0.3251
 1133YOPC   C4A15750   7.370   6.696   7.593 -0.1349  0.0993  0.3942
 1133YOPC   C1B15751   6.985   7.275   6.420  0.1123 -0.1052  0.2295
 1133YOPC   C2B15752   6.940   7.359   6.840  0.0035  0.1509  0.1398
 1133YOPC   D3B15753   6.571   7.565   7.048  0.2067  0.0803 -0.1630
 1133YOPC   C4B15754   6.137   7.318   7.003 -0.0615 -0.0251 -0.0315
 1134YOPC   NC315755  12.295   6.117   5.881 -0.0873 -0.0018  0.0216
 1134YOPC   PO415756  12.767   6.116   5.945  0.0111  0.0864  0.3183
 1134YOPC   GL115757  12.577   6.129   6.363 -0.0607  0.0029  0.2252
 1134YOPC   GL215758  12.688   6.351   6.382  0.3010 -0.1296  0.1316
 1134YOPC   C1A15759  12.325   6.075   6.698 -0.1720  0.2370 -0.0945
 1134YOPC   D2A15760  12.126   5.919   7.059  0.0089  0.0725  0.3356
 1134YOPC   C3A15761  12.129   6.186   7.344  0.2588 -0.0829 -0.0476
 1134YOPC   C4A15762  12.212   6.535   7.682  0.1600  0.0290  0.1351
 1134YOPC   C1B15763  12.506   6.596   6.724  0.1254  0.1079  0.0946
 1134YOPC   C2B15764  12.368   6.641   7.207  0.0863 -0.0602 -0.1299
 1134YOPC   D3B15765  12.359   6.996   7.430 -0.1370 -0.1110  0.2865
 1134YOPC   C4B15766  11.956   7.124   7.542 -0.0856 -0.0623 -0.0781
 1135YOPC   NC315767   5.886   8.454   5.776 -0.0002  0.0883 -0.1034
 1135YOPC   PO415768   6.210   8.335   5.962 -0.0892 -0.0424 -0.0991
 1135YOPC   GL115769   6.001   8.473   6.252  0.0978  0.0647  0.2861
 1135YOPC   GL215770   5.886   8.789   6.243 -0.0004  0.0484  0.1502
 1135YOPC   C1A15771   5.913   8.517   6.760  0.1921  0.1413 -0.3700
 1135YOPC   D2A15772   5.814   8.347   7.055 -0.0500  0.0668  0.0290
 1135YOPC   C3A15773   5.569   8.337   7.363  0.1389  0.4277 -0.0510
 1135YOPC   C4A15774   5.543   8.356   7.767 -0.1421  0.1526  0.1343
 1135YOPC   C1B15775   5.757   8.975   6.656  0.2914 -0.1884  0.3128
 1135YOPC   C2B15776   5.512   9.084   7.067 -0.0834 -0.3726 -0.0543
 1135YOPC   D3B15777   5.602   9.513   7.334  0.0101  0.3607 -0.0514
 1135YOPC   C4B15778   5.797   9.756   7.533  0.1456 -0.1757 -0.2554
 1136YOPC   NC315779  14.987   4.693   4.742  0.3573 -0.0635 -0.0906
 1136YOPC   PO415780  15.302   4.579   4.943  0.0863  0.0233 -0.1013
 1136YOPC   GL115781  15.493   4.573   5.416  0.1021 -0.1694  0.1543
 1136YOPC   GL215782  15.348   4.930   5.510 -0.2068  0.1480 -0.2525
 1136YOPC   C1A15783  15.599   4.464   5.788  0.2711 -0.0241 -0.0737
 1136YOPC   D2A15784  15.787   4.572   6.162  0.1321 -0.0523  0.0846
 1136YOPC   C3A15785  15.995   4.355   6.530  0.2324 -0.0021 -0.0085
 1136YOPC   C4A15786  16.253   4.545   6.859 -0.2540 -0.1191 -0.1209
 1136YOPC   C1B15787  15.364   4.826   5.942  0.4163 -0.0335  0.2345
 1136YOPC   C2B15788  15.394   4.616   6.409 -0.1070  0.1411  0.0775
 1136YOPC   D3B15789  15.739   4.767   6.667 -0.0486 -0.0754  0.2090
 1136YOPC   C4B15790  16.017   4.913   6.425 -0.0525  0.3153 -0.0282
 1137YOPC   NC315791   2.735   9.406   5.337  0.4043 -0.2424  0.0864
 1137YOPC   PO415792   2.391   9.671   5.227  0.0844 -0.3040  0.1767
 1137YOPC   GL115793   2.372   9.965   5.550  0.0651  0.0317 -0.0112
 1137YOPC   GL215794   2.199   9.855   5.876 -0.1681 -0.1165 -0.0413
 1137YOPC   C1A15795   2.081  10.316   5.676  0.0089 -0.1334 -0.2434
 1137YOPC   D2A15796   1.938  10.531   6.065  0.1640  0.1755  0.2493
 1137YOPC   C3A15797   2.070  10.844   6.367  0.0056  0.2110  0.0580
 1137YOPC   C4A15798   1.928  11.203   6.641  0.1543  0.1137 -0.2709
 1137YOPC   C1B15799   2.195  10.098   6.246  0.0344  0.0618 -0.1440
 1137YOPC   C2B15800   2.418  10.091   6.668 -0.2536  0.0774  0.1534
 1137YOPC   D3B15801   2.160  10.237   7.028 -0.4237  0.0637  0.3757
 1137YOPC   C4B15802   1.849  10.669   6.866 -0.1952  0.2781 -0.0528
 1138YOPC   NC315803  18.421  13.888   5.356  0.1097  0.1334  0.0806
 1138YOPC   PO415804  17.995  13.874   5.299  0.1041  0.0951 -0.0942
 1138YOPC   GL115805  17.994  14.029   5.618  0.5011 -0.0202 -0.1375
 1138YOPC   GL215806  18.233  14.381   5.677 -0.2277  0.1350 -0.2562
 1138YOPC   C1A15807  17.981  14.039   6.032  0.2866 -0.1108 -0.0933
 1138YOPC   D2A15808  17.961  14.081   6.523 -0.0575 -0.0959 -0.1759
 1138YOPC   C3A15809  18.136  13.844   6.809  0.0837  0.1143  0.0642
 1138YOPC   C4A15810  18.168  13.993   7.178  0.0615 -0.1379 -0.0473
 1138YOPC   C1B15811  18.440  14.297   6.029  0.2173  0.3053 -0.0807
 1138YOPC   C2B15812  18.450  14.080   6.488 -0.1298 -0.1206  0.0617
 1138YOPC   D3B15813  18.507  14.388   6.808  0.0097  0.2383 -0.0604
 1138YOPC   C4B15814  18.660  14.235   7.261 -0.4050  0.0507  0.1742
 1139YOPC   NC315815  10.062  17.300   5.186  0.2175  0.0740  0.2278
 1139YOPC   PO415816  10.496  17.334   5.098  0.1635 -0.0149  0.1817
 1139YOPC   GL115817  10.520  17.313   5.451 -0.0488  0.2619  0.0674
 1139YOPC   GL215818  10.749  17.659   5.401  0.0444 -0.2235 -0.4099
 1139YOPC   C1A15819  10.748  17.355   5.867  0.1644  0.0455 -0.2318
 1139YOPC   D2A15820  10.540  17.502   6.241 -0.0626  0.1544  0.1475
 1139YOPC   C3A15821  10.725  17.710   6.598 -0.0146  0.0783 -0.1119
 1139YOPC   C4A15822  10.553  18.067   6.949 -0.2543 -0.0889 -0.1657
 1139YOPC   C1B15823  11.064  17.694   5.675 -0.1839  0.0415 -0.0055
 1139YOPC   C2B15824  11.174  17.423   6.129 -0.3910  0.2060 -0.0791
 1139YOPC   D3B15825  11.284  17.448   6.603  0.0577  0.1932 -0.0546
 1139YOPC   C4B15826  11.336  17.266   6.943  0.2948 -0.0724  0.0722
 1140YOPC   NC315827  12.816  16.466   5.199  0.0243 -0.0324 -0.2336
 1140YOPC   PO415828  13.203  16.315   4.952 -0.2532  0.0810  0.0944
 1140YOPC   GL115829  13.446  16.250   5.353 -0.1779 -0.2496  0.2648
 1140YOPC   GL215830  13.238  16.293   5.560  0.0107  0.4772  0.1940
 1140YOPC   C1A15831  13.661  16.293   5.765  0.0269 -0.0019  0.2960
 1140YOPC   D2A15832  13.394  16.125   6.087  0.0735 -0.3087 -0.2182
 1140YOPC   C3A15833  13.037  15.921   5.967 -0.0406 -0.3728 -0.2250
 1140YOPC   C4A15834  12.907  15.760   5.643 -0.3103 -0.0597 -0.1913
 1140YOPC   C1B15835  12.862  16.447   5.813 -0.0107 -0.0095 -0.1648
 1140YOPC   C2B15836  12.542  16.303   6.054 -0.2007 -0.0946  0.0899
 1140YOPC   D3B15837  12.525  16.348   6.496  0.1897 -0.0106 -0.0321
 1140YOPC   C4B15838  12.799  16.576   6.709  0.0951  0.2071  0.2100
 1141YOPC   NC315839   8.199   3.614   5.153 -0.1538  0.3077 -0.0866
 1141YOPC   PO415840   7.809   3.756   5.401  0.0233 -0.0146 -0.1174
 1141YOPC   GL115841   7.980   3.725   5.849  0.3808 -0.1399 -0.0203
 1141YOPC   GL215842   8.045   4.045   5.937 -0.2385  0.3278  0.2357
 1141YOPC   C1A15843   7.995   3.737   6.341 -0.3179  0.3594 -0.2302
 1141YOPC   D2A15844   7.826   3.603   6.749  0.0559  0.0047  0.2684
 1141YOPC   C3A15845   7.480   3.899   7.069 -0.1211  0.1585  0.0837
 1141YOPC   C4A15846   6.982   3.906   6.885 -0.2435  0.0622 -0.1255
 1141YOPC   C1B15847   8.419   4.025   6.249  0.1043 -0.0894  0.0733
 1141YOPC   C2B15848   8.390   3.770   6.639  0.1216 -0.0102  0.0490
 1141YOPC   D3B15849   8.702   3.752   6.706 -0.0533  0.0290 -0.2613
 1141YOPC   C4B15850   9.157   3.584   6.802 -0.1013 -0.0786  0.0675
 1142YOPC   NC315851  17.125   7.102   4.819  0.2010  0.0863  0.0088
 1142YOPC   PO415852  17.617   7.120   4.842  0.2039 -0.2543 -0.2156
 1142YOPC   GL115853  17.834   7.147   5.305 -0.3309 -0.2723 -0.0061
 1142YOPC   GL215854  17.784   7.518   5.354  0.0361  0.1716  0.1888
 1142YOPC   C1A15855  17.902   7.133   5.784 -0.3168  0.1197 -0.0708
 1142YOPC   D2A15856  18.090   7.032   6.083  0.0215 -0.2610 -0.0542
 1142YOPC   C3A15857  18.419   6.730   6.020 -0.0708  0.1243  0.5627
 1142YOPC   C4A15858  18.706   6.874   6.315  0.0604  0.1189 -0.0559
 1142YOPC   C1B15859  17.977   7.759   5.628 -0.0053 -0.0111  0.0794
 1142YOPC   C2B15860  18.038   8.155   5.865 -0.3970  0.1216  0.0098
 1142YOPC   D3B15861  17.873   8.338   6.228  0.1099  0.0928  0.0363
 1142YOPC   C4B15862  17.715   8.149   6.616  0.3352 -0.1204  0.2160
 1143ERGO   ROH15863  16.217  17.713   9.254  0.1479  0.0337 -0.0230
 1143ERGO    R115864  16.105  17.815   9.015 -0.0099 -0.0290  0.0233
 1143ERGO    R215865  16.260  17.918   8.810 -0.1583  0.2006  0.0241
 1143ERGO    R315866  16.123  17.737   8.660  0.0183  0.0830 -0.0002
 1143ERGO    R415867  16.204  17.944   8.470  0.0646  0.0356 -0.0281
 1143ERGO    R515868  16.002  17.870   8.502  0.0724 -0.0324 -0.1394
 1143ERGO    C115869  16.044  17.790   8.131  0.3601 -0.1710 -0.0813
 1143ERGO    C215870  16.090  17.705   7.713 -0.0625 -0.1683 -0.2621
 1144ERGO   ROH15871   5.947   6.478   9.281  0.0567 -0.0448  0.1040
 1144ERGO    R115872   6.074   6.629   9.078  0.1501 -0.0047  0.1906
 1144ERGO    R215873   6.313   6.553   8.962 -0.0448 -0.2497 -0.0650
 1144ERGO    R315874   6.171   6.577   8.731 -0.1775  0.2375  0.0579
 1144ERGO    R415875   6.447   6.640   8.655 -0.1000 -0.2463 -0.0880
 1144ERGO    R515876   6.271   6.764   8.619  0.1113  0.1426  0.1513
 1144ERGO    C115877   6.391   6.714   8.261 -0.2569  0.2129  0.0139
 1144ERGO    C215878   6.577   6.731   8.058  0.0149 -0.1146  0.0770
 1145ERGO   ROH15879  14.913   4.009   9.425 -0.1248  0.2709  0.0779
 1145ERGO    R115880  14.867   3.924   9.159 -0.2553  0.0889  0.1578
 1145ERGO    R215881  14.644   3.999   9.015 -0.1011  0.3635  0.0722
 1145ERGO    R315882  14.828   4.083   8.833  0.0734 -0.1583 -0.0114
 1145ERGO    R415883  14.578   4.061   8.681 -0.1277  0.6444  0.1253
 1145ERGO    R515884  14.769   3.968   8.632 -0.4167  0.0494 -0.0095
 1145ERGO    C115885  14.712   4.175   8.317  0.0204  0.3182  0.0777
 1145ERGO    C215886  14.647   4.294   7.929  0.2203  0.1401  0.0498
 1146ERGO   ROH15887   3.868  12.995   9.222  0.0085  0.1592 -0.0070
 1146ERGO    R115888   3.940  13.033   8.950  0.0767  0.1029  0.0027
 1146ERGO    R215889   3.763  12.988   8.742  0.1567 -0.0314 -0.0390
 1146ERGO    R315890   3.829  13.242   8.674  0.0772 -0.0260 -0.0961
 1146ERGO    R415891   3.800  13.103   8.418 -0.0784 -0.0401 -0.0698
 1146ERGO    R515892   3.973  13.218   8.484 -0.0489 -0.0147 -0.1928
 1146ERGO    C115893   3.883  13.409   8.166 -0.2900 -0.0400 -0.1416
 1146ERGO    C215894   3.959  13.505   7.879  0.1665  0.0463 -0.2697
 1147ERGO   ROH15895  11.770  17.871   9.665  0.2331  0.1617  0.1012
 1147ERGO    R115896  11.835  17.880   9.389  0.2404 -0.0263  0.0958
 1147ERGO    R215897  11.880  17.652   9.240 -0.1956 -0.1552  0.1470
 1147ERGO    R315898  11.689  17.758   9.079 -0.0074  0.1730  0.1314
 1147ERGO    R415899  11.862  17.606   8.898 -0.2543 -0.1374  0.1476
 1147ERGO    R515900  11.805  17.816   8.878  0.1076 -0.0342  0.1361
 1147ERGO    C115901  11.672  17.680   8.547 -0.1118  0.1810  0.1333
 1147ERGO    C215902  11.762  17.701   8.141  0.3284 -0.3621  0.0016
 1148ERGO   ROH15903   7.404  17.199   9.652 -0.1659  0.1814 -0.0641
 1148ERGO    R115904   7.346  17.231   9.377 -0.0568  0.1261 -0.0953
 1148ERGO    R215905   7.523  17.158   9.178  0.0042  0.0358 -0.0160
 1148ERGO    R315906   7.311  17.015   9.087  0.0048  0.0596 -0.0516
 1148ERGO    R415907   7.452  17.099   8.844 -0.0147  0.1320 -0.0284
 1148ERGO    R515908   7.241  17.130   8.889 -0.0086  0.1127 -0.0114
 1148ERGO    C115909   7.212  16.930   8.565 -0.0252  0.2102 -0.0691
 1148ERGO    C215910   7.245  16.835   8.307 -0.1670 -0.1907  0.3493
 1149ERGO   ROH15911  15.885   5.020   9.266 -0.0278  0.3648  0.1897
 1149ERGO    R115912  15.893   4.958   8.990  0.2287  0.2194  0.2272
 1149ERGO    R215913  15.681   5.008   8.819  0.1633 -0.3788  0.1090
 1149ERGO    R315914  15.870   5.142   8.676 -0.0863 -0.0065  0.1122
 1149ERGO    R415915  15.676   5.052   8.476 -0.0151 -0.2090  0.1317
 1149ERGO    R515916  15.891   5.017   8.473  0.0447  0.1271  0.0415
 1149ERGO    C115917  15.850   5.203   8.143 -0.3533  0.2394  0.1481
 1149ERGO    C215918  15.766   5.174   7.792  0.0114  0.0473 -0.1494
 1150ERGO   ROH15919  11.329   3.302   5.893 -0.3272 -0.1230  0.1656
 1150ERGO    R115920  11.341   3.292   6.175 -0.1082 -0.0937  0.1587
 1150ERGO    R215921  11.545   3.165   6.312  0.0213 -0.0343  0.0125
 1150ERGO    R315922  11.568   3.406   6.435  0.0662 -0.0199 -0.0217
 1150ERGO    R415923  11.686   3.213   6.623 -0.2531 -0.0714  0.1471
 1150ERGO    R515924  11.529   3.358   6.667 -0.2024  0.0548 -0.0445
 1150ERGO    C115925  11.791   3.468   6.921 -0.3706 -0.0794  0.1934
 1150ERGO    C215926  11.868   3.503   7.278  0.0767 -0.1931  0.0207
 1151ERGO   ROH15927   1.560  15.958   5.978  0.1232  0.2481  0.0186
 1151ERGO    R115928   1.484  15.880   6.239  0.3124  0.1521  0.0471
 1151ERGO    R215929   1.573  16.012   6.465  0.1690  0.3199  0.0143
 1151ERGO    R315930   1.307  16.031   6.519  0.1446 -0.0919  0.0728
 1151ERGO    R415931   1.438  16.049   6.781  0.1537  0.0573  0.0417
 1151ERGO    R515932   1.279  15.911   6.724  0.3558 -0.1698  0.0511
 1151ERGO    C115933   1.110  16.089   7.015  0.1220 -0.4824  0.1126
 1151ERGO    C215934   0.991  16.007   7.189 -0.1507  0.1824  0.1345
 1152ERGO   ROH15935  16.483   0.533   6.172 -0.0691 -0.0889  0.0278
 1152ERGO    R115936  16.443   0.615   6.440 -0.1015 -0.0692  0.0171
 1152ERGO    R215937  16.201   0.585   6.570 -0.1008 -0.1121  0.0090
 1152ERGO    R315938  16.354   0.457   6.755 -0.0791 -0.0562  0.0299
 1152ERGO    R415939  16.086   0.468   6.874 -0.0340  0.1069  0.1209
 1152ERGO    R515940  16.272   0.536   6.966  0.0236  0.0970  0.0137
 1152ERGO    C115941  16.162   0.279   7.225  0.0253  0.2869  0.2056
 1152ERGO    C215942  16.045   0.320   7.555  0.1141 -0.1038  0.1626
 1153ERGO   ROH15943  10.829  18.137   9.199 -0.2850 -0.1065  0.0453
 1153ERGO    R115944  10.727  17.970   8.994 -0.0450 -0.1333 -0.0586
 1153ERGO    R215945  10.580  18.069   8.780 -0.2021 -0.2102 -0.0002
 1153ERGO    R315946  10.769  17.939   8.634 -0.0001  0.1612 -0.0783
 1153ERGO    R415947  10.554  17.996   8.444 -0.1153 -0.1466 -0.0199
 1153ERGO    R515948  10.643  17.802   8.484  0.2218 -0.0032 -0.1054
 1153ERGO    C115949  10.715  17.831   8.110  0.1249  0.2391 -0.1046
 1153ERGO    C215950  10.666  17.813   7.735 -0.1293 -0.3061  0.0055
 1154ERGO   ROH15951   9.968   8.727   9.880  0.0278 -0.0082 -0.1191
 1154ERGO    R115952  10.054   8.670   9.616 -0.0246  0.0857 -0.1559
 1154ERGO    R215953   9.961   8.452   9.474  0.1196  0.0121 -0.1257
 1154ERGO    R315954   9.899   8.640   9.288 -0.1272 -0.0383 -0.0998
 1154ERGO    R415955   9.996   8.409   9.133  0.0833  0.0566 -0.1360
 1154ERGO    R515956  10.069   8.615   9.120 -0.1332  0.1442 -0.1435
 1154ERGO    C115957   9.958   8.561   8.759 -0.1696  0.0353 -0.1176
 1154ERGO    C215958  10.069   8.477   8.385  0.0438  0.1699 -0.1056
 1155ERGO   ROH15959  11.751   7.858   9.785 -0.2640  0.3638  0.0657
 1155ERGO    R115960  11.706   8.009   9.550 -0.0144  0.2741 -0.0432
 1155ERGO    R215961  11.892   8.024   9.346  0.0864 -0.0401  0.0156
 1155ERGO    R315962  11.684   7.940   9.193  0.0565  0.0857 -0.0123
 1155ERGO    R415963  11.884   8.031   9.000  0.1008  0.0517  0.0178
 1155ERGO    R515964  11.676   8.095   9.011  0.1273  0.1349  0.0273
 1155ERGO    C115965  11.683   7.957   8.656  0.0811  0.2231 -0.0071
 1155ERGO    C215966  11.766   7.779   8.333 -0.0897 -0.0133  0.3034
 1156ERGO   ROH15967  12.913   8.728   9.162  0.0923  0.0336 -0.1029
 1156ERGO    R115968  12.845   8.692   8.889 -0.0019  0.0452 -0.0809
 1156ERGO    R215969  12.742   8.896   8.734  0.1320  0.1056 -0.0877
 1156ERGO    R315970  12.950   8.832   8.570  0.0407 -0.0946 -0.1301
 1156ERGO    R415971  12.720   8.857   8.391 -0.0095 -0.0314 -0.0644
 1156ERGO    R515972  12.855   8.686   8.406 -0.1072 -0.1105 -0.0350
 1156ERGO    C115973  12.903   8.774   8.038 -0.1776 -0.2992 -0.0907
 1156ERGO    C215974  13.127   8.724   7.564 -0.1812 -0.2544 -0.0331
 1157ERGO   ROH15975   8.135  18.838   9.199  0.0528  0.0844  0.0490
 1157ERGO    R115976   8.161  18.726   8.941  0.0564 -0.0060  0.0871
 1157ERGO    R215977   8.011  18.811   8.725  0.0210 -0.1139  0.0612
 1157ERGO    R315978   8.254  18.844   8.609  0.0081 -0.1058  0.0393
 1157ERGO    R415979   8.091  18.720   8.401  0.0211 -0.1617  0.0756
 1157ERGO    R515980   8.283  18.650   8.474  0.0289 -0.1217  0.0746
 1157ERGO    C115981   8.366  18.698   8.105  0.0089 -0.1820  0.0636
 1157ERGO    C215982   8.470  18.802   7.788 -0.0419  0.1148 -0.4383
 1158ERGO   ROH15983   2.657   9.579   5.834  0.1144 -0.0674 -0.0636
 1158ERGO    R115984   2.775   9.812   5.944 -0.0034  0.0224 -0.1249
 1158ERGO    R215985   2.633  10.047   5.980 -0.1572 -0.0756 -0.0724
 1158ERGO    R315986   2.721  10.022   6.236 -0.0261 -0.0045 -0.1099
 1158ERGO    R415987   2.667  10.308   6.204 -0.0716 -0.0183 -0.1518
 1158ERGO    R515988   2.853  10.219   6.273 -0.0275  0.0180 -0.2233
 1158ERGO    C115989   2.768  10.437   6.574  0.1014  0.0817 -0.2331
 1158ERGO    C215990   2.787  10.654   6.835  0.0048  0.2322  0.0590
 1159ERGO   ROH15991  11.311   8.722   6.024  0.3295  0.2142  0.0006
 1159ERGO    R115992  11.159   8.740   6.263  0.2945  0.1077 -0.0129
 1159ERGO    R215993  10.934   8.586   6.308  0.2327  0.1529 -0.1547
 1159ERGO    R315994  11.067   8.518   6.535  0.1711 -0.0438 -0.1760
 1159ERGO    R415995  10.788   8.549   6.619  0.2123  0.2795 -0.1488
 1159ERGO    R515996  10.962   8.647   6.707  0.3397  0.0578 -0.1470
 1159ERGO    C115997  10.827   8.463   7.013  0.1425  0.1686 -0.1654
 1159ERGO    C215998  10.861   8.243   7.313  0.4002 -0.2037 -0.1414
 1160ERGO   ROH15999   1.128  17.530   6.246  0.0269 -0.0245 -0.1642
 1160ERGO    R116000   1.217  17.337   6.432 -0.0115 -0.1499 -0.2756
 1160ERGO    R216001   1.400  17.141   6.368  0.2226  0.0746 -0.2936
 1160ERGO    R316002   1.534  17.240   6.583 -0.0876 -0.0419 -0.0387
 1160ERGO    R416003   1.589  16.952   6.587  0.2551  0.0054 -0.3800
 1160ERGO    R516004   1.508  17.071   6.751 -0.0398 -0.3037 -0.2834
 1160ERGO    C116005   1.824  16.934   6.917 -0.0173 -0.1443 -0.1910
 1160ERGO    C216006   2.050  16.998   7.122 -0.0388 -0.1853 -0.0621
 1161ERGO   ROH16007  15.576   5.697   6.074 -0.0361  0.0131  0.2068
 1161ERGO    R116008  15.497   5.818   6.317 -0.0570  0.1194  0.1483
 1161ERGO    R216009  15.416   5.671   6.537 -0.2111  0.2192  0.1611
 1161ERGO    R316010  15.610   5.813   6.663 -0.1785  0.1500  0.1885
 1161ERGO    R416011  15.465   5.677   6.879 -0.1093  0.0182  0.1511
 1161ERGO    R516012  15.506   5.891   6.864 -0.1204  0.0279  0.2661
 1161ERGO    C116013  15.676   5.814   7.196 -0.0194 -0.1638  0.1711
 1161ERGO    C216014  15.787   5.557   7.343 -0.0220 -0.0188  0.2090
 1162ERGO   ROH16015   7.169  13.054   6.388 -0.3321  0.3358 -0.0373
 1162ERGO    R116016   7.354  13.121   6.591 -0.2267 -0.1146  0.0244
 1162ERGO    R216017   7.400  13.381   6.672  0.4597 -0.1975 -0.0329
 1162ERGO    R316018   7.341  13.281   6.918  0.0658  0.0222 -0.0282
 1162ERGO    R416019   7.510  13.513   6.972  0.2787 -0.1397  0.0098
 1162ERGO    R516020   7.542  13.311   7.044 -0.0368 -0.1349  0.1778
 1162ERGO    C116021   7.520  13.496   7.377 -0.1965  0.1002  0.0391
 1162ERGO    C216022   7.526  13.632   7.673  0.3171 -0.1344  0.1451
 1163ERGO   ROH16023  18.236  16.041   9.475  0.2197 -0.3503  0.1526
 1163ERGO    R116024  18.262  15.824   9.295  0.1996 -0.2526  0.0301
 1163ERGO    R216025  18.142  15.821   9.047  0.1276 -0.1402  0.0641
 1163ERGO    R316026  18.395  15.772   8.960  0.1087 -0.0584 -0.0378
 1163ERGO    R416027  18.225  15.726   8.725  0.0246 -0.0979  0.0249
 1163ERGO    R516028  18.371  15.587   8.809  0.1021 -0.0592 -0.0383
 1163ERGO    C116029  18.511  15.625   8.456 -0.0529  0.0035 -0.0935
 1163ERGO    C216030  18.800  15.732   8.258 -0.1371  0.3432 -0.0449
 1164ERGO   ROH16031  11.645  18.238   5.478 -0.0701  0.1640  0.0053
 1164ERGO    R116032  11.562  18.075   5.694  0.0061  0.1623  0.0324
 1164ERGO    R216033  11.665  17.822   5.737  0.0270  0.1706 -0.0017
 1164ERGO    R316034  11.719  17.921   5.984  0.1033  0.1664 -0.0154
 1164ERGO    R416035  11.693  17.632   6.025 -0.1165  0.1784  0.0186
 1164ERGO    R516036  11.586  17.789   6.132 -0.0027  0.2801  0.0006
 1164ERGO    C116037  11.760  17.615   6.424 -0.1285  0.1790  0.0176
 1164ERGO    C216038  11.802  17.404   6.600  0.1154  0.2433 -0.1147
 1165ERGO   ROH16039   2.144  18.928   9.000  0.1288  0.2680  0.0145
 1165ERGO    R116040   2.154  18.781   8.758  0.1724  0.1769  0.0704
 1165ERGO    R216041   1.927  18.684   8.634  0.2072 -0.0378  0.1647
 1165ERGO    R316042   2.025  18.820   8.420  0.0566 -0.0494  0.0875
 1165ERGO    R416043   1.842  18.623   8.304  0.1079 -0.1663  0.2135
 1165ERGO    R516044   2.051  18.653   8.250  0.0695 -0.0807  0.1229
 1165ERGO    C116045   1.885  18.715   7.912 -0.0912 -0.2521  0.1695
 1165ERGO    C216046   1.719  18.790   7.644  0.3124  0.0956 -0.2690
 1166ERGO   ROH16047   4.326   1.968   6.462 -0.0362 -0.1017 -0.0193
 1166ERGO    R116048   4.587   1.864   6.491  0.0159  0.0004 -0.1153
 1166ERGO    R216049   4.814   2.013   6.440 -0.0629  0.1233 -0.0990
 1166ERGO    R316050   4.881   1.939   6.693  0.0234  0.0453 -0.1405
 1166ERGO    R416051   5.103   2.109   6.603 -0.0772  0.1976 -0.1157
 1166ERGO    R516052   5.118   1.906   6.684  0.0403  0.1657 -0.2040
 1166ERGO    C116053   5.335   2.094   6.936 -0.0046  0.1677 -0.1645
 1166ERGO    C216054   5.421   2.121   7.289 -0.2236  0.0320  0.0946
 1167ERGO   ROH16055   8.974   4.027   9.769 -0.1310  0.0175  0.0907
 1167ERGO    R116056   8.845   3.945   9.531 -0.0293 -0.0999  0.0755
 1167ERGO    R216057   8.816   4.111   9.312 -0.2232 -0.0983  0.1031
 1167ERGO    R316058   8.936   3.905   9.181  0.0250  0.0631  0.0696
 1167ERGO    R416059   8.818   4.069   8.968 -0.3045 -0.1122  0.1041
 1167ERGO    R516060   8.788   3.855   8.999  0.0165 -0.1613  0.1321
 1167ERGO    C116061   8.931   3.851   8.646 -0.1188  0.0312  0.0733
 1167ERGO    C216062   9.019   3.741   8.233  0.1555 -0.0266  0.1454
 1168ERGO   ROH16063   7.546   7.686   9.950 -0.0323  0.2987  0.0593
 1168ERGO    R116064   7.654   7.652   9.690  0.0441  0.2064  0.1030
 1168ERGO    R216065   7.525   7.741   9.463  0.0632  0.0351  0.0261
 1168ERGO    R316066   7.761   7.868   9.418  0.0227  0.1073  0.0145
 1168ERGO    R416067   7.652   7.816   9.150  0.0757 -0.0327  0.0144
 1168ERGO    R516068   7.850   7.761   9.223  0.0889  0.0665  0.0644
 1168ERGO    C116069   7.948   7.980   8.927  0.0452 -0.0045 -0.0034
 1168ERGO    C216070   8.192   8.026   8.638  0.3303  0.2702  0.0454
 1169ERGO   ROH16071   1.033   6.202   5.942  0.0944 -0.2757 -0.1222
 1169ERGO    R116072   1.063   6.128   6.214  0.0084 -0.2131 -0.0940
 1169ERGO    R216073   1.309   6.122   6.340 -0.0052 -0.3506 -0.0612
 1169ERGO    R316074   1.184   6.284   6.519  0.0857 -0.2011 -0.1324
 1169ERGO    R416075   1.391   6.150   6.675 -0.0098 -0.2551 -0.0683
 1169ERGO    R516076   1.179   6.158   6.722 -0.0017 -0.1076 -0.0803
 1169ERGO    C116077   1.322   6.318   7.037  0.0730 -0.0592 -0.1393
 1169ERGO    C216078   1.351   6.259   7.452  0.0350 -0.1861  0.0022
 1170ERGO   ROH16079  17.749   8.490   8.938 -0.0053  0.2456  0.0765
 1170ERGO    R116080  17.653   8.618   8.705 -0.0310  0.1853  0.0538
 1170ERGO    R216081  17.802   8.804   8.566 -0.0263  0.1123 -0.0393
 1170ERGO    R316082  17.752   8.640   8.355 -0.1003  0.0514  0.0251
 1170ERGO    R416083  17.867   8.882   8.235  0.1216 -0.0920 -0.0602
 1170ERGO    R516084  17.678   8.787   8.181  0.0598  0.0301 -0.0637
 1170ERGO    C116085  17.858   8.772   7.845  0.1383 -0.2681 -0.0119
 1170ERGO    C216086  17.832   8.850   7.520 -0.1470 -0.0735  0.2741
 1171ERGO   ROH16087   9.718   1.560   9.363 -0.0065  0.0647  0.0294
 1171ERGO    R116088   9.673   1.762   9.170 -0.1186 -0.0213 -0.0347
 1171ERGO    R216089   9.877   1.873   9.021 -0.1603  0.1436  0.0329
 1171ERGO    R316090   9.720   1.800   8.811  0.0025 -0.0548 -0.0234
 1171ERGO    R416091   9.939   1.952   8.690 -0.0527  0.0800  0.0370
 1171ERGO    R516092   9.726   1.988   8.664 -0.0720 -0.0979 -0.0847
 1171ERGO    C116093   9.828   1.929   8.301  0.1628 -0.1432 -0.0134
 1171ERGO    C216094   9.957   2.032   8.042 -0.0045  0.0540 -0.2091
 1172ERGO   ROH16095  17.531  11.361   5.550  0.1482  0.2094  0.0669
 1172ERGO    R116096  17.605  11.332   5.822  0.0770  0.2457  0.0907
 1172ERGO    R216097  17.472  11.461   6.027 -0.1571  0.0520  0.0664
 1172ERGO    R316098  17.450  11.209   6.127  0.1004  0.0031  0.0064
 1172ERGO    R416099  17.543  11.370   6.353  0.1007  0.0075  0.0001
 1172ERGO    R516100  17.634  11.188   6.277  0.2033  0.1033 -0.1055
 1172ERGO    C116101  17.563  11.081   6.636  0.4927 -0.0644 -0.0949
 1172ERGO    C216102  17.368  11.031   6.927  0.0986 -0.0791  0.0369
 1173ERGO   ROH16103   5.925  14.772   6.014  0.4326  0.2072  0.1658
 1173ERGO    R116104   6.006  14.713   6.279  0.1046  0.1113  0.2483
 1173ERGO    R216105   5.867  14.802   6.500 -0.1733  0.0254  0.1101
 1173ERGO    R316106   5.865  14.538   6.566 -0.2509  0.0012  0.0142
 1173ERGO    R416107   5.789  14.678   6.813  0.3845 -0.0156  0.2432
 1173ERGO    R516108   5.950  14.533   6.790  0.2261 -0.1465 -0.1570
 1173ERGO    C116109   5.742  14.358   7.057  0.6364 -0.0623  0.2307
 1173ERGO    C216110   5.556  14.409   7.370 -0.2355  0.2050  0.1533
 1174ERGO   ROH16111  13.905  13.470   5.648 -0.0198 -0.2394 -0.0176
 1174ERGO    R116112  13.995  13.360   5.892  0.2118 -0.2899 -0.1224
 1174ERGO    R216113  14.252  13.263   5.927  0.3802  0.0847 -0.2589
 1174ERGO    R316114  14.253  13.435   6.137  0.1543 -0.0682 -0.1286
 1174ERGO    R416115  14.441  13.223   6.213  0.2266 -0.0137 -0.1699
 1174ERGO    R516116  14.271  13.293   6.330  0.1164 -0.1971 -0.2209
 1174ERGO    C116117  14.553  13.361   6.578 -0.0749 -0.2145  0.0043
 1174ERGO    C216118  14.752  13.635   6.629 -0.1254 -0.0315  0.2120
 1175ERGO   ROH16119   3.244  15.575   5.899  0.0858 -0.1107  0.0665
 1175ERGO    R116120   3.171  15.598   6.171  0.1005 -0.0292  0.0636
 1175ERGO    R216121   3.137  15.378   6.335 -0.0832  0.0106  0.0790
 1175ERGO    R316122   3.316  15.507   6.493  0.0225 -0.1248  0.0727
 1175ERGO    R416123   3.177  15.321   6.673 -0.1189 -0.0154  0.0794
 1175ERGO    R516124   3.201  15.537   6.701  0.0491 -0.0311  0.0751
 1175ERGO    C116125   3.370  15.410   7.019 -0.0405 -0.1577  0.0738
 1175ERGO    C216126   3.435  15.189   7.249  0.1378 -0.1557  0.1296
 1176ERGO   ROH16127   4.449  11.232   9.554 -0.1039 -0.2870  0.1542
 1176ERGO    R116128   4.472  11.304   9.281 -0.3925 -0.3004  0.1233
 1176ERGO    R216129   4.716  11.335   9.155 -0.4998  0.3031  0.0228
 1176ERGO    R316130   4.611  11.155   8.980 -0.1093 -0.0351  0.1196
 1176ERGO    R416131   4.797  11.314   8.819 -0.4625  0.2917  0.0329
 1176ERGO    R516132   4.587  11.277   8.776 -0.3879 -0.1998  0.0527
 1176ERGO    C116133   4.745  11.133   8.460 -0.0742 -0.0323  0.1297
 1176ERGO    C216134   4.995  11.165   8.050 -0.1257 -0.0253 -0.0415
 1177ERGO   ROH16135  12.002   4.894   6.080  0.0080 -0.0058 -0.1493
 1177ERGO    R116136  11.937   4.970   6.346  0.0049  0.0265 -0.1585
 1177ERGO    R216137  11.892   4.785   6.546 -0.1845  0.0446 -0.1777
 1177ERGO    R316138  12.085   4.926   6.676 -0.1016 -0.1111 -0.1293
 1177ERGO    R416139  11.925   4.805   6.890 -0.3035  0.0937 -0.1692
 1177ERGO    R516140  11.973   5.017   6.867 -0.0914  0.0402 -0.1971
 1177ERGO    C116141  12.125   4.951   7.211 -0.2949 -0.0240 -0.1188
 1177ERGO    C216142  12.196   4.905   7.500 -0.1575  0.2529 -0.1245
 1178ERGO   ROH16143  17.586  10.333   5.380  0.1006 -0.0977  0.0001
 1178ERGO    R116144  17.771  10.323   5.595 -0.0630 -0.0239  0.1461
 1178ERGO    R216145  17.692  10.291   5.858 -0.2482 -0.2442  0.0637
 1178ERGO    R316146  17.866  10.083   5.850 -0.0269 -0.0656  0.0950
 1178ERGO    R416147  17.956  10.246   6.076 -0.3450 -0.0526  0.2242
 1178ERGO    R516148  18.077  10.179   5.908 -0.1604  0.1352  0.2737
 1178ERGO    C116149  18.273  10.024   6.197 -0.1936  0.2267  0.3470
 1178ERGO    C216150  18.516   9.991   6.506  0.2893 -0.0098  0.0460
 1179ERGO   ROH16151  11.935  10.353   5.931 -0.1350  0.3410  0.0628
 1179ERGO    R116152  12.103  10.270   6.143  0.0814  0.3750 -0.0926
 1179ERGO    R216153  12.197  10.444   6.335 -0.1020  0.3255  0.0419
 1179ERGO    R316154  12.087  10.264   6.506  0.2398 -0.0204 -0.0861
 1179ERGO    R416155  12.292  10.403   6.665 -0.1202  0.3808  0.0544
 1179ERGO    R516156  12.272  10.187   6.638  0.3805  0.3344 -0.0624
 1179ERGO    C116157  12.244  10.211   7.018  0.1902  0.0881 -0.0585
 1179ERGO    C216158  12.104  10.171   7.276 -0.1481  0.1379 -0.2303
 1180ERGO   ROH16159   7.631   3.049   9.410  0.1414 -0.1059  0.1828
 1180ERGO    R116160   7.783   2.975   9.183  0.1080  0.0840  0.0966
 1180ERGO    R216161   7.687   2.803   8.990  0.1850  0.0234  0.1145
 1180ERGO    R316162   7.752   3.007   8.822 -0.0951  0.1176  0.1151
 1180ERGO    R416163   7.620   2.809   8.651  0.1357 -0.0532  0.1225
 1180ERGO    R516164   7.816   2.898   8.618  0.0227  0.2031  0.1033
 1180ERGO    C116165   7.641   3.004   8.296 -0.1560 -0.0094  0.1278
 1180ERGO    C216166   7.629   3.077   7.922 -0.0168 -0.1111 -0.2573
 1181ERGO   ROH16167   8.229  13.347   9.338 -0.1154 -0.0036 -0.1715
 1181ERGO    R116168   8.335  13.302   9.080 -0.0741  0.0861 -0.1704
 1181ERGO    R216169   8.182  13.207   8.870 -0.0574  0.2300 -0.2474
 1181ERGO    R316170   8.276  13.428   8.744  0.0356  0.2611 -0.1260
 1181ERGO    R416171   8.154  13.268   8.531  0.0449  0.3833 -0.2294
 1181ERGO    R516172   8.356  13.348   8.534  0.0680  0.3287 -0.1416
 1181ERGO    C116173   8.225  13.512   8.215  0.1918  0.5017 -0.1050
 1181ERGO    C216174   8.062  13.449   7.979 -0.1065 -0.0962 -0.0251
 1182ERGO   ROH16175   0.937   6.291   9.262  0.1019 -0.1902 -0.0205
 1182ERGO    R116176   0.956   6.408   9.004  0.2108 -0.1019  0.0268
 1182ERGO    R216177   1.074   6.278   8.791  0.1151 -0.1141 -0.0154
 1182ERGO    R316178   0.836   6.329   8.670  0.1630  0.1310 -0.0135
 1182ERGO    R416179   1.033   6.335   8.453  0.1660 -0.1657 -0.0310
 1182ERGO    R516180   0.888   6.491   8.502  0.3482  0.0238 -0.0659
 1182ERGO    C116181   0.785   6.417   8.142  0.2407  0.0342 -0.0383
 1182ERGO    C216182   0.881   6.334   7.842  0.0783  0.1154  0.0640
 1183ERGO   ROH16183   8.402  17.688   5.893 -0.0455  0.0049  0.2243
 1183ERGO    R116184   8.361  17.712   6.172  0.0026  0.1063  0.2234
 1183ERGO    R216185   8.349  17.493   6.339 -0.1051  0.1588  0.2864
 1183ERGO    R316186   8.544  17.625   6.474 -0.0099  0.0825  0.2240
 1183ERGO    R416187   8.461  17.411   6.656  0.1250 -0.0237  0.1608
 1183ERGO    R516188   8.471  17.624   6.702  0.1543 -0.0505  0.2773
 1183ERGO    C116189   8.710  17.488   6.967  0.3482 -0.2018  0.0290
 1183ERGO    C216190   8.765  17.258   7.289 -0.4700 -0.2784  0.2373
 1184ERGO   ROH16191  17.442  14.537   9.358  0.0164  0.1913  0.0100
 1184ERGO    R116192  17.484  14.641   9.098  0.0471  0.0596 -0.0397
 1184ERGO    R216193  17.705  14.575   8.945  0.1023  0.0295  0.0408
 1184ERGO    R316194  17.516  14.506   8.762  0.1548 -0.1214  0.0440
 1184ERGO    R416195  17.755  14.565   8.603  0.1211 -0.0335  0.0464
 1184ERGO    R516196  17.557  14.651   8.576  0.0813 -0.1528  0.0099
 1184ERGO    C116197  17.607  14.494   8.232  0.1815 -0.2120  0.0525
 1184ERGO    C216198  17.702  14.467   7.928 -0.1237  0.1015 -0.2378
 1185ERGO   ROH16199  12.347   2.521   9.820 -0.1435  0.0849  0.1141
 1185ERGO    R116200  12.303   2.708   9.612  0.1289  0.1205  0.0857
 1185ERGO    R216201  12.502   2.785   9.436  0.1894 -0.3818 -0.0764
 1185ERGO    R316202  12.321   2.707   9.249 -0.1207 -0.0437  0.0703
 1185ERGO    R416203  12.478   2.915   9.117  0.1744 -0.3346 -0.0569
 1185ERGO    R516204  12.262   2.909   9.135  0.1666  0.0766  0.1225
 1185ERGO    C116205  12.294   2.919   8.756 -0.1256  0.0103  0.0922
 1185ERGO    C216206  12.355   2.991   8.422 -0.0860  0.1390  0.1239
 1186ERGO   ROH16207  11.320   7.818   6.056  0.1833  0.0747  0.0256
 1186ERGO    R116208  11.445   7.726   6.292  0.1201  0.0584  0.0537
 1186ERGO    R216209  11.402   7.842   6.539  0.0693  0.0559  0.0506
 1186ERGO    R316210  11.337   7.588   6.611  0.0308  0.0586  0.0223
 1186ERGO    R416211  11.338   7.739   6.863 -0.1266  0.0608  0.0141
 1186ERGO    R516212  11.448   7.556   6.821 -0.0994  0.0654  0.0895
 1186ERGO    C116213  11.240   7.441   7.119 -0.2767  0.0661 -0.0337
 1186ERGO    C216214  11.285   7.193   7.484  0.2181  0.1451 -0.0921
 1187ERGO   ROH16215  18.947  13.469   9.387  0.1572 -0.0535  0.1297
 1187ERGO    R116216  18.903  13.542   9.117  0.1719 -0.0029  0.1410
 1187ERGO    R216217  19.108  13.558   8.932  0.1690 -0.0553  0.1346
 1187ERGO    R316218  18.950  13.388   8.791  0.0994  0.0216  0.1186
 1187ERGO    R416219  19.085  13.551   8.588  0.1505  0.0029  0.1345
 1187ERGO    R516220  18.870  13.520   8.608  0.1388  0.0782  0.1409
 1187ERGO    C116221  18.923  13.387   8.254  0.0748  0.1089  0.1194
 1187ERGO    C216222  18.974  13.297   7.850  0.1215 -0.1180 -0.1711
 1188ERGO   ROH16223   2.174  15.490   6.332  0.0523  0.2286 -0.0597
 1188ERGO    R116224   2.188  15.506   6.614 -0.1257  0.2436 -0.0496
 1188ERGO    R216225   2.106  15.300   6.779 -0.0945  0.1897 -0.0928
 1188ERGO    R316226   2.357  15.324   6.881 -0.1666  0.3538  0.0499
 1188ERGO    R416227   2.202  15.196   7.094 -0.0707 -0.2567 -0.2411
 1188ERGO    R516228   2.322  15.377   7.112 -0.3293 -0.1173  0.1388
 1188ERGO    C116229   2.494  15.157   7.373 -0.1245 -0.3625 -0.1935
 1188ERGO    C216230   2.726  14.838   7.429  0.2899 -0.1696  0.0711
 1189ERGO   ROH16231  16.163   9.045   5.794  0.2185  0.2531 -0.1503
 1189ERGO    R116232  16.030   9.261   5.919  0.2240  0.2515 -0.1406
 1189ERGO    R216233  15.978   9.267   6.190  0.0317  0.1409 -0.1714
 1189ERGO    R316234  16.107   9.506   6.177  0.1498  0.0910  0.0362
 1189ERGO    R416235  15.939   9.525   6.417 -0.0076  0.0463 -0.0706
 1189ERGO    R516236  15.943   9.665   6.250  0.1711  0.1280  0.0016
 1189ERGO    C116237  16.036   9.899   6.537  0.0804 -0.0556  0.1830
 1189ERGO    C216238  15.930  10.204   6.740  0.0736  0.0950  0.6466
 1190ERGO   ROH16239   4.951   5.117   5.908  0.2064  0.0193  0.0438
 1190ERGO    R116240   4.982   5.253   6.155  0.2495 -0.0299  0.0653
 1190ERGO    R216241   4.809   5.218   6.367  0.1387  0.1188 -0.0003
 1190ERGO    R316242   5.037   5.160   6.503  0.0378 -0.1120  0.0784
 1190ERGO    R416243   4.829   5.170   6.709 -0.0167  0.1479  0.0144
 1190ERGO    R516244   5.017   5.281   6.708  0.1079 -0.0562  0.0532
 1190ERGO    C116245   5.056   5.088   7.035 -0.2018 -0.0518  0.0967
 1190ERGO    C216246   5.060   5.020   7.311 -0.3429  0.2813 -0.0042
 1191ERGO   ROH16247   5.265   2.441   9.062  0.2566 -0.0359 -0.1368
 1191ERGO    R116248   5.350   2.331   8.816  0.0550 -0.0117 -0.2180
 1191ERGO    R216249   5.198   2.346   8.585 -0.0248  0.2259 -0.1475
 1191ERGO    R316250   5.424   2.455   8.482  0.0357  0.0591 -0.1971
 1191ERGO    R416251   5.274   2.359   8.249 -0.0530  0.0920 -0.1604
 1191ERGO    R516252   5.481   2.312   8.299 -0.0739 -0.0265 -0.1684
 1191ERGO    C116253   5.530   2.469   7.955 -0.0127 -0.1425 -0.2146
 1191ERGO    C216254   5.542   2.489   7.636  0.1399 -0.0521  0.2556
 1192ERGO   ROH16255   3.402  15.562   9.455 -0.2413  0.1111  0.0538
 1192ERGO    R116256   3.303  15.705   9.232 -0.2224  0.1410  0.0643
 1192ERGO    R216257   3.454  15.751   9.006 -0.1310  0.3505  0.1648
 1192ERGO    R316258   3.243  15.637   8.880  0.0172  0.2543  0.0003
 1192ERGO    R416259   3.375  15.797   8.673  0.1281  0.2752  0.0908
 1192ERGO    R516260   3.165  15.806   8.729  0.0776  0.2032 -0.0875
 1192ERGO    C116261   3.131  15.716   8.360  0.4183  0.1411 -0.1068
 1192ERGO    C216262   3.178  15.831   7.997  0.0429  0.0856 -0.2329
 1193ERGO   ROH16263   5.933  12.069   6.555  0.0889 -0.1930 -0.1218
 1193ERGO    R116264   6.001  11.972   6.812 -0.2530 -0.0861  0.0142
 1193ERGO    R216265   6.253  12.003   6.921 -0.2459 -0.4828  0.1260
 1193ERGO    R316266   6.116  12.115   7.127 -0.1521 -0.0053 -0.0588
 1193ERGO    R416267   6.395  12.114   7.216 -0.2085 -0.5834  0.1462
 1193ERGO    R516268   6.224  12.031   7.323 -0.4881 -0.1130  0.0876
 1193ERGO    C116269   6.349  12.284   7.581 -0.0985 -0.1938 -0.0154
 1193ERGO    C216270   6.471  12.601   7.889  0.2805  0.1508 -0.1602
 1194ERGO   ROH16271  18.893   4.741   8.937 -0.1851 -0.0178 -0.0077
 1194ERGO    R116272  18.879   4.840   8.672 -0.0358  0.0566  0.0106
 1194ERGO    R216273  19.094   4.832   8.499  0.0008 -0.0936  0.0579
 1194ERGO    R316274  18.918   4.703   8.337 -0.0769  0.0979 -0.0105
 1194ERGO    R416275  19.142   4.773   8.162  0.0371 -0.0840  0.0621
 1194ERGO    R516276  18.932   4.821   8.128  0.0898  0.1186  0.0124
 1194ERGO    C116277  19.005   4.619   7.813 -0.0145  0.1013  0.0004
 1194ERGO    C216278  19.073   4.499   7.473 -0.1442  0.0771  0.0460
 1195ERGO   ROH16279   4.439   7.419   6.119  0.2593  0.2112  0.0398
 1195ERGO    R116280   4.500   7.465   6.391  0.2166 -0.0180  0.0913
 1195ERGO    R216281   4.386   7.671   6.536  0.5311  0.1473  0.1211
 1195ERGO    R316282   4.317   7.470   6.706  0.0629  0.1957 -0.0003
 1195ERGO    R416283   4.310   7.712   6.871  0.5455  0.1242  0.1263
 1195ERGO    R516284   4.421   7.529   6.914  0.1472 -0.1394  0.0546
 1195ERGO    C116285   4.201   7.547   7.225  0.1144  0.1562  0.0154
 1195ERGO    C216286   4.122   7.481   7.604  0.1982  0.2187  0.2532
 1196ERGO   ROH16287  12.412   9.262   5.858  0.4057 -0.2108 -0.0828
 1196ERGO    R116288  12.389   9.303   6.137  0.3964 -0.0851 -0.1021
 1196ERGO    R216289  12.233   9.143   6.299  0.1153  0.1965 -0.0876
 1196ERGO    R316290  12.464   9.114   6.439  0.0433 -0.1014 -0.0201
 1196ERGO    R416291  12.264   9.186   6.640  0.1111  0.3687 -0.1074
 1196ERGO    R516292  12.454   9.286   6.606  0.2925  0.0303 -0.1340
 1196ERGO    C116293  12.499   9.184   6.971  0.0410  0.1893 -0.0556
 1196ERGO    C216294  12.687   9.189   7.206 -0.0990 -0.1102 -0.0037
 1197ERGO   ROH16295  10.292   9.866   6.185  0.0181  0.2583  0.0093
 1197ERGO    R116296  10.412  10.013   6.395 -0.0502  0.0308  0.2145
 1197ERGO    R216297  10.333   9.989   6.659 -0.0857 -0.3172  0.1812
 1197ERGO    R316298  10.597   9.938   6.699 -0.0798 -0.3057  0.1510
 1197ERGO    R416299  10.510  10.080   6.941  0.0057 -0.1135  0.0592
 1197ERGO    R516300  10.678  10.133   6.812 -0.0288 -0.2288 -0.0246
 1197ERGO    C116301  10.861  10.086   7.143  0.0645  0.0159 -0.0402
 1197ERGO    C216302  11.043   9.937   7.364 -0.1179  0.1220  0.3075
 1198ERGO   ROH16303  10.815   0.180   6.208 -0.0048  0.3299 -0.0773
 1198ERGO    R116304  10.699   0.304   6.435  0.0541  0.2893 -0.0243
 1198ERGO    R216305  10.843   0.365   6.662  0.0861  0.1355 -0.0028
 1198ERGO    R316306  10.745   0.614   6.619  0.1926  0.1959  0.1002
 1198ERGO    R416307  10.760   0.589   6.911  0.1375  0.0498  0.0923
 1198ERGO    R516308  10.585   0.646   6.794  0.1777  0.1757  0.0907
 1198ERGO    C116309  10.619   0.955   7.016  0.2675  0.0567  0.2444
 1198ERGO    C216310  10.377   1.158   7.244 -0.0142  0.0740  0.4057
 1199ERGO   ROH16311   3.610  10.941   8.919  0.3822  0.0471  0.1627
 1199ERGO    R116312   3.722  10.856   8.674  0.1504  0.0165  0.0636
 1199ERGO    R216313   3.580  10.708   8.488 -0.0483  0.0425  0.1841
 1199ERGO    R316314   3.654  10.908   8.320 -0.1495  0.0271  0.1218
 1199ERGO    R416315   3.665  10.666   8.156 -0.0646  0.0007  0.1857
 1199ERGO    R516316   3.825  10.811   8.183 -0.1268  0.0701  0.1283
 1199ERGO    C116317   3.784  10.829   7.804 -0.1692 -0.0382  0.1281
 1199ERGO    C216318   3.644  10.677   7.510 -0.0852 -0.3599  0.0236
 1200ERGO   ROH16319   5.755   7.749   9.349  0.0356  0.0711  0.0211
 1200ERGO    R116320   5.787   7.557   9.144 -0.1614 -0.0690  0.1203
 1200ERGO    R216321   5.597   7.363   9.091 -0.4856  0.2662  0.0530
 1200ERGO    R316322   5.611   7.465   8.839 -0.0997  0.1433  0.0156
 1200ERGO    R416323   5.452   7.219   8.812 -0.7228  0.5056  0.0465
 1200ERGO    R516324   5.631   7.272   8.698 -0.5131  0.0154  0.1076
 1200ERGO    C116325   5.381   7.230   8.413 -0.4986  0.5297  0.0077
 1200ERGO    C216326   5.304   7.204   8.048 -0.1048 -0.1253  0.4807
 1201ERGO   ROH16327  16.520   2.093   9.437  0.0601  0.1767 -0.0418
 1201ERGO    R116328  16.482   2.024   9.166 -0.1972 -0.0018  0.0343
 1201ERGO    R216329  16.253   2.089   9.026 -0.1053  0.4137  0.0529
 1201ERGO    R316330  16.429   2.202   8.852  0.1201 -0.1657 -0.1145
 1201ERGO    R416331  16.181   2.174   8.699 -0.0628  0.4667  0.0580
 1201ERGO    R516332  16.378   2.100   8.641 -0.2991 -0.1259 -0.0348
 1201ERGO    C116333  16.305   2.329   8.345  0.1737 -0.0464 -0.0961
 1201ERGO    C216334  16.329   2.414   8.021  0.2314 -0.2665  0.0323
 1202ERGO   ROH16335  11.717  13.625   9.606  0.2905  0.2850 -0.1882
 1202ERGO    R116336  11.622  13.697   9.350  0.0127  0.1293 -0.1323
 1202ERGO    R216337  11.783  13.696   9.125 -0.1537  0.2733 -0.2563
 1202ERGO    R316338  11.588  13.535   9.026 -0.0473  0.0296 -0.0760
 1202ERGO    R416339  11.780  13.561   8.807 -0.1698  0.0747 -0.1726
 1202ERGO    R516340  11.567  13.600   8.797 -0.2096 -0.1316 -0.1065
 1202ERGO    C116341  11.595  13.330   8.529 -0.0790 -0.2699  0.0454
 1202ERGO    C216342  11.492  13.341   8.179 -0.2000 -0.0126 -0.0636
 1203ERGO   ROH16343   2.476   7.611   8.902  0.0708 -0.2671  0.0144
 1203ERGO    R116344   2.404   7.573   8.631 -0.0101 -0.1105  0.0119
 1203ERGO    R216345   2.198   7.712   8.511 -0.0018  0.0143  0.1307
 1203ERGO    R316346   2.390   7.777   8.330 -0.0246  0.0461  0.1190
 1203ERGO    R416347   2.139   7.782   8.177 -0.0122 -0.1225  0.1038
 1203ERGO    R516348   2.320   7.670   8.127  0.0405 -0.0511  0.1509
 1203ERGO    C116349   2.286   7.883   7.813 -0.0397 -0.1723  0.0772
 1203ERGO    C216350   2.420   7.999   7.484  0.2677 -0.2656  0.4202
 1204ERGO   ROH16351   9.126  14.416   9.369 -0.0152 -0.0504 -0.1446
 1204ERGO    R116352   9.061  14.387   9.095 -0.0899 -0.2717 -0.1052
 1204ERGO    R216353   8.813  14.300   9.010 -0.3063  0.1844  0.0312
 1204ERGO    R316354   8.817  14.530   8.865  0.2261 -0.0079 -0.2867
 1204ERGO    R416355   8.681  14.336   8.692 -0.4466  0.0942  0.0783
 1204ERGO    R516356   8.854  14.458   8.640 -0.1301 -0.4384 -0.2253
 1204ERGO    C116357   8.609  14.573   8.372 -0.0286 -0.1390 -0.1928
 1204ERGO    C216358   8.403  14.507   8.118  0.1788  0.0789 -0.3033
 1205ERGO   ROH16359   1.465   3.437   9.274  0.0776  0.0753  0.0439
 1205ERGO    R116360   1.316   3.347   9.051  0.1041 -0.1361  0.1089
 1205ERGO    R216361   1.227   3.519   8.853 -0.1791 -0.2673  0.1192
 1205ERGO    R316362   1.357   3.345   8.690 -0.0240 -0.1295  0.0934
 1205ERGO    R416363   1.211   3.521   8.508 -0.1646 -0.2120  0.1190
 1205ERGO    R516364   1.203   3.304   8.511  0.0163 -0.2226  0.0777
 1205ERGO    C116365   1.324   3.359   8.153 -0.0106 -0.0503  0.0947
 1205ERGO    C216366   1.312   3.288   7.809 -0.0485  0.0435 -0.2241
 1206ERGO   ROH16367   6.279   4.065   6.169 -0.0053 -0.0503 -0.1504
 1206ERGO    R116368   6.275   3.783   6.184 -0.1067 -0.0429  0.0115
 1206ERGO    R216369   6.464   3.625   6.058 -0.2733 -0.1911 -0.0625
 1206ERGO    R316370   6.497   3.521   6.307 -0.1046 -0.0594 -0.0288
 1206ERGO    R416371   6.573   3.304   6.124 -0.4037 -0.2162  0.0307
 1206ERGO    R516372   6.426   3.293   6.285 -0.2611 -0.0312  0.1749
 1206ERGO    C116373   6.667   3.019   6.396 -0.3213 -0.1071  0.1166
 1206ERGO    C216374   6.761   2.818   6.522  0.3293 -0.0737  0.0119
 1207ERGO   ROH16375  11.019  14.826   9.233 -0.1264 -0.1518  0.1294
 1207ERGO    R116376  10.973  14.724   8.973 -0.2345 -0.0643  0.1141
 1207ERGO    R216377  10.759  14.806   8.816 -0.0275  0.3519  0.0406
 1207ERGO    R316378  10.955  14.860   8.636  0.1438 -0.0252  0.1044
 1207ERGO    R416379  10.724  14.786   8.473  0.1795 -0.0141  0.0354
 1207ERGO    R516380  10.923  14.699   8.462  0.1185 -0.2038  0.2668
 1207ERGO    C116381  10.888  14.825   8.104  0.4607 -0.5812  0.0924
 1207ERGO    C216382  10.878  14.818   7.760  0.0838 -0.0470 -0.0144
 1208ERGO   ROH16383   3.530   0.088   5.916 -0.0516 -0.1362 -0.0194
 1208ERGO    R116384   3.447  -0.129   6.078 -0.1126 -0.2008 -0.1335
 1208ERGO    R216385   3.449  -0.118   6.354  0.1304 -0.4346 -0.1145
 1208ERGO    R316386   3.188  -0.190   6.326  0.0381 -0.1677  0.0315
 1208ERGO    R416387   3.266  -0.292   6.590  0.0661 -0.2134 -0.0018
 1208ERGO    R516388   3.175  -0.406   6.428 -0.1380 -0.1393  0.0628
 1208ERGO    C116389   2.914  -0.460   6.701 -0.0579  0.1658  0.2009
 1208ERGO    C216390   2.754  -0.432   6.965  0.3083  0.0727 -0.1111
 1209ERGO   ROH16391  11.417   2.314   9.359 -0.0260  0.0982 -0.0916
 1209ERGO    R116392  11.408   2.205   9.098  0.0214  0.0709 -0.0826
 1209ERGO    R216393  11.394   2.363   8.872  0.0033  0.0472 -0.1012
 1209ERGO    R316394  11.613   2.221   8.798  0.0437  0.0917 -0.0655
 1209ERGO    R416395  11.505   2.327   8.547 -0.0410 -0.0861 -0.1019
 1209ERGO    R516396  11.551   2.118   8.590  0.0466 -0.0438  0.0015
 1209ERGO    C116397  11.777   2.173   8.288 -0.0289 -0.1219 -0.0687
 1209ERGO    C216398  11.984   1.937   8.160  0.0238 -0.2810  0.2285
 1210ERGO   ROH16399  13.451   2.641   5.627  0.2189 -0.1265 -0.1181
 1210ERGO    R116400  13.599   2.678   5.866  0.2097 -0.3118 -0.0824
 1210ERGO    R216401  13.526   2.862   6.059  0.5177 -0.0510 -0.2057
 1210ERGO    R316402  13.536   2.646   6.223 -0.0002  0.0027 -0.0867
 1210ERGO    R416403  13.587   2.874   6.399  0.5725 -0.0090 -0.2170
 1210ERGO    R516404  13.711   2.697   6.378  0.1441 -0.3347 -0.1301
 1210ERGO    C116405  13.632   2.678   6.751  0.1181  0.0657 -0.1119
 1210ERGO    C216406  13.476   2.878   7.038  0.0329 -0.1312 -0.1027
 1211ERGO   ROH16407  17.581  17.355   9.049  0.0153  0.0794  0.0258
 1211ERGO    R116408  17.498  17.154   8.868  0.1083  0.0860 -0.0255
 1211ERGO    R216409  17.240  17.141   8.767  0.0970 -0.0388  0.0118
 1211ERGO    R316410  17.369  17.142   8.528  0.0606  0.1187 -0.0081
 1211ERGO    R416411  17.109  17.022   8.471  0.1071  0.0326 -0.0210
 1211ERGO    R516412  17.303  16.937   8.424  0.1347  0.1368 -0.0868
 1211ERGO    C116413  17.153  16.954   8.073  0.0786  0.2219 -0.0586
 1211ERGO    C216414  17.024  17.073   7.744 -0.1549  0.0258 -0.1158
 1212ERGO   ROH16415  17.342  17.297   5.926  0.0047 -0.0860  0.2441
 1212ERGO    R116416  17.160  17.464   6.066 -0.0772 -0.1386  0.2035
 1212ERGO    R216417  17.128  17.453   6.341  0.0968  0.0753  0.2394
 1212ERGO    R316418  17.180  17.719   6.324 -0.1690  0.1131 -0.0351
 1212ERGO    R416419  16.995  17.694   6.549  0.0792  0.1239  0.1695
 1212ERGO    R516420  16.972  17.824   6.376 -0.2153 -0.0401  0.0833
 1212ERGO    C116421  16.967  18.085   6.655 -0.1807  0.1880 -0.1290
 1212ERGO    C216422  16.918  18.194   6.991 -0.2259 -0.1363  0.4540
 1213ERGO   ROH16423  14.706  16.304   5.626 -0.1876  0.1500  0.0596
 1213ERGO    R116424  14.613  16.191   5.868 -0.1837  0.1328  0.0531
 1213ERGO    R216425  14.755  16.208   6.104 -0.0014 -0.2009 -0.0266
 1213ERGO    R316426  14.523  16.313   6.199  0.1990  0.0647  0.1881
 1213ERGO    R416427  14.650  16.189   6.433  0.1349 -0.3563  0.0091
 1213ERGO    R516428  14.447  16.152   6.360  0.0377  0.0197  0.0707
 1213ERGO    C116429  14.370  16.275   6.713  0.4025 -0.1974  0.2315
 1213ERGO    C216430  14.359  16.162   7.077 -0.1666  0.0597 -0.0706
 1214ERGO   ROH16431   8.801   3.200   6.121 -0.1790  0.0935 -0.1902
 1214ERGO    R116432   8.878   3.240   6.390 -0.1343  0.1395 -0.2097
 1214ERGO    R216433   8.695   3.298   6.590 -0.1228  0.0014 -0.1585
 1214ERGO    R316434   8.808   3.083   6.711  0.0660  0.0777 -0.1947
 1214ERGO    R416435   8.773   3.280   6.926 -0.3229 -0.0678 -0.1146
 1214ERGO    R516436   8.958   3.178   6.872 -0.1557  0.1877 -0.0468
 1214ERGO    C116437   8.924   3.066   7.236 -0.2620 -0.0364 -0.1231
 1214ERGO    C216438   8.986   3.084   7.538 -0.0861 -0.2406 -0.0072
 1215ERGO   ROH16439  10.257  11.777   9.541 -0.0118  0.1625 -0.1750
 1215ERGO    R116440  10.397  11.651   9.330  0.0370  0.1310 -0.1245
 1215ERGO    R216441  10.316  11.410   9.220  0.1483  0.0351 -0.0061
 1215ERGO    R316442  10.324  11.551   8.987  0.0614 -0.0674 -0.0721
 1215ERGO    R416443  10.273  11.274   8.905  0.2050 -0.1252  0.0545
 1215ERGO    R516444  10.433  11.404   8.833  0.1297 -0.0759 -0.0118
 1215ERGO    C116445  10.256  11.327   8.504  0.1565 -0.3149  0.0279
 1215ERGO    C216446  10.076  11.440   8.218 -0.0824  0.3054 -0.2046
 1216ERGO   ROH16447   3.129   2.966   9.111 -0.0636 -0.0673  0.0045
 1216ERGO    R116448   3.256   2.995   8.859 -0.0806  0.2259  0.0251
 1216ERGO    R216449   3.238   2.803   8.660  0.3876  0.1746  0.0196
 1216ERGO    R316450   3.152   3.013   8.511 -0.0726 -0.0089  0.0081
 1216ERGO    R416451   3.241   2.815   8.315  0.3238  0.1465  0.0182
 1216ERGO    R516452   3.305   3.023   8.328 -0.1049  0.2923 -0.0093
 1216ERGO    C116453   3.162   3.020   7.974 -0.1453 -0.0421  0.0066
 1216ERGO    C216454   3.008   3.022   7.698  0.1284 -0.0432  0.3390
 1217ERGO   ROH16455   2.797   9.100   5.696 -0.0994  0.1572  0.1188
 1217ERGO    R116456   2.712   9.167   5.957 -0.1511  0.0911  0.1183
 1217ERGO    R216457   2.574   8.989   6.119  0.0738 -0.0506  0.1533
 1217ERGO    R316458   2.774   9.046   6.295  0.0277  0.2073  0.1287
 1217ERGO    R416459   2.574   8.902   6.454  0.3028 -0.2125  0.1143
 1217ERGO    R516460   2.661   9.096   6.500 -0.0134 -0.0795  0.1827
 1217ERGO    C116461   2.762   8.904   6.813  0.3927 -0.0648  0.0685
 1217ERGO    C216462   2.952   8.674   7.134 -0.2307 -0.1646  0.1874
 1218ERGO   ROH16463  11.979  14.281   6.037  0.3616  0.0730  0.0246
 1218ERGO    R116464  11.889  14.034   6.141  0.1476  0.1374 -0.0072
 1218ERGO    R216465  12.012  13.908   6.353  0.0356  0.0078 -0.0265
 1218ERGO    R316466  11.762  13.911   6.460  0.0362  0.2014 -0.0239
 1218ERGO    R416467  11.902  13.696   6.603 -0.2268 -0.1724 -0.2875
 1218ERGO    R516468  11.711  13.680   6.498 -0.2592  0.2058 -0.3152
 1218ERGO    C116469  11.602  13.576   6.848 -0.3793 -0.0956 -0.4370
 1218ERGO    C216470  11.749  13.463   7.122 -0.1082  0.4791 -0.1221
 1219ERGO   ROH16471  10.183  18.149   8.578  0.1976  0.2925 -0.0520
 1219ERGO    R116472  10.145  18.173   8.299  0.2645  0.0367 -0.0865
 1219ERGO    R216473  10.228  17.980   8.120 -0.0351 -0.3164  0.1363
 1219ERGO    R316474   9.968  17.989   8.039 -0.0197  0.0227  0.1129
 1219ERGO    R416475  10.113  17.880   7.809 -0.1378 -0.1208  0.1101
 1219ERGO    R516476   9.980  18.051   7.808  0.0773  0.0474  0.1259
 1219ERGO    C116477   9.803  17.830   7.553 -0.1831  0.3110  0.0729
 1219ERGO    C216478   9.755  17.565   7.327 -0.1329 -0.0663 -0.0818
 1220ERGO   ROH16479  12.534   2.945   5.999  0.0308 -0.0569 -0.1543
 1220ERGO    R116480  12.475   2.789   6.228  0.1060 -0.0674 -0.1415
 1220ERGO    R216481  12.666   2.720   6.415  0.1429  0.0302 -0.1412
 1220ERGO    R316482  12.491   2.832   6.589  0.0972 -0.0339 -0.1454
 1220ERGO    R416483  12.708   2.731   6.758  0.1177  0.0285 -0.1381
 1220ERGO    R516484  12.496   2.688   6.780  0.1314 -0.0400 -0.1520
 1220ERGO    C116485  12.568   2.844   7.121  0.0604 -0.0326 -0.1402
 1220ERGO    C216486  12.569   2.906   7.450 -0.0887  0.1576 -0.3449
 1221ERGO   ROH16487  18.962  14.507   5.806 -0.0293 -0.0629 -0.0559
 1221ERGO    R116488  18.929  14.392   6.063 -0.1968  0.1029 -0.0000
 1221ERGO    R216489  19.143  14.335   6.228 -0.2676 -0.1833 -0.0001
 1221ERGO    R316490  19.003  14.486   6.406  0.0003  0.1362 -0.0506
 1221ERGO    R416491  19.169  14.309   6.572 -0.0937  0.1107  0.0123
 1221ERGO    R516492  18.953  14.335   6.585 -0.0598  0.3565  0.1219
 1221ERGO    C116493  19.053  14.436   6.939  0.2590  0.5818 -0.0279
 1221ERGO    C216494  19.360  14.340   7.200 -0.1743  0.0848 -0.2245
 1222ERGO   ROH16495   0.607  18.704   5.704 -0.3679 -0.0350  0.0491
 1222ERGO    R116496   0.617  18.544   5.938 -0.1363 -0.0424  0.0371
 1222ERGO    R216497   0.835  18.544   6.108 -0.0762  0.1599 -0.0302
 1222ERGO    R316498   0.647  18.602   6.296 -0.0774 -0.0336  0.0299
 1222ERGO    R416499   0.894  18.559   6.448 -0.0517 -0.0413 -0.0245
 1222ERGO    R516500   0.702  18.461   6.481 -0.0085 -0.1329 -0.0686
 1222ERGO    C116501   0.752  18.623   6.823 -0.0387 -0.3401  0.0351
 1222ERGO    C216502   0.604  18.837   7.078  0.0569  0.1012  0.1993
 1223ERGO   ROH16503   4.038  11.141   5.692 -0.1069  0.0358  0.0861
 1223ERGO    R116504   4.077  11.202   5.966  0.0666  0.0326  0.0636
 1223ERGO    R216505   3.870  11.280   6.132  0.2089  0.2627  0.1409
 1223ERGO    R316506   3.958  11.073   6.285  0.0656  0.1908  0.1270
 1223ERGO    R416507   3.834  11.258   6.475  0.1866  0.2536  0.1378
 1223ERGO    R516508   4.035  11.177   6.486  0.1293  0.1184  0.1374
 1223ERGO    C116509   3.895  11.052   6.818  0.0391  0.1808  0.1230
 1223ERGO    C216510   3.828  10.934   7.115  0.1552 -0.0674  0.1851
 1224ERGO   ROH16511   4.257   2.987   9.087  0.0865 -0.1825 -0.2979
 1224ERGO    R116512   4.368   2.884   8.848  0.0318 -0.1306 -0.3463
 1224ERGO    R216513   4.242   2.908   8.603  0.0374  0.0399 -0.3357
 1224ERGO    R316514   4.479   3.019   8.529  0.0905 -0.0408 -0.2884
 1224ERGO    R416515   4.365   2.912   8.280  0.1574 -0.1005 -0.2929
 1224ERGO    R516516   4.563   2.871   8.360  0.1184 -0.1186 -0.2060
 1224ERGO    C116517   4.658   3.020   8.022  0.2770 -0.2581 -0.2234
 1224ERGO    C216518   4.687   3.021   7.675  0.0037  0.1526  0.0244
 1225ERGO   ROH16519  18.908   5.393   5.304  0.2481  0.0909 -0.0558
 1225ERGO    R116520  18.993   5.294   5.555  0.1175  0.0519 -0.0252
 1225ERGO    R216521  19.245   5.342   5.657  0.0795  0.0082  0.1008
 1225ERGO    R316522  19.105   5.434   5.871 -0.0128  0.0044  0.0420
 1225ERGO    R416523  19.334   5.292   5.987 -0.1665 -0.1611  0.1425
 1225ERGO    R516524  19.123   5.259   6.033 -0.2151 -0.0647 -0.0089
 1225ERGO    C116525  19.254   5.348   6.380 -0.3962 -0.2633  0.1116
 1225ERGO    C216526  19.192   5.672   6.627  0.1193 -0.0444 -0.4108
 1226ERGO   ROH16527  17.070  16.145   6.609 -0.1421 -0.1270  0.2151
 1226ERGO    R116528  17.233  15.999   6.788  0.0052 -0.0976  0.1067
 1226ERGO    R216529  17.461  15.865   6.707  0.0145  0.0010 -0.0339
 1226ERGO    R316530  17.579  16.013   6.902  0.0596  0.0118 -0.0688
 1226ERGO    R416531  17.744  15.772   6.883  0.0170 -0.0156 -0.0457
 1226ERGO    R516532  17.652  15.852   7.063  0.0494  0.0273 -0.0502
 1226ERGO    C116533  18.019  15.857   7.168  0.0605 -0.0153 -0.0854
 1226ERGO    C216534  18.110  15.782   7.536  0.1076 -0.1928  0.1601
 1227ERGO   ROH16535  15.284  17.659   9.244 -0.1263 -0.1142 -0.0322
 1227ERGO    R116536  15.257  17.799   9.000 -0.1413 -0.0780 -0.0089
 1227ERGO    R216537  15.465  17.939   8.884 -0.1902  0.0541  0.0729
 1227ERGO    R316538  15.407  17.784   8.669 -0.0553  0.0721  0.0210
 1227ERGO    R416539  15.592  17.987   8.566 -0.1318  0.2020  0.1164
 1227ERGO    R516540  15.395  17.938   8.486 -0.0911  0.1153  0.0547
 1227ERGO    C116541  15.611  17.869   8.179  0.0288  0.3051  0.0931
 1227ERGO    C216542  15.579  17.822   7.804 -0.0553 -0.1259 -0.2079
 1228ERGO   ROH16543  15.921  14.689   9.447  0.1937 -0.2763  0.1444
 1228ERGO    R116544  15.938  14.720   9.166  0.0355 -0.2265  0.1392
 1228ERGO    R216545  16.178  14.712   9.029 -0.0140  0.0347  0.0277
 1228ERGO    R316546  16.052  14.519   8.885  0.1150 -0.0796  0.0668
 1228ERGO    R416547  16.215  14.665   8.689 -0.1212  0.0979  0.0070
 1228ERGO    R516548  16.001  14.625   8.676 -0.0856 -0.1159  0.0989
 1228ERGO    C116549  16.118  14.457   8.355 -0.0626  0.0273  0.0317
 1228ERGO    C216550  16.264  14.498   8.116  0.1188 -0.5838  0.0576
 1229ERGO   ROH16551  10.949  16.204   5.627 -0.1426 -0.1323 -0.1112
 1229ERGO    R116552  11.068  16.346   5.841 -0.0869 -0.0546 -0.1922
 1229ERGO    R216553  10.920  16.463   6.043 -0.0299 -0.0790 -0.1338
 1229ERGO    R316554  11.082  16.315   6.204  0.1070  0.0049 -0.1934
 1229ERGO    R416555  11.000  16.541   6.370 -0.0085 -0.0776 -0.1397
 1229ERGO    R516556  11.204  16.476   6.331  0.0266  0.0668 -0.1957
 1229ERGO    C116557  11.198  16.447   6.711  0.1326  0.0018 -0.1992
 1229ERGO    C216558  11.250  16.244   7.012 -0.0797 -0.1561  0.2669
 1230ERGO   ROH16559   2.360   1.978   5.777  0.0538 -0.1173  0.0074
 1230ERGO    R116560   2.225   2.088   6.000 -0.0356  0.0563 -0.1295
 1230ERGO    R216561   2.344   2.113   6.248 -0.3201 -0.3164  0.0581
 1230ERGO    R316562   2.269   2.374   6.221  0.2595 -0.1351  0.0650
 1230ERGO    R416563   2.208   2.306   6.501 -0.6470 -0.2780 -0.1409
 1230ERGO    R516564   2.070   2.392   6.354 -0.0903  0.1285 -0.4616
 1230ERGO    C116565   2.059   2.662   6.623 -0.2933 -0.0854 -0.2502
 1230ERGO    C216566   1.948   2.636   6.952  0.0498  0.3036 -0.1569
 1231ERGO   ROH16567  14.089   6.416   5.987 -0.0112  0.1731 -0.1168
 1231ERGO    R116568  14.052   6.393   6.267  0.0252  0.0023 -0.1247
 1231ERGO    R216569  14.085   6.606   6.439  0.1569 -0.1285  0.0145
 1231ERGO    R316570  13.833   6.542   6.518  0.1383 -0.0603  0.0122
 1231ERGO    R416571  13.956   6.665   6.754  0.2156 -0.2212  0.0567
 1231ERGO    R516572  13.859   6.470   6.745  0.1335 -0.1770 -0.0236
 1231ERGO    C116573  13.644   6.639   7.011  0.2323 -0.2112  0.0790
 1231ERGO    C216574  13.470   6.650   7.345  0.2930 -0.3610 -0.0860
 1232ERGO   ROH16575  14.211  12.182   5.540  0.2357  0.0090  0.0181
 1232ERGO    R116576  14.235  12.265   5.810  0.2571 -0.2234  0.0891
 1232ERGO    R216577  14.019  12.347   5.961  0.3258  0.0352  0.0422
 1232ERGO    R316578  14.108  12.157   6.133 -0.0735 -0.2414 -0.0418
 1232ERGO    R416579  13.938  12.332   6.296  0.3624  0.1192  0.0559
 1232ERGO    R516580  14.145  12.275   6.338  0.2547 -0.3827 -0.0088
 1232ERGO    C116581  13.975  12.145   6.654  0.0090 -0.0915 -0.0148
 1232ERGO    C216582  13.719  12.232   6.950  0.1720 -0.2855  0.0711
 1233ERGO   ROH16583   6.358   2.095   8.971 -0.3396  0.1006  0.0104
 1233ERGO    R116584   6.400   2.353   8.861 -0.3432  0.0901 -0.0128
 1233ERGO    R216585   6.620   2.414   8.705 -0.2352  0.1336  0.1627
 1233ERGO    R316586   6.431   2.496   8.528 -0.1139  0.0276 -0.0222
 1233ERGO    R416587   6.681   2.609   8.426  0.0336 -0.3809 -0.1554
 1233ERGO    R516588   6.497   2.718   8.468  0.1217 -0.1252 -0.3758
 1233ERGO    C116589   6.538   2.799   8.098  0.3039 -0.7800 -0.5143
 1233ERGO    C216590   6.491   2.602   7.766  0.2521 -0.1010  0.0338
 1234ERGO   ROH16591   9.768   6.952   5.920 -0.0118  0.0339 -0.1937
 1234ERGO    R116592   9.805   7.110   6.152  0.0788  0.0844 -0.2401
 1234ERGO    R216593   9.715   7.371   6.170  0.0483  0.0803 -0.2453
 1234ERGO    R316594   9.590   7.278   6.393  0.1695  0.0987 -0.1710
 1234ERGO    R416595   9.605   7.568   6.432  0.0396  0.1126 -0.2748
 1234ERGO    R516596   9.675   7.416   6.570  0.1591  0.1980 -0.2475
 1234ERGO    C116597   9.424   7.597   6.793  0.1482  0.1487 -0.2223
 1234ERGO    C216598   9.184   7.785   7.035  0.1816 -0.0602  0.3772
 1235ERGO   ROH16599   9.923   8.813   6.328 -0.0334  0.1060 -0.1049
 1235ERGO    R116600   9.874   8.947   6.573  0.0362  0.1591 -0.1209
 1235ERGO    R216601   9.909   8.825   6.819  0.0411  0.1937 -0.1110
 1235ERGO    R316602  10.067   9.040   6.867  0.1004  0.1629 -0.1623
 1235ERGO    R416603  10.028   8.919   7.129  0.1042  0.1993 -0.1357
 1235ERGO    R516604   9.991   9.126   7.076  0.1452  0.2065 -0.1589
 1235ERGO    C116605  10.247   9.176   7.354  0.1968  0.1736 -0.1982
 1235ERGO    C216606  10.382   9.372   7.669 -0.2643 -0.2034  0.3787
 1236ERGO   ROH16607  18.578  13.691   5.749  0.1485  0.3616  0.0751
 1236ERGO    R116608  18.537  13.742   6.024 -0.0393  0.2692  0.0657
 1236ERGO    R216609  18.318  13.646   6.162 -0.0080  0.0134 -0.0577
 1236ERGO    R316610  18.508  13.544   6.328  0.0199  0.1816  0.0149
 1236ERGO    R416611  18.254  13.451   6.440  0.0568 -0.0391 -0.0794
 1236ERGO    R516612  18.410  13.559   6.546 -0.0761  0.1003 -0.0216
 1236ERGO    C116613  18.394  13.242   6.758  0.1208  0.0880 -0.0238
 1236ERGO    C216614  18.289  12.940   7.043 -0.0917  0.0545 -0.2250
 1237ERGO   ROH16615  16.588  16.847   9.591 -0.1082 -0.1315 -0.0139
 1237ERGO    R116616  16.719  16.960   9.367 -0.1755  0.1513  0.0851
 1237ERGO    R216617  16.763  16.819   9.133  0.3038  0.2351  0.1126
 1237ERGO    R316618  16.635  17.030   9.019 -0.0713 -0.0289  0.0229
 1237ERGO    R416619  16.742  16.877   8.793  0.3298  0.1408  0.0945
 1237ERGO    R516620  16.774  17.089   8.833 -0.1060  0.2156  0.0730
 1237ERGO    C116621  16.611  17.109   8.488 -0.0074 -0.1619 -0.0003
 1237ERGO    C216622  16.694  16.935   8.178 -0.0179 -0.0031  0.0213
 1238ERGO   ROH16623  11.116   2.307   5.967  0.0403  0.1132 -0.1446
 1238ERGO    R116624  11.208   2.313   6.234  0.0344  0.0486 -0.1407
 1238ERGO    R216625  11.107   2.488   6.423  0.1294  0.1018 -0.1366
 1238ERGO    R316626  11.065   2.260   6.565 -0.0099  0.1196 -0.1488
 1238ERGO    R416627  11.183   2.446   6.758 -0.0541  0.0890 -0.0958
 1238ERGO    R516628  11.253   2.246   6.712 -0.0901  0.0679 -0.0518
 1238ERGO    C116629  11.187   2.208   7.085 -0.2918  0.0982 -0.0835
 1238ERGO    C216630  11.250   2.188   7.443  0.0752 -0.4603 -0.1981
 1239ERGO   ROH16631   0.847   1.848   9.115  0.0455 -0.1875 -0.2336
 1239ERGO    R116632   0.927   2.000   8.891 -0.0003 -0.0639 -0.1667
 1239ERGO    R216633   1.121   1.915   8.714  0.0623  0.0973 -0.1740
 1239ERGO    R316634   0.927   1.958   8.529  0.0662  0.0734 -0.1843
 1239ERGO    R416635   1.178   1.966   8.377  0.0673 -0.0749 -0.2005
 1239ERGO    R516636   1.022   2.118   8.379  0.1131 -0.0228 -0.2624
 1239ERGO    C116637   1.028   2.036   8.007  0.0739 -0.1976 -0.2255
 1239ERGO    C216638   1.027   1.940   7.530 -0.5015  0.0076 -0.0140
 1240ERGO   ROH16639  15.477   8.557   5.333 -0.0397 -0.0159  0.1785
 1240ERGO    R116640  15.448   8.565   5.614 -0.0994  0.0386  0.1705
 1240ERGO    R216641  15.203   8.596   5.738 -0.1649 -0.2564  0.1151
 1240ERGO    R316642  15.277   8.369   5.868  0.1244 -0.1153  0.2067
 1240ERGO    R416643  15.134   8.527   6.070 -0.2938 -0.3064  0.0789
 1240ERGO    R516644  15.334   8.443   6.089 -0.1567  0.0285  0.2388
 1240ERGO    C116645  15.163   8.274   6.385 -0.0974 -0.2032  0.1438
 1240ERGO    C216646  15.182   8.355   6.750  0.2259  0.0539  0.0091
 1241ERGO   ROH16647   5.678  13.492   9.662 -0.1692 -0.1973 -0.0505
 1241ERGO    R116648   5.769  13.562   9.403 -0.3541 -0.0010 -0.0655
 1241ERGO    R216649   5.940  13.402   9.257  0.0728  0.4086 -0.0422
 1241ERGO    R316650   5.746  13.422   9.068 -0.0010 -0.1309 -0.0389
 1241ERGO    R416651   5.993  13.382   8.916  0.1332  0.5971 -0.0446
 1241ERGO    R516652   5.849  13.543   8.889 -0.3436  0.1960 -0.0263
 1241ERGO    C116653   5.842  13.389   8.540  0.0989  0.2003 -0.0432
 1241ERGO    C216654   5.825  13.238   8.160  0.1708  0.0838  0.1315
 1242ERGO   ROH16655   1.670  11.640   8.924  0.1370 -0.1762  0.0156
 1242ERGO    R116656   1.841  11.608   8.700  0.1069  0.1086 -0.0518
 1242ERGO    R216657   1.844  11.377   8.547  0.4814  0.0805 -0.0061
 1242ERGO    R316658   1.800  11.551   8.343  0.0589 -0.0365 -0.0248
 1242ERGO    R416659   1.883  11.303   8.212  0.6528  0.1266  0.0025
 1242ERGO    R516660   1.970  11.500   8.184  0.1888  0.3462 -0.0215
 1242ERGO    C116661   1.864  11.424   7.825  0.3561  0.0437 -0.0101
 1242ERGO    C216662   1.897  11.227   7.540  0.0326 -0.1616 -0.0625
 1243ERGO   ROH16663  15.873  17.930   5.758  0.0560  0.1424 -0.0088
 1243ERGO    R116664  15.676  18.070   5.905 -0.0061 -0.0252  0.0688
 1243ERGO    R216665  15.540  17.955   6.116  0.1870 -0.1363  0.1351
 1243ERGO    R316666  15.628  18.174   6.251  0.0500 -0.0481  0.0839
 1243ERGO    R416667  15.379  18.098   6.387 -0.0424 -0.0146 -0.0614
 1243ERGO    R516668  15.428  18.295   6.306 -0.0133 -0.0500 -0.1324
 1243ERGO    C116669  15.369  18.387   6.671 -0.3045  0.1393 -0.2240
 1243ERGO    C216670  15.262  18.329   7.055  0.0511  0.0209  0.0906
 1244ERGO   ROH16671  18.837   8.917   9.114 -0.0186 -0.0265  0.1781
 1244ERGO    R116672  18.708   8.987   8.872  0.1443  0.0893  0.1217
 1244ERGO    R216673  18.838   9.120   8.668  0.3932 -0.1447  0.1137
 1244ERGO    R316674  18.749   8.911   8.519  0.1396 -0.0702  0.1569
 1244ERGO    R416675  18.931   9.056   8.341  0.4625 -0.4364  0.1891
 1244ERGO    R516676  18.725   9.000   8.298  0.3969 -0.1278  0.1067
 1244ERGO    C116677  18.903   8.822   8.012  0.2649 -0.5361  0.2735
 1244ERGO    C216678  19.039   8.914   7.736  0.0584  0.0819 -0.1814
 1245ERGO   ROH16679   5.044  14.948   9.403 -0.2310  0.0787 -0.0857
 1245ERGO    R116680   5.098  15.017   9.134 -0.3400  0.0844 -0.1068
 1245ERGO    R216681   5.289  14.885   8.982 -0.1175  0.3462 -0.0607
 1245ERGO    R316682   5.081  14.851   8.810 -0.0646 -0.0515 -0.0556
 1245ERGO    R416683   5.318  14.842   8.640 -0.0395  0.5288 -0.0784
 1245ERGO    R516684   5.145  14.970   8.613 -0.3334  0.1661 -0.0194
 1245ERGO    C116685   5.140  14.784   8.280  0.0557  0.2616 -0.0840
 1245ERGO    C216686   4.946  14.691   7.978 -0.0804 -0.3690 -0.1048
 1246ERGO   ROH16687  16.627  13.870   9.248 -0.1279  0.1413 -0.0474
 1246ERGO    R116688  16.710  13.965   8.995  0.2480  0.0548  0.0342
 1246ERGO    R216689  16.917  13.849   8.853  0.0235 -0.4469  0.0655
 1246ERGO    R316690  16.730  13.833   8.657  0.0368  0.1550 -0.0142
 1246ERGO    R416691  16.985  13.809   8.516  0.0063 -0.3705  0.0543
 1246ERGO    R516692  16.826  13.950   8.472  0.3696  0.0515  0.1013
 1246ERGO    C116693  16.849  13.770   8.136  0.0084  0.2391 -0.0271
 1246ERGO    C216694  16.784  13.777   7.865  0.0493  0.3088  0.1019
 1247ERGO   ROH16695   9.276  15.930   9.319  0.0376 -0.0888 -0.1004
 1247ERGO    R116696   9.241  15.808   9.066 -0.0242  0.0437 -0.1568
 1247ERGO    R216697   9.067  15.906   8.876  0.0416  0.2322 -0.1217
 1247ERGO    R316698   9.288  15.903   8.718  0.0471  0.1717 -0.1131
 1247ERGO    R416699   9.069  15.984   8.540  0.0968  0.3565 -0.0932
 1247ERGO    R516700   9.208  15.820   8.508  0.0098  0.2920 -0.1480
 1247ERGO    C116701   9.277  16.027   8.195  0.1339  0.3721 -0.0685
 1247ERGO    C216702   9.439  16.097   8.034 -0.4104  0.2633  0.2732
 1248ERGO   ROH16703  13.910  17.142   9.347 -0.0414 -0.2421  0.1072
 1248ERGO    R116704  13.946  17.098   9.070 -0.1182 -0.0788  0.0711
 1248ERGO    R216705  13.740  17.122   8.888 -0.1588  0.0595  0.1407
 1248ERGO    R316706  13.912  17.292   8.764 -0.1688  0.1103  0.1942
 1248ERGO    R416707  13.768  17.160   8.545  0.1235 -0.1366  0.1378
 1248ERGO    R516708  13.984  17.173   8.570  0.0981  0.0364  0.3309
 1248ERGO    C116709  13.945  17.342   8.230  0.2784 -0.2032  0.1861
 1248ERGO    C216710  13.752  17.251   7.908  0.1319 -0.0468 -0.1123
 1249ERGO   ROH16711  17.180   5.849   9.163  0.1953  0.1387  0.0487
 1249ERGO    R116712  17.018   6.011   8.996  0.0458 -0.0456  0.0114
 1249ERGO    R216713  17.123   6.169   8.796 -0.0999 -0.0021 -0.0292
 1249ERGO    R316714  16.946   6.034   8.640  0.0140 -0.1980  0.0065
 1249ERGO    R416715  17.028   6.264   8.478 -0.4570  0.0443  0.0861
 1249ERGO    R516716  16.824   6.206   8.527 -0.3405 -0.3178  0.1872
 1249ERGO    C116717  16.807   6.192   8.146 -0.5578 -0.1126  0.1868
 1249ERGO    C216718  16.835   6.241   7.743  0.0133  0.3793 -0.0850
 1250ERGO   ROH16719  10.986  10.161   9.577 -0.0488  0.3057  0.1897
 1250ERGO    R116720  10.911   9.973   9.379  0.0274  0.2364  0.2268
 1250ERGO    R216721  10.650   9.941   9.295  0.0484  0.1489  0.1981
 1250ERGO    R316722  10.757   9.983   9.049  0.0717  0.1125  0.2014
 1250ERGO    R416723  10.479   9.903   8.997  0.1029  0.0088  0.1832
 1250ERGO    R516724  10.659   9.813   8.912  0.1454  0.0406  0.2354
 1250ERGO    C116725  10.481   9.921   8.592  0.1567 -0.1070  0.1777
 1250ERGO    C216726  10.218  10.001   8.450  0.1007  0.1566  0.0076
 1251ERGO   ROH16727  10.217   5.662   6.266  0.1424 -0.2062  0.0041
 1251ERGO    R116728  10.235   5.599   6.541  0.1162 -0.1664  0.0153
 1251ERGO    R216729  10.450   5.462   6.648  0.1136 -0.1383  0.0585
 1251ERGO    R316730  10.462   5.676   6.815  0.0813 -0.1135  0.0292
 1251ERGO    R416731  10.679   5.499   6.904  0.2426  0.0293 -0.0791
 1251ERGO    R516732  10.520   5.581   7.028  0.2648 -0.0565  0.0059
 1251ERGO    C116733  10.825   5.721   7.210  0.2874  0.1501 -0.1867
 1251ERGO    C216734  11.110   5.904   7.324  0.0712  0.0513  0.0724
 1252ERGO   ROH16735   0.573  16.579   9.277  0.0712 -0.2316  0.1439
 1252ERGO    R116736   0.420  16.529   9.044  0.0525  0.0205  0.0996
 1252ERGO    R216737   0.504  16.605   8.791  0.2507 -0.1097  0.1251
 1252ERGO    R316738   0.463  16.343   8.734 -0.1623 -0.0489  0.1090
 1252ERGO    R416739   0.427  16.480   8.478  0.6151 -0.0112 -0.0088
 1252ERGO    R516740   0.287  16.343   8.573  0.1432  0.2788 -0.2461
 1252ERGO    C116741   0.344  16.161   8.243  0.4397  0.1029 -0.1019
 1252ERGO    C216742   0.231  15.930   8.028 -0.1331 -0.1275  0.0743
 1253ERGO   ROH16743   1.933  10.329   8.920 -0.0837 -0.3267 -0.0175
 1253ERGO    R116744   1.972  10.350   8.641 -0.1052 -0.1447 -0.0081
 1253ERGO    R216745   1.982  10.129   8.475 -0.1514 -0.0361 -0.1576
 1253ERGO    R316746   1.785  10.261   8.341 -0.1442  0.0823 -0.0535
 1253ERGO    R416747   1.982  10.192   8.135 -0.1715  0.1885 -0.1176
 1253ERGO    R516748   1.902  10.390   8.176 -0.1390  0.1746  0.0211
 1253ERGO    C116749   1.798  10.352   7.811 -0.1766  0.4306  0.0033
 1253ERGO    C216750   1.845  10.302   7.493  0.2223 -0.2903  0.1328
 1254ERGO   ROH16751   7.870  11.441   6.293 -0.0847 -0.2434 -0.0857
 1254ERGO    R116752   7.795  11.487   6.561  0.0219 -0.1560 -0.0701
 1254ERGO    R216753   7.609  11.330   6.693 -0.0512 -0.0106  0.0012
 1254ERGO    R316754   7.809  11.304   6.875 -0.0183 -0.1263 -0.0505
 1254ERGO    R416755   7.562  11.276   7.031  0.0039 -0.0178  0.0077
 1254ERGO    R516756   7.726  11.414   7.071  0.0835 -0.1018 -0.0198
 1254ERGO    C116757   7.723  11.220   7.399  0.0670 -0.1306 -0.0370
 1254ERGO    C216758   7.633  11.066   7.771  0.1191 -0.1595 -0.1177
 1255ERGO   ROH16759   7.173   0.883   8.948  0.0232 -0.0362  0.0493
 1255ERGO    R116760   7.209   0.721   8.719  0.1719  0.0518  0.0093
 1255ERGO    R216761   7.029   0.717   8.510  0.0630 -0.2133  0.1054
 1255ERGO    R316762   7.250   0.773   8.362 -0.1002  0.1722 -0.0068
 1255ERGO    R416763   7.046   0.693   8.166 -0.1271  0.0406  0.0743
 1255ERGO    R516764   7.246   0.609   8.187 -0.0003  0.2822 -0.1140
 1255ERGO    C116765   7.263   0.732   7.826 -0.3909  0.5504 -0.0491
 1255ERGO    C216766   7.070   0.822   7.518  0.0907 -0.2921  0.1975
 1256ERGO   ROH16767  17.213   2.735   9.460  0.1546 -0.1072  0.1397
 1256ERGO    R116768  17.280   2.787   9.190 -0.0874  0.0777  0.1113
 1256ERGO    R216769  17.321   2.585   9.006  0.2880  0.1796  0.0734
 1256ERGO    R316770  17.133   2.721   8.864 -0.0998 -0.2266  0.1759
 1256ERGO    R416771  17.288   2.576   8.662  0.2975  0.3196  0.0680
 1256ERGO    R516772  17.247   2.790   8.665 -0.2872  0.2212  0.2123
 1256ERGO    C116773  17.093   2.697   8.329 -0.0608  0.0199  0.1611
 1256ERGO    C216774  17.118   2.616   8.051 -0.2214  0.1402 -0.0302
 1257ERGO   ROH16775   6.166  18.650   9.329  0.1695 -0.0613  0.1018
 1257ERGO    R116776   6.157  18.529   9.074  0.0591  0.0278  0.0628
 1257ERGO    R216777   5.984  18.612   8.875 -0.0869  0.0405  0.1965
 1257ERGO    R316778   6.213  18.633   8.730 -0.1808  0.1691  0.0642
 1257ERGO    R416779   5.997  18.658   8.533 -0.3148  0.0971  0.1939
 1257ERGO    R516780   6.164  18.518   8.525 -0.2504  0.1744  0.0752
 1257ERGO    C116781   6.219  18.704   8.197 -0.5357  0.2507  0.0681
 1257ERGO    C216782   6.244  18.752   7.892  0.3127 -0.0082 -0.0599
 1258ERGO   ROH16783   5.215   0.761   5.506  0.0681 -0.0389 -0.0246
 1258ERGO    R116784   5.201   0.612   5.746 -0.0335  0.0656  0.0335
 1258ERGO    R216785   5.422   0.495   5.863 -0.1184 -0.0486  0.0682
 1258ERGO    R316786   5.342   0.636   6.081 -0.0074  0.0910  0.0227
 1258ERGO    R416787   5.585   0.497   6.168 -0.1842 -0.1968  0.1059
 1258ERGO    R516788   5.390   0.492   6.266 -0.2249  0.0550  0.0610
 1258ERGO    C116789   5.603   0.630   6.550 -0.1182 -0.1521  0.0853
 1258ERGO    C216790   5.592   0.671   6.744 -0.0840  0.1365  0.1490
 1259ERGO   ROH16791   3.571   5.647   5.650 -0.1328  0.2805  0.0582
 1259ERGO    R116792   3.513   5.770   5.898 -0.1446  0.2122  0.0902
 1259ERGO    R216793   3.323   5.671   6.073 -0.1167  0.1315  0.0778
 1259ERGO    R316794   3.530   5.677   6.250 -0.1057  0.1325  0.0680
 1259ERGO    R416795   3.290   5.691   6.417 -0.1046 -0.2177  0.1021
 1259ERGO    R516796   3.458   5.829   6.421 -0.2145 -0.0833  0.2175
 1259ERGO    C116797   3.464   5.708   6.782 -0.0873 -0.4200  0.1071
 1259ERGO    C216798   3.448   5.598   7.048 -0.1295  0.2841 -0.1882
 1260ERGO   ROH16799   2.453   0.708   9.315  0.0600  0.1313 -0.0140
 1260ERGO    R116800   2.501   0.562   9.078  0.0892 -0.0508  0.1030
 1260ERGO    R216801   2.462   0.670   8.826  0.0883 -0.2549  0.0195
 1260ERGO    R316802   2.720   0.593   8.788  0.0992 -0.2553  0.0855
 1260ERGO    R416803   2.591   0.549   8.529  0.2581  0.1540 -0.0808
 1260ERGO    R516804   2.705   0.403   8.643  0.1490 -0.0457 -0.2103
 1260ERGO    C116805   2.908   0.407   8.320  0.3673  0.3918 -0.0773
 1260ERGO    C216806   2.975   0.458   8.001 -0.1388  0.0813 -0.2872
 1261ERGO   ROH16807   6.256   9.917   9.616 -0.1875  0.1835 -0.0552
 1261ERGO    R116808   6.133   9.862   9.368 -0.0917 -0.0641 -0.0509
 1261ERGO    R216809   6.131  10.044   9.159 -0.4313 -0.0743 -0.0591
 1261ERGO    R316810   6.238   9.836   9.020 -0.0423  0.1090 -0.0509
 1261ERGO    R416811   6.134  10.018   8.815 -0.5444 -0.1566 -0.0552
 1261ERGO    R516812   6.088   9.806   8.835 -0.0773 -0.2638  0.0269
 1261ERGO    C116813   6.235   9.808   8.483 -0.2452 -0.0324 -0.0452
 1261ERGO    C216814   6.141   9.745   8.044  0.1212  0.2569 -0.0349
 1262ERGO   ROH16815   5.838  12.414   9.371  0.2838 -0.1339  0.0469
 1262ERGO    R116816   5.761  12.319   9.115  0.3242 -0.3517  0.1134
 1262ERGO    R216817   5.689  12.489   8.909 -0.0565 -0.5366  0.0852
 1262ERGO    R316818   5.882  12.353   8.774  0.1160 -0.2623  0.0473
 1262ERGO    R416819   5.683  12.421   8.570  0.1117 -0.3132  0.0353
 1262ERGO    R516820   5.761  12.223   8.613  0.2882 -0.2697 -0.0781
 1262ERGO    C116821   5.859  12.254   8.246  0.3715  0.0743 -0.0293
 1262ERGO    C216822   6.018  12.307   7.930  0.1188 -0.0228  0.1505
 1263ERGO   ROH16823   8.952   8.418   6.296 -0.2037  0.1265  0.0266
 1263ERGO    R116824   8.939   8.264   6.532 -0.2649  0.0128 -0.0482
 1263ERGO    R216825   9.111   8.302   6.746 -0.1158 -0.2895 -0.0965
 1263ERGO    R316826   8.879   8.326   6.886 -0.0317 -0.1009  0.0106
 1263ERGO    R416827   9.080   8.255   7.087  0.0339 -0.0114 -0.0432
 1263ERGO    R516828   8.891   8.153   7.051 -0.0141  0.0300  0.1386
 1263ERGO    C116829   8.845   8.250   7.417  0.2001  0.3276  0.0884
 1263ERGO    C216830   8.580   8.215   7.729 -0.0101  0.0852 -0.0012
 1264ERGO   ROH16831   0.097  17.632   9.586  0.1965 -0.0941 -0.0905
 1264ERGO    R116832   0.053  17.435   9.387  0.1613 -0.0103 -0.1658
 1264ERGO    R216833  -0.188  17.302   9.361  0.1758 -0.0371 -0.1439
 1264ERGO    R316834  -0.173  17.391   9.105  0.0718  0.0816 -0.1104
 1264ERGO    R416835  -0.272  17.116   9.083  0.2357  0.0254 -0.2045
 1264ERGO    R516836  -0.099  17.200   8.980  0.1665  0.1763 -0.2045
 1264ERGO    C116837  -0.306  17.091   8.679  0.1731  0.1733 -0.2084
 1264ERGO    C216838  -0.396  17.062   8.220  0.2189  0.2106 -0.1807
 1265ERGO   ROH16839  15.685  11.104   5.717 -0.1722 -0.1172 -0.0735
 1265ERGO    R116840  15.574  11.132   5.976 -0.1180 -0.1968 -0.0406
 1265ERGO    R216841  15.495  10.916   6.129  0.0983 -0.2579 -0.0076
 1265ERGO    R316842  15.661  11.028   6.314  0.0688 -0.1192 -0.0643
 1265ERGO    R416843  15.512  10.823   6.461  0.1711 -0.1187  0.0285
 1265ERGO    R516844  15.530  11.034   6.514  0.0892 -0.0939 -0.0550
 1265ERGO    C116845  15.676  10.874   6.828  0.1857  0.0925 -0.0037
 1265ERGO    C216846  15.751  10.608   7.036 -0.4298 -0.1725  0.1361
 1266ERGO   ROH16847   1.551   4.673   8.937 -0.1526 -0.0192  0.0150
 1266ERGO    R116848   1.392   4.704   8.704 -0.1023 -0.1338 -0.0334
 1266ERGO    R216849   1.479   4.844   8.482 -0.1638 -0.0111  0.0315
 1266ERGO    R316850   1.417   4.613   8.353  0.1040 -0.0442 -0.0470
 1266ERGO    R416851   1.429   4.816   8.141 -0.7186  0.2076  0.0829
 1266ERGO    R516852   1.263   4.680   8.182 -0.3710 -0.2029  0.2827
 1266ERGO    C116853   1.342   4.583   7.821 -0.7903  0.3038  0.0391
 1266ERGO    C216854   1.430   4.676   7.575 -0.2342  0.2029  0.2277
 1267ERGO   ROH16855  16.022   4.333   5.496  0.1754  0.0543 -0.0851
 1267ERGO    R116856  16.148   4.406   5.738  0.1733 -0.0157 -0.0622
 1267ERGO    R216857  16.386   4.546   5.746  0.1993 -0.0592 -0.0191
 1267ERGO    R316858  16.244   4.716   5.903  0.2182 -0.0648  0.0035
 1267ERGO    R416859  16.521   4.742   5.996  0.2382 -0.0140 -0.0755
 1267ERGO    R516860  16.347   4.696   6.119  0.2798 -0.0274 -0.0233
 1267ERGO    C116861  16.467   5.016   6.290  0.2786  0.0070 -0.0872
 1267ERGO    C216862  16.635   5.304   6.364  0.0289 -0.0960  0.2224
 1268ERGO   ROH16863   9.567  14.473   9.482  0.0117 -0.1707 -0.0636
 1268ERGO    R116864   9.552  14.396   9.210 -0.0957  0.0565 -0.1259
 1268ERGO    R216865   9.603  14.571   9.003  0.1931  0.1412  0.0049
 1268ERGO    R316866   9.780  14.379   8.927 -0.0998 -0.0860 -0.1202
 1268ERGO    R416867   9.762  14.561   8.696  0.3065  0.1946  0.0626
 1268ERGO    R516868   9.733  14.344   8.694 -0.0641  0.2412 -0.1785
 1268ERGO    C116869  10.021  14.375   8.446  0.0973  0.0126 -0.0212
 1268ERGO    C216870  10.094  14.407   8.300  0.0358 -0.2572 -0.0552
 1269ERGO   ROH16871   9.190   6.114   9.680 -0.1390 -0.1866  0.0516
 1269ERGO    R116872   9.334   6.081   9.439 -0.2026 -0.5009  0.0546
 1269ERGO    R216873   9.258   5.901   9.243 -0.7977 -0.1058 -0.0864
 1269ERGO    R316874   9.268   6.121   9.084 -0.0159  0.0022  0.0652
 1269ERGO    R416875   9.375   5.905   8.918 -0.6469 -0.2808 -0.0382
 1269ERGO    R516876   9.470   6.096   8.959 -0.0185 -0.5911  0.1328
 1269ERGO    C116877   9.451   6.115   8.579  0.1746 -0.2813  0.1322
 1269ERGO    C216878   9.449   6.133   8.212  0.0273  0.0330 -0.0316
 1270ERGO   ROH16879   3.512  17.619   9.331  0.0903  0.0382 -0.1194
 1270ERGO    R116880   3.577  17.588   9.057  0.1006  0.0024 -0.1129
 1270ERGO    R216881   3.606  17.340   8.938  0.0069 -0.0133 -0.1027
 1270ERGO    R316882   3.423  17.439   8.764  0.0630  0.0582 -0.1217
 1270ERGO    R416883   3.583  17.253   8.605 -0.0888 -0.1221 -0.0683
 1270ERGO    R516884   3.542  17.461   8.558  0.0614 -0.1077 -0.1423
 1270ERGO    C116885   3.397  17.295   8.247 -0.0918 -0.1185 -0.0663
 1270ERGO    C216886   3.177  17.350   7.877 -0.0579 -0.2738  0.1263
 1271ERGO   ROH16887  14.416   1.126   9.154  0.1542  0.0115  0.0265
 1271ERGO    R116888  14.436   1.229   8.891  0.0788  0.0121  0.0199
 1271ERGO    R216889  14.678   1.289   8.773  0.0397  0.1813  0.0137
 1271ERGO    R316890  14.586   1.124   8.577  0.1547  0.1006  0.0275
 1271ERGO    R416891  14.760   1.316   8.438 -0.1014  0.3003 -0.0112
 1271ERGO    R516892  14.552   1.269   8.389 -0.0649  0.0799  0.0523
 1271ERGO    C116893  14.721   1.179   8.059 -0.0757  0.2937 -0.0127
 1271ERGO    C216894  14.969   1.018   7.906  0.2613 -0.4491  0.0430
 1272ERGO   ROH16895   2.317  13.247   9.339 -0.0347  0.1401 -0.2036
 1272ERGO    R116896   2.317  13.088   9.105  0.2236 -0.0149 -0.1028
 1272ERGO    R216897   2.208  13.175   8.867 -0.0442 -0.3939 -0.1265
 1272ERGO    R316898   2.454  13.114   8.768  0.0637  0.0641 -0.1623
 1272ERGO    R416899   2.269  13.044   8.552  0.1443 -0.3808 -0.0966
 1272ERGO    R516900   2.419  12.914   8.641  0.4316 -0.0547 -0.0872
 1272ERGO    C116901   2.535  12.911   8.277  0.3554  0.0568 -0.1127
 1272ERGO    C216902   2.500  12.773   7.917  0.2076  0.2108 -0.0777
 1273ERGO   ROH16903  11.287   7.064   9.663  0.1080 -0.0982 -0.0748
 1273ERGO    R116904  11.276   6.889   9.441  0.0896 -0.0726 -0.0947
 1273ERGO    R216905  11.063   6.883   9.265  0.0829 -0.0382 -0.0909
 1273ERGO    R316906  11.257   6.922   9.079  0.0815 -0.0289 -0.0897
 1273ERGO    R416907  11.012   6.880   8.923  0.0946 -0.0712 -0.0920
 1273ERGO    R516908  11.200   6.772   8.901  0.1066 -0.0481 -0.0791
 1273ERGO    C116909  11.164   6.914   8.549  0.1000 -0.0816 -0.0915
 1273ERGO    C216910  11.063   6.898   8.181  0.1861 -0.2224 -0.0337
 1274ERGO   ROH16911   0.748   8.943   5.345  0.1494 -0.0352  0.0894
 1274ERGO    R116912   0.773   8.992   5.622  0.2435  0.2265  0.0377
 1274ERGO    R216913   0.772   8.789   5.810 -0.3547  0.4294  0.2827
 1274ERGO    R316914   1.007   8.903   5.886 -0.0295 -0.1267  0.1682
 1274ERGO    R416915   0.886   8.810   6.136 -0.2535  0.3686  0.2516
 1274ERGO    R516916   0.956   9.012   6.094  0.2784  0.1645  0.0980
 1274ERGO    C116917   1.172   8.929   6.397  0.1108 -0.1888  0.1260
 1274ERGO    C216918   1.286   8.876   6.659 -0.0229 -0.2250  0.1986
 1275ERGO   ROH16919   1.965   5.083   6.141 -0.0531  0.1243  0.1879
 1275ERGO    R116920   2.082   5.114   6.397 -0.0747 -0.0975  0.2249
 1275ERGO    R216921   2.055   5.345   6.546  0.1385 -0.1282  0.3019
 1275ERGO    R316922   1.964   5.173   6.736 -0.0826 -0.1023  0.2250
 1275ERGO    R416923   1.983   5.432   6.872  0.1070 -0.1422  0.3000
 1275ERGO    R516924   2.073   5.244   6.937 -0.0801 -0.2485  0.2828
 1275ERGO    C116925   1.856   5.322   7.241 -0.1188 -0.1261  0.2268
 1275ERGO    C216926   1.533   5.379   7.398 -0.2245 -0.4482 -0.2561
 1276ERGO   ROH16927   4.435  14.559   5.900 -0.0674 -0.0738 -0.0485
 1276ERGO    R116928   4.537  14.501   6.158 -0.1415 -0.1245 -0.0306
 1276ERGO    R216929   4.527  14.684   6.366  0.0549 -0.0600 -0.0778
 1276ERGO    R316930   4.403  14.480   6.496 -0.1811  0.1097 -0.0290
 1276ERGO    R416931   4.388  14.706   6.681  0.2205  0.1360 -0.0161
 1276ERGO    R516932   4.467  14.507   6.725 -0.0397  0.0182 -0.0547
 1276ERGO    C116933   4.191  14.527   6.987  0.0954  0.4095  0.0657
 1276ERGO    C216934   4.134  14.661   7.295 -0.0474  0.2117  0.1202
 1277ERGO   ROH16935  13.175  18.731   5.732  0.4928  0.2554  0.0241
 1277ERGO    R116936  13.083  18.597   5.964  0.1718  0.3263 -0.0592
 1277ERGO    R216937  13.252  18.460   6.134 -0.1136  0.0584  0.0109
 1277ERGO    R316938  13.139  18.619   6.322 -0.0112  0.1679 -0.0177
 1277ERGO    R416939  13.117  18.349   6.432  0.0314  0.2188  0.1393
 1277ERGO    R516940  12.955  18.491   6.406  0.0218  0.2159  0.1423
 1277ERGO    C116941  12.933  18.434   6.783  0.2119  0.4147  0.1872
 1277ERGO    C216942  12.696  18.641   7.066 -0.0439  0.2204 -0.0269
 1278ERGO   ROH16943   0.646   9.841   5.486 -0.2216  0.1882 -0.2140
 1278ERGO    R116944   0.699   9.876   5.761 -0.1816 -0.1252 -0.1781
 1278ERGO    R216945   0.597  10.088   5.907  0.0490 -0.1448  0.0160
 1278ERGO    R316946   0.505   9.889   6.069 -0.1681 -0.1976 -0.1657
 1278ERGO    R416947   0.435  10.138   6.208  0.2247 -0.2379  0.1277
 1278ERGO    R516948   0.547   9.970   6.291  0.0257 -0.4886 -0.0893
 1278ERGO    C116949   0.255   9.981   6.536  0.1231 -0.3417  0.0223
 1278ERGO    C216950  -0.137  10.060   6.695  0.1056  0.3126  0.4048
 1279ERGO   ROH16951  16.848  16.416   9.316  0.2701 -0.1306  0.0618
 1279ERGO    R116952  16.777  16.294   9.071  0.3692  0.0090 -0.0367
 1279ERGO    R216953  16.539  16.348   8.941  0.2267 -0.2401  0.1269
 1279ERGO    R316954  16.703  16.404   8.732  0.0488  0.2478  0.1038
 1279ERGO    R416955  16.440  16.362   8.610  0.0713 -0.2165  0.1723
 1279ERGO    R516956  16.626  16.263   8.555  0.2741  0.1972  0.0357
 1279ERGO    C116957  16.537  16.424   8.221 -0.1860  0.2550  0.1769
 1279ERGO    C216958  16.502  16.364   7.900 -0.0465  0.0600  0.2607
 1280ERGO   ROH16959   9.022  12.568   9.512 -0.0863  0.0811 -0.0634
 1280ERGO    R116960   8.879  12.399   9.336 -0.0287  0.0741 -0.1046
 1280ERGO    R216961   8.870  12.442   9.063 -0.0754  0.1597 -0.0918
 1280ERGO    R316962   8.958  12.185   9.053  0.0399  0.2026 -0.1832
 1280ERGO    R416963   8.785  12.214   8.818 -0.0405  0.1826 -0.1248
 1280ERGO    R516964   8.769  12.061   8.972  0.0746  0.1363 -0.1602
 1280ERGO    C116965   8.818  11.840   8.665  0.0879  0.2364 -0.2297
 1280ERGO    C216966   8.709  11.833   8.357  0.0393 -0.0783 -0.0304
 1281ERGO   ROH16967   8.686   2.069   5.529  0.4740 -0.0095  0.0212
 1281ERGO    R116968   8.709   2.111   5.808  0.2872  0.1411  0.0167
 1281ERGO    R216969   8.584   2.320   5.938 -0.0184  0.0615 -0.1352
 1281ERGO    R316970   8.485   2.121   6.094  0.1285  0.0128 -0.1024
 1281ERGO    R416971   8.548   2.337   6.281  0.0139  0.0666 -0.1322
 1281ERGO    R516972   8.616   2.131   6.294  0.1463  0.1129 -0.1209
 1281ERGO    C116973   8.433   2.161   6.628  0.1705  0.0239 -0.0997
 1281ERGO    C216974   8.396   2.133   6.900 -0.0236 -0.0710 -0.1228
 1282ERGO   ROH16975  14.001   9.212   5.628  0.3032  0.0526 -0.0117
 1282ERGO    R116976  13.828   9.166   5.847  0.1900  0.3645 -0.0311
 1282ERGO    R216977  13.824   8.927   5.986 -0.5369  0.2034 -0.2886
 1282ERGO    R316978  13.864   9.089   6.200  0.0289 -0.1368 -0.1146
 1282ERGO    R416979  13.758   8.841   6.314 -0.3692 -0.0755 -0.3232
 1282ERGO    R516980  13.680   9.042   6.346  0.0740  0.0616  0.0145
 1282ERGO    C116981  13.757   8.943   6.707  0.2594 -0.5574 -0.1801
 1282ERGO    C216982  13.727   8.999   7.108  0.2364 -0.0579  0.0312
 1283ERGO   ROH16983  11.059   6.284   6.187 -0.3700  0.2633 -0.1433
 1283ERGO    R116984  11.011   6.400   6.441 -0.2320  0.1791 -0.0782
 1283ERGO    R216985  10.834   6.610   6.478 -0.2436  0.1359  0.0937
 1283ERGO    R316986  10.726   6.443   6.662 -0.1016  0.0654  0.1160
 1283ERGO    R416987  10.699   6.710   6.780 -0.3789  0.0731  0.0556
 1283ERGO    R516988  10.791   6.536   6.873 -0.2156  0.1794  0.1052
 1283ERGO    C116989  10.519   6.611   7.129 -0.3246 -0.0297  0.0542
 1283ERGO    C216990  10.388   6.400   7.427  0.2380 -0.1410  0.3249
 1284ERGO   ROH16991  12.086   0.144   8.882 -0.1456 -0.0456 -0.0442
 1284ERGO    R116992  12.203   0.067   8.637 -0.0249  0.0961 -0.0337
 1284ERGO    R216993  12.055  -0.037   8.427  0.1316 -0.1955 -0.0093
 1284ERGO    R316994  12.173   0.164   8.287 -0.2047 -0.0208 -0.0512
 1284ERGO    R416995  12.036   0.005   8.084 -0.0393 -0.2184 -0.0031
 1284ERGO    R516996  12.246   0.061   8.084 -0.1210  0.0868 -0.0733
 1284ERGO    C116997  12.136   0.218   7.754 -0.4546 -0.0678 -0.0387
 1284ERGO    C216998  12.148   0.341   7.394 -0.1855  0.1217  0.1283
 1285ERGO   ROH16999  16.104   0.545   9.317 -0.2151 -0.1142 -0.1394
 1285ERGO    R117000  16.306   0.545   9.119 -0.1134  0.0164 -0.0383
 1285ERGO    R217001  16.249   0.524   8.849  0.0332  0.0249 -0.0732
 1285ERGO    R317002  16.396   0.753   8.834 -0.0760  0.1033  0.0373
 1285ERGO    R417003  16.351   0.674   8.555  0.3254 -0.0143  0.0046
 1285ERGO    R517004  16.543   0.716   8.648  0.1831  0.1268  0.2358
 1285ERGO    C117005  16.547   0.975   8.369  0.3927  0.0364  0.1538
 1285ERGO    C217006  16.540   1.033   8.103  0.0014  0.1926  0.2374
 1286ERGO   ROH17007   4.119  17.284   5.850  0.1313 -0.1464 -0.1301
 1286ERGO    R117008   4.145  17.250   6.130  0.0877 -0.1342 -0.1253
 1286ERGO    R217009   3.992  17.390   6.312  0.1596 -0.0212 -0.1541
 1286ERGO    R317010   3.932  17.142   6.403 -0.0015  0.0240 -0.1308
 1286ERGO    R417011   3.904  17.315   6.637  0.1083  0.0633 -0.1471
 1286ERGO    R517012   4.025  17.135   6.624 -0.0066 -0.0168 -0.1293
 1286ERGO    C117013   3.796  17.038   6.913 -0.0728  0.1549 -0.1211
 1286ERGO    C217014   3.594  16.934   7.161 -0.3991  0.0960 -0.3227
 1287ERGO   ROH17015  11.018   0.300   9.022  0.0086 -0.0780  0.0881
 1287ERGO    R117016  11.059   0.334   8.744 -0.0034 -0.0361  0.0908
 1287ERGO    R217017  11.295   0.262   8.619  0.0534  0.1270  0.0942
 1287ERGO    R317018  11.128   0.119   8.459  0.1524  0.0220  0.0847
 1287ERGO    R417019  11.267   0.303   8.277  0.0022  0.1445  0.1009
 1287ERGO    R517020  11.051   0.278   8.297  0.0243 -0.0192  0.1081
 1287ERGO    C117021  11.094   0.192   7.927  0.0653  0.0561  0.0958
 1287ERGO    C217022  11.146   0.027   7.618 -0.1749  0.1845  0.0863
 1288ERGO   ROH17023   3.974   7.150   9.099  0.2333 -0.3277  0.0569
 1288ERGO    R117024   4.008   7.241   8.833  0.0765 -0.2145  0.0742
 1288ERGO    R217025   4.251   7.232   8.702  0.0173 -0.0902 -0.0489
 1288ERGO    R317026   4.109   7.096   8.515 -0.0328 -0.0616 -0.0314
 1288ERGO    R417027   4.285   7.273   8.361 -0.1858  0.0747 -0.0513
 1288ERGO    R517028   4.068   7.257   8.343 -0.1902 -0.0005  0.0611
 1288ERGO    C117029   4.171   7.168   7.986 -0.3511  0.1974 -0.0362
 1288ERGO    C217030   4.308   7.089   7.713 -0.1089 -0.0344 -0.0912
 1289ERGO   ROH17031   9.059   8.191   9.857 -0.1515 -0.0695  0.0546
 1289ERGO    R117032   9.076   8.039   9.619 -0.0193 -0.1235  0.0974
 1289ERGO    R217033   8.910   8.084   9.402 -0.1145 -0.3811  0.1124
 1289ERGO    R317034   9.146   8.106   9.268 -0.1614 -0.1455  0.0647
 1289ERGO    R417035   8.959   7.994   9.072 -0.1692 -0.0126 -0.0001
 1289ERGO    R517036   9.153   7.912   9.128 -0.1213  0.0051 -0.1439
 1289ERGO    C117037   9.208   7.963   8.754 -0.2451  0.4231 -0.1105
 1289ERGO    C217038   9.305   7.869   8.440 -0.0861  0.0841  0.1372
 1290ERGO   ROH17039  13.637  11.569   5.526  0.0036  0.1928 -0.0379
 1290ERGO    R117040  13.437  11.648   5.711  0.0268  0.0383  0.0549
 1290ERGO    R217041  13.282  11.466   5.848  0.1374 -0.0805  0.0258
 1290ERGO    R317042  13.373  11.601   6.066  0.1496 -0.1360  0.0554
 1290ERGO    R417043  13.197  11.393   6.176 -0.0326 -0.0138 -0.0020
 1290ERGO    R517044  13.185  11.607   6.215  0.0986 -0.0041 -0.0134
 1290ERGO    C117045  13.234  11.478   6.570 -0.1201 -0.0272  0.0096
 1290ERGO    C217046  13.267  11.242   6.788 -0.0505  0.2566  0.0274
 1291ERGO   ROH17047  12.031  10.329   9.429  0.3590 -0.1733 -0.0237
 1291ERGO    R117048  11.969  10.392   9.160  0.2463 -0.1647  0.0021
 1291ERGO    R217049  11.969  10.202   8.959  0.1488 -0.1640 -0.0061
 1291ERGO    R317050  11.717  10.294   8.917  0.1356 -0.1486  0.1114
 1291ERGO    R417051  11.778  10.130   8.680  0.0941  0.0299 -0.0187
 1291ERGO    R517052  11.709  10.337   8.681  0.0820  0.0226  0.1463
 1291ERGO    C117053  11.430  10.175   8.478  0.0500  0.1572  0.0843
 1291ERGO    C217054  11.312  10.287   8.240  0.2119 -0.3546  0.2242
 1292ERGO   ROH17055  17.184   4.070   6.100 -0.0173  0.0438 -0.0399
 1292ERGO    R117056  17.105   4.022   6.368  0.0169  0.0400 -0.0312
 1292ERGO    R217057  16.891   3.859   6.433  0.0252  0.0477 -0.0086
 1292ERGO    R317058  17.076   3.734   6.588  0.0369  0.0370 -0.0292
 1292ERGO    R417059  16.818   3.660   6.705  0.0359  0.1748  0.0888
 1292ERGO    R517060  16.987   3.749   6.810  0.1121  0.1553 -0.0002
 1292ERGO    C117061  16.949   3.426   7.010  0.0531  0.2389  0.1261
 1292ERGO    C217062  16.785   3.118   7.121  0.0978 -0.1831 -0.6076
 1293ERGO   ROH17063   9.918   2.768   9.531  0.2107  0.1894 -0.0927
 1293ERGO    R117064   9.855   2.734   9.257  0.3787 -0.0919 -0.1003
 1293ERGO    R217065   9.797   2.946   9.090 -0.0703 -0.2963 -0.2221
 1293ERGO    R317066   9.996   2.840   8.939  0.2431  0.0927 -0.0998
 1293ERGO    R417067   9.820   2.974   8.747  0.0633 -0.2971 -0.2135
 1293ERGO    R517068   9.886   2.766   8.739  0.5026 -0.1676 -0.1524
 1293ERGO    C117069  10.020   2.890   8.405  0.4353  0.0677 -0.0936
 1293ERGO    C217070   9.888   2.990   8.108 -0.1866  0.0018 -0.0138
 1294ERGO   ROH17071  18.524   8.045   8.713  0.1708 -0.1925 -0.0166
 1294ERGO    R117072  18.541   7.933   8.453  0.1025 -0.1316 -0.0475
 1294ERGO    R217073  18.319   7.843   8.315  0.0635 -0.0780 -0.0193
 1294ERGO    R317074  18.411   8.011   8.122  0.0353 -0.0404 -0.0002
 1294ERGO    R417075  18.190   7.865   7.996 -0.0218  0.0251  0.0216
 1294ERGO    R517076  18.394   7.884   7.920 -0.0393  0.0149 -0.0294
 1294ERGO    C117077  18.201   8.037   7.628 -0.0981  0.1203  0.0636
 1294ERGO    C217078  18.075   7.994   7.269  0.3893  0.0099  0.0314
 1295ERGO   ROH17079  10.110   4.635   6.241 -0.4768  0.0788  0.3321
 1295ERGO    R117080  10.152   4.552   6.508 -0.0914  0.0347  0.2618
 1295ERGO    R217081  10.405   4.517   6.615  0.0656  0.1396 -0.0700
 1295ERGO    R317082  10.314   4.689   6.804  0.2178  0.0447  0.0933
 1295ERGO    R417083  10.468   4.489   6.953 -0.0149 -0.2794 -0.0834
 1295ERGO    R517084  10.262   4.549   6.992  0.0388 -0.0987 -0.0575
 1295ERGO    C117085  10.419   4.634   7.329  0.0813 -0.6124  0.0620
 1295ERGO    C217086  10.368   4.868   7.608 -0.0645  0.0832  0.0085
 1296ERGO   ROH17087  18.241  17.949   9.036 -0.0928 -0.2112 -0.1660
 1296ERGO    R117088  18.241  17.965   8.754 -0.0794 -0.0895 -0.1605
 1296ERGO    R217089  18.306  18.196   8.618 -0.0453 -0.0343 -0.0617
 1296ERGO    R317090  18.484  18.034   8.492 -0.0589 -0.0049 -0.1169
 1296ERGO    R417091  18.392  18.220   8.284  0.1693  0.2372  0.0103
 1296ERGO    R517092  18.391  18.002   8.273  0.0590  0.2535 -0.2028
 1296ERGO    C117093  18.610  18.082   7.972  0.2814  0.4227  0.0006
 1296ERGO    C217094  18.755  17.960   7.681 -0.0582 -0.0381 -0.1924
 1297ERGO   ROH17095   5.031   2.944   5.806  0.0260  0.0397 -0.0993
 1297ERGO    R117096   4.932   2.910   6.069  0.0365  0.0471 -0.0932
 1297ERGO    R217097   4.761   3.092   6.188  0.0485  0.0607 -0.0850
 1297ERGO    R317098   4.606   2.872   6.226  0.0407  0.0662 -0.0817
 1297ERGO    R417099   4.459   3.088   6.357  0.0485  0.0661 -0.0862
 1297ERGO    R517100   4.517   2.898   6.446  0.0409  0.0681 -0.0849
 1297ERGO    C117101   4.139   2.879   6.492  0.0412  0.0744 -0.0838
 1297ERGO    C217102   3.832   2.812   6.483  0.0834  0.1076  0.2530
 1298ERGO   ROH17103   2.822   8.734   5.395 -0.0689  0.1894 -0.0068
 1298ERGO    R117104   2.861   8.586   5.633 -0.0202 -0.0566 -0.1639
 1298ERGO    R217105   2.892   8.706   5.880  0.2868 -0.2974 -0.0753
 1298ERGO    R317106   2.686   8.543   5.949  0.1842 -0.1639 -0.0647
 1298ERGO    R417107   2.828   8.593   6.200  0.1655 -0.1882 -0.0603
 1298ERGO    R517108   2.777   8.399   6.116  0.0695 -0.1757 -0.0169
 1298ERGO    C117109   2.597   8.375   6.452 -0.0013  0.0008 -0.0416
 1298ERGO    C217110   2.584   8.327   6.830 -0.0768 -0.1395  0.1934
 1299ERGO   ROH17111  12.411   4.026   6.306 -0.2295 -0.1371  0.0107
 1299ERGO    R117112  12.513   3.943   6.557 -0.0870 -0.1102 -0.0385
 1299ERGO    R217113  12.716   3.758   6.581  0.0301  0.0098 -0.1393
 1299ERGO    R317114  12.833   3.953   6.729 -0.0281  0.0569 -0.1527
 1299ERGO    R417115  12.926   3.702   6.850  0.1441  0.0843 -0.2112
 1299ERGO    R517116  12.830   3.868   6.953  0.0848  0.0237 -0.1595
 1299ERGO    C117117  13.159   3.854   7.145  0.1559  0.1720 -0.2656
 1299ERGO    C217118  13.451   3.781   7.282 -0.0567  0.0850 -0.3258
 1300ERGO   ROH17119   7.647   6.546   9.520  0.0822 -0.0260  0.0818
 1300ERGO    R117120   7.580   6.533   9.245  0.1146 -0.0953  0.0769
 1300ERGO    R217121   7.405   6.710   9.127 -0.0014 -0.2277  0.0478
 1300ERGO    R317122   7.611   6.750   8.955 -0.0137 -0.0950  0.0627
 1300ERGO    R417123   7.375   6.728   8.783  0.0306 -0.4022  0.0350
 1300ERGO    R517124   7.559   6.612   8.766  0.1497 -0.2285  0.1119
 1300ERGO    C117125   7.551   6.775   8.421  0.0377 -0.3793  0.0417
 1300ERGO    C217126   7.621   6.818   8.059 -0.1286  0.0097 -0.1643
 1301ERGO   ROH17127   6.521  15.731   9.768  0.1066 -0.0292  0.0312
 1301ERGO    R117128   6.531  15.785   9.490  0.0569  0.1326  0.0596
 1301ERGO    R217129   6.757  15.887   9.366  0.0819  0.0737  0.0563
 1301ERGO    R317130   6.727  15.670   9.205 -0.0940  0.1872 -0.0678
 1301ERGO    R417131   6.936  15.830   9.076  0.2435 -0.0392  0.1770
 1301ERGO    R517132   6.753  15.756   8.983  0.2095  0.2595 -0.0088
 1301ERGO    C117133   7.013  15.593   8.757  0.1725  0.0014  0.1309
 1301ERGO    C217134   7.200  15.520   8.563 -0.1763  0.2896 -0.1370
 1302ERGO   ROH17135  12.811  15.510   9.302 -0.1927 -0.2651  0.0315
 1302ERGO    R117136  12.730  15.448   9.038 -0.0649 -0.1631 -0.0325
 1302ERGO    R217137  12.548  15.601   8.898 -0.0483 -0.1487 -0.0358
 1302ERGO    R317138  12.745  15.609   8.712  0.0269 -0.0051  0.0483
 1302ERGO    R417139  12.498  15.662   8.562  0.0137 -0.4357 -0.1006
 1302ERGO    R517140  12.647  15.509   8.517  0.2451 -0.2686  0.0666
 1302ERGO    C117141  12.655  15.706   8.191  0.1206 -0.4679 -0.0595
 1302ERGO    C217142  12.595  15.624   7.932  0.0241  0.1730 -0.3243
 1303ERGO   ROH17143  19.007  18.042   5.610  0.1925 -0.0196 -0.1168
 1303ERGO    R117144  19.018  17.904   5.856 -0.0281 -0.0035 -0.0958
 1303ERGO    R217145  19.209  17.958   6.049  0.0291 -0.2420 -0.0834
 1303ERGO    R317146  18.992  17.990   6.209  0.0511  0.0837 -0.1107
 1303ERGO    R417147  19.222  17.995   6.392  0.0408 -0.2678 -0.0807
 1303ERGO    R517148  19.046  17.867   6.407 -0.1605 -0.0057 -0.1057
 1303ERGO    C117149  19.025  18.047   6.743  0.0684  0.0228 -0.1048
 1303ERGO    C217150  19.109  17.941   7.054  0.0378 -0.4069 -0.1577
 1304ERGO   ROH17151  15.431  19.097   5.915 -0.1130 -0.1000  0.0055
 1304ERGO    R117152  15.283  18.994   6.133 -0.0946 -0.0608  0.0365
 1304ERGO    R217153  15.392  18.818   6.317 -0.0821 -0.0331  0.0535
 1304ERGO    R317154  15.306  19.004   6.496 -0.0604 -0.0032  0.0334
 1304ERGO    R417155  15.427  18.793   6.660  0.1665  0.1267  0.0426
 1304ERGO    R517156  15.226  18.874   6.682  0.1341  0.0282  0.1433
 1304ERGO    C117157  15.367  18.952   7.028  0.3315  0.2479  0.0173
 1304ERGO    C217158  15.300  18.997   7.390  0.3480 -0.0577 -0.1313
 1305ERGO   ROH17159   7.016   3.395   9.423 -0.1056 -0.1441 -0.1514
 1305ERGO    R117160   7.034   3.421   9.142 -0.3645 -0.0829 -0.1653
 1305ERGO    R217161   6.812   3.449   8.980 -0.5040  0.2742  0.0722
 1305ERGO    R317162   6.943   3.670   8.893 -0.2865  0.1244  0.0116
 1305ERGO    R417163   6.863   3.530   8.648 -0.1686 -0.0016  0.0504
 1305ERGO    R517164   7.064   3.595   8.700 -0.1710 -0.0955  0.1679
 1305ERGO    C117165   7.016   3.785   8.373  0.2309 -0.3028 -0.0193
 1305ERGO    C217166   6.982   3.796   7.977 -0.0270  0.0924  0.2267
 1306ERGO   ROH17167  16.259  12.975   8.959 -0.0369  0.2200  0.0362
 1306ERGO    R117168  16.185  12.935   8.688  0.0635  0.0062  0.0377
 1306ERGO    R217169  16.049  13.125   8.541 -0.3850 -0.3190  0.0030
 1306ERGO    R317170  16.257  13.092   8.368 -0.2878  0.1383  0.0210
 1306ERGO    R417171  16.021  13.120   8.197 -0.2792 -0.0360 -0.0123
 1306ERGO    R517172  16.166  12.958   8.192 -0.0472  0.1739 -0.1306
 1306ERGO    C117173  16.198  13.086   7.834 -0.1264  0.5580 -0.0042
 1306ERGO    C217174  16.188  13.208   7.551 -0.0451  0.3217  0.1132
 1307ERGO   ROH17175  12.690   6.153   9.518 -0.1347  0.2362  0.0744
 1307ERGO    R117176  12.529   6.224   9.297 -0.1370  0.1670  0.0532
 1307ERGO    R217177  12.549   6.469   9.170 -0.1540  0.1375 -0.0105
 1307ERGO    R317178  12.583   6.315   8.949 -0.1377  0.0818  0.0310
 1307ERGO    R417179  12.437   6.551   8.853  0.0175  0.1364 -0.0723
 1307ERGO    R517180  12.380   6.342   8.826 -0.0729  0.1600 -0.0586
 1307ERGO    C117181  12.403   6.453   8.461  0.1328  0.0833 -0.0694
 1307ERGO    C217182  12.322   6.522   8.148 -0.2981 -0.0915  0.0426
 1308ERGO   ROH17183   8.668   0.561   8.854 -0.0126  0.0942  0.0429
 1308ERGO    R117184   8.763   0.468   8.604  0.1163  0.1079  0.0856
 1308ERGO    R217185   8.641   0.534   8.365  0.0536 -0.1268  0.0500
 1308ERGO    R317186   8.891   0.616   8.298 -0.0361  0.1435  0.0384
 1308ERGO    R417187   8.722   0.695   8.071 -0.1163 -0.1325 -0.0008
 1308ERGO    R517188   8.905   0.576   8.062  0.0260  0.0768  0.0533
 1308ERGO    C117189   9.004   0.866   7.836 -0.2993  0.1180 -0.0415
 1308ERGO    C217190   8.972   1.057   7.581 -0.1079  0.0196  0.1315
 1309ERGO   ROH17191   0.574  15.850   5.783  0.3361  0.2013  0.2119
 1309ERGO    R117192   0.525  15.647   5.974  0.3911  0.1659  0.1899
 1309ERGO    R217193   0.592  15.673   6.241  0.0798  0.2934  0.2632
 1309ERGO    R317194   0.330  15.613   6.279  0.1089 -0.0288 -0.0076
 1309ERGO    R417195   0.453  15.576   6.542 -0.1411  0.2708  0.1549
 1309ERGO    R517196   0.332  15.431   6.434  0.1702  0.0551  0.0886
 1309ERGO    C117197   0.126  15.463   6.753 -0.2424 -0.0448 -0.1623
 1309ERGO    C217198  -0.020  15.481   7.085 -0.0946 -0.1174  0.0900
 1310ERGO   ROH17199  13.564  15.940   9.117  0.2641  0.1725 -0.2484
 1310ERGO    R117200  13.483  16.023   8.858  0.0250  0.0981 -0.1999
 1310ERGO    R217201  13.664  16.083   8.658 -0.1569  0.1686 -0.3423
 1310ERGO    R317202  13.519  15.901   8.518 -0.1682  0.0758 -0.2141
 1310ERGO    R417203  13.632  16.079   8.314 -0.0769 -0.1281 -0.3505
 1310ERGO    R517204  13.422  16.028   8.339 -0.0974 -0.0560 -0.3512
 1310ERGO    C117205  13.478  15.907   7.982 -0.0409 -0.3881 -0.2348
 1310ERGO    C217206  13.486  15.902   7.616 -0.3643 -0.2936 -0.2517
 1311ERGO   ROH17207  17.152   7.282   9.028  0.0572  0.0956  0.1568
 1311ERGO    R117208  17.200   7.276   8.749 -0.0087 -0.0345  0.1470
 1311ERGO    R217209  17.085   7.089   8.582 -0.0973 -0.0766  0.2508
 1311ERGO    R317210  17.002   7.309   8.446 -0.0714 -0.1106  0.1802
 1311ERGO    R417211  17.026   7.100   8.241 -0.1499 -0.1899  0.2559
 1311ERGO    R517212  17.118   7.298   8.237 -0.1090 -0.2132  0.1660
 1311ERGO    C117213  16.913   7.314   7.915 -0.1561 -0.2880  0.1926
 1311ERGO    C217214  16.666   7.183   7.555 -0.0054 -0.0744  0.3840
 1312ERGO   ROH17215   0.503  11.623   9.182  0.0594 -0.1374 -0.0313
 1312ERGO    R117216   0.690  11.600   8.971 -0.0327 -0.1544 -0.1119
 1312ERGO    R217217   0.613  11.566   8.707 -0.1535  0.0180 -0.1018
 1312ERGO    R317218   0.769  11.785   8.668 -0.0318 -0.0589 -0.0537
 1312ERGO    R417219   0.759  11.654   8.406 -0.1213  0.0149 -0.0869
 1312ERGO    R517220   0.938  11.712   8.515 -0.0820 -0.1144 -0.0823
 1312ERGO    C117221   0.990  11.910   8.194  0.0117 -0.0589 -0.0332
 1312ERGO    C217222   1.079  12.041   8.036 -0.2846 -0.1684  0.0688
 1313ERGO   ROH17223  10.292  11.262   6.783  0.0781 -0.0972 -0.0230
 1313ERGO    R117224  10.446  11.091   6.947  0.2528 -0.0235 -0.1054
 1313ERGO    R217225  10.721  11.115   6.972  0.2228  0.3300  0.0123
 1313ERGO    R317226  10.663  11.127   7.237  0.0990  0.0454  0.0000
 1313ERGO    R417227  10.921  10.992   7.225  0.0676  0.0104 -0.0172
 1313ERGO    R517228  10.743  10.920   7.326  0.0097 -0.0647 -0.1854
 1313ERGO    C117229  10.984  10.931   7.621 -0.1392 -0.4430 -0.0459
 1313ERGO    C217230  11.229  10.672   7.765 -0.0920 -0.1067  0.1872
 1314ERGO   ROH17231  14.760  14.424   8.702 -0.0381 -0.0512  0.1088
 1314ERGO    R117232  14.947  14.371   8.497  0.0094  0.0285  0.1306
 1314ERGO    R217233  14.871  14.300   8.241  0.0700 -0.1542  0.1592
 1314ERGO    R317234  15.028  14.511   8.171 -0.1222 -0.0387  0.0689
 1314ERGO    R417235  15.091  14.303   7.974  0.1509 -0.1068  0.2263
 1314ERGO    R517236  15.233  14.411   8.098  0.0036  0.1222  0.1996
 1314ERGO    C117237  15.366  14.503   7.753  0.0176  0.0291  0.1806
 1314ERGO    C217238  15.349  14.548   7.417 -0.0151 -0.1393  0.4081
 1315ERGO   ROH17239  18.965   0.853   9.247 -0.3866 -0.4174 -0.2565
 1315ERGO    R117240  18.825   0.905   9.006 -0.2984 -0.1543 -0.2533
 1315ERGO    R217241  18.661   1.125   8.974 -0.1484 -0.0247 -0.1355
 1315ERGO    R317242  18.818   1.171   8.757 -0.0699  0.0314 -0.0682
 1315ERGO    R417243  18.610   1.378   8.745 -0.1938 -0.0943 -0.2034
 1315ERGO    R517244  18.664   1.238   8.586 -0.0316 -0.0921 -0.1548
 1315ERGO    C117245  18.728   1.569   8.407 -0.1467 -0.0822 -0.1797
 1315ERGO    C217246  18.587   1.793   8.146  0.1521  0.0350  0.1397
 1316ERGO   ROH17247  14.030  14.888   8.941  0.0474 -0.2270  0.1035
 1316ERGO    R117248  13.991  15.028   8.698  0.0146 -0.1079  0.1770
 1316ERGO    R217249  14.132  14.969   8.468  0.0481  0.0646  0.1534
 1316ERGO    R317250  13.883  14.947   8.360  0.0621  0.0399  0.1251
 1316ERGO    R417251  14.062  14.984   8.130  0.1013 -0.0624  0.1359
 1316ERGO    R517252  13.884  15.102   8.177  0.1013 -0.0303  0.0638
 1316ERGO    C117253  13.788  14.972   7.832  0.1454 -0.1597  0.0988
 1316ERGO    C217254  13.732  14.834   7.612 -0.1779  0.3887  0.1147
 1317ERGO   ROH17255   5.420  18.514   5.551 -0.3918 -0.2878  0.0659
 1317ERGO    R117256   5.471  18.658   5.789  0.1556 -0.2830 -0.0424
 1317ERGO    R217257   5.280  18.695   5.986  0.3100  0.4828 -0.0040
 1317ERGO    R317258   5.471  18.587   6.147  0.0211 -0.0521  0.0054
 1317ERGO    R417259   5.256  18.667   6.329  0.2470  0.6376  0.0048
 1317ERGO    R517260   5.466  18.723   6.344  0.4353  0.0254 -0.0270
 1317ERGO    C117261   5.421  18.550   6.680 -0.0608  0.2260  0.0187
 1317ERGO    C217262   5.475  18.596   7.031 -0.0761  0.2693 -0.1427
 1318ERGO   ROH17263   6.615  18.283   6.044  0.0565  0.0317  0.1593
 1318ERGO    R117264   6.571  18.389   6.303 -0.0950  0.0104  0.1443
 1318ERGO    R217265   6.671  18.634   6.382  0.0082 -0.0704  0.2797
 1318ERGO    R317266   6.411  18.684   6.444 -0.0152  0.0939  0.0600
 1318ERGO    R417267   6.566  18.844   6.636 -0.0796  0.0521  0.1429
 1318ERGO    R517268   6.410  18.699   6.684 -0.2000  0.1543  0.0547
 1318ERGO    C117269   6.260  19.012   6.842 -0.1527  0.2777 -0.1430
 1318ERGO    C217270   6.177  19.104   7.123 -0.0111 -0.2200 -0.1611
 1319ERGO   ROH17271   0.676   1.024   8.847 -0.0446 -0.0052  0.1261
 1319ERGO    R117272   0.617   0.914   8.594  0.2242 -0.0702  0.0892
 1319ERGO    R217273   0.533   1.067   8.380  0.1133 -0.1676  0.0654
 1319ERGO    R317274   0.742   0.949   8.254  0.3378  0.1243  0.1489
 1319ERGO    R417275   0.610   1.108   8.046  0.1701 -0.0849  0.0873
 1319ERGO    R517276   0.657   0.895   8.036  0.4877 -0.0233  0.1225
 1319ERGO    C117277   0.851   1.019   7.732  0.4139  0.2373  0.1783
 1319ERGO    C217278   1.018   1.152   7.438  0.0846  0.1334 -0.1164
 1320ERGO   ROH17279  10.345  17.108   8.900 -0.1540 -0.0377 -0.0563
 1320ERGO    R117280  10.289  16.955   8.669  0.0766  0.0024 -0.1417
 1320ERGO    R217281  10.061  16.994   8.516 -0.0099 -0.2844 -0.0890
 1320ERGO    R317282  10.241  17.020   8.314 -0.0709  0.1379 -0.0988
 1320ERGO    R417283   9.979  17.028   8.182 -0.1116 -0.2481 -0.0610
 1320ERGO    R517284  10.145  16.896   8.133  0.1210  0.0619 -0.1527
 1320ERGO    C117285  10.100  17.073   7.798 -0.2281  0.1696 -0.0540
 1320ERGO    C217286   9.906  17.095   7.533  0.0297  0.2895 -0.0659
 1321ERGO   ROH17287   0.521  18.459   9.164  0.2117 -0.0224 -0.0451
 1321ERGO    R117288   0.631  18.550   8.920  0.0785  0.2122 -0.0190
 1321ERGO    R217289   0.678  18.382   8.706  0.3043  0.3482 -0.0662
 1321ERGO    R317290   0.527  18.564   8.572  0.0512  0.1855 -0.0157
 1321ERGO    R417291   0.596  18.361   8.371  0.4454  0.3653 -0.1037
 1321ERGO    R517292   0.629  18.576   8.355  0.1143  0.4451  0.0140
 1321ERGO    C117293   0.407  18.520   8.049  0.2900  0.2224 -0.0782
 1321ERGO    C217294   0.320  18.684   7.738 -0.2696 -0.2659 -0.1581
 1322ERGO   ROH17295  12.976  14.345   8.943  0.0426  0.0677  0.1525
 1322ERGO    R117296  12.828  14.496   8.753 -0.1345 -0.1411  0.1197
 1322ERGO    R217297  12.950  14.653   8.561 -0.3124  0.0975  0.1905
 1322ERGO    R317298  12.798  14.506   8.391 -0.0048 -0.1376  0.1103
 1322ERGO    R417299  12.869  14.744   8.237 -0.3213 -0.0222  0.1588
 1322ERGO    R517300  12.668  14.667   8.271 -0.2122 -0.3426  0.0614
 1322ERGO    C117301  12.679  14.659   7.889 -0.0377 -0.3125  0.0651
 1322ERGO    C217302  12.522  14.680   7.601  0.0349  0.0517 -0.3323
 1323ERGO   ROH17303  10.354   3.565   9.631 -0.0625 -0.0240 -0.1347
 1323ERGO    R117304  10.480   3.667   9.399 -0.1616  0.0787 -0.1450
 1323ERGO    R217305  10.570   3.504   9.195 -0.0159  0.1473 -0.1370
 1323ERGO    R317306  10.416   3.666   9.041 -0.1710 -0.0039 -0.1432
 1323ERGO    R417307  10.614   3.554   8.856  0.0148  0.2678 -0.1152
 1323ERGO    R517308  10.570   3.765   8.886 -0.2462  0.2120 -0.0828
 1323ERGO    C117309  10.495   3.736   8.514 -0.1130  0.1960 -0.1084
 1323ERGO    C217310  10.506   3.761   8.187  0.0103  0.0849  0.0633
 1324ERGO   ROH17311  16.917   1.105   6.636 -0.0241 -0.1910  0.0231
 1324ERGO    R117312  17.149   1.158   6.789 -0.0180  0.0236 -0.0582
 1324ERGO    R217313  17.215   1.412   6.876 -0.3250  0.0582  0.0817
 1324ERGO    R317314  17.223   1.291   7.119 -0.0366 -0.1013 -0.0029
 1324ERGO    R417315  17.386   1.533   7.151 -0.3649  0.1183  0.0804
 1324ERGO    R517316  17.446   1.328   7.197 -0.0479  0.1672 -0.0872
 1324ERGO    C117317  17.493   1.489   7.540 -0.1171  0.0037  0.0001
 1324ERGO    C217318  17.299   1.628   7.706  0.2211  0.2419  0.0433
 1325ERGO   ROH17319   6.395   8.809   6.152  0.0924 -0.0497 -0.0934
 1325ERGO    R117320   6.406   8.957   6.393 -0.0603 -0.0854 -0.0633
 1325ERGO    R217321   6.230   8.913   6.602 -0.0254 -0.3020 -0.0739
 1325ERGO    R317322   6.459   8.884   6.746  0.0035 -0.1047 -0.0774
 1325ERGO    R417323   6.246   8.895   6.947  0.0118 -0.1755 -0.0687
 1325ERGO    R517324   6.425   9.019   6.940 -0.0701 -0.0618 -0.1215
 1325ERGO    C117325   6.470   8.856   7.282  0.0606  0.0834 -0.0690
 1325ERGO    C217326   6.362   8.842   7.608  0.1595  0.0504  0.2872
 1326ERGO   ROH17327  15.510  16.123   9.102 -0.1386  0.2479 -0.1552
 1326ERGO    R117328  15.595  15.988   8.868 -0.2609  0.1523 -0.1444
 1326ERGO    R217329  15.428  15.943   8.652 -0.2735  0.3834 -0.1821
 1326ERGO    R317330  15.628  16.066   8.514 -0.0804  0.1369 -0.1320
 1326ERGO    R417331  15.452  15.952   8.308 -0.0064  0.1133 -0.1760
 1326ERGO    R517332  15.667  15.921   8.327 -0.0427 -0.0297  0.0041
 1326ERGO    C117333  15.653  16.072   7.977  0.3303 -0.2754 -0.1254
 1326ERGO    C217334  15.628  16.024   7.741  0.0380  0.2042 -0.0292
 1327ERGO   ROH17335   3.312   1.594   9.626  0.0202  0.1280  0.0473
 1327ERGO    R117336   3.199   1.473   9.396  0.0303  0.1064  0.0525
 1327ERGO    R217337   2.961   1.558   9.284  0.0044  0.0636  0.0615
 1327ERGO    R317338   3.111   1.577   9.058 -0.0051  0.0928  0.0590
 1327ERGO    R417339   2.839   1.531   8.962  0.0248 -0.0433  0.0632
 1327ERGO    R517340   3.016   1.416   8.909  0.0718  0.0298  0.0839
 1327ERGO    C117341   2.909   1.534   8.563  0.0278 -0.0781  0.0621
 1327ERGO    C217342   2.954   1.764   8.249  0.2790 -0.0037  0.0489
 1328ERGO   ROH17343  18.077  11.706   9.191  0.2548 -0.3375 -0.1162
 1328ERGO    R117344  17.953  11.738   8.938  0.2112 -0.3336 -0.0969
 1328ERGO    R217345  18.014  11.947   8.768 -0.1207 -0.0818  0.0665
 1328ERGO    R317346  18.060  11.747   8.591  0.2237  0.1269 -0.0853
 1328ERGO    R417347  17.902  11.943   8.441 -0.3452 -0.1510  0.1442
 1328ERGO    R517348  17.857  11.731   8.464  0.1669 -0.2736  0.0522
 1328ERGO    C117349  17.881  11.753   8.084 -0.1528  0.0046  0.0471
 1328ERGO    C217350  17.956  11.843   7.708  0.1840 -0.0868  0.3696
 1329ERGO   ROH17351  12.634   5.080   9.572 -0.1279  0.2686 -0.0546
 1329ERGO    R117352  12.578   4.951   9.326  0.2177  0.3905 -0.2034
 1329ERGO    R217353  12.321   4.880   9.251  0.4025 -0.3100 -0.2234
 1329ERGO    R317354  12.381   5.024   9.029 -0.0814  0.1681 -0.0674
 1329ERGO    R417355  12.151   4.860   8.951  0.3979 -0.4904 -0.2113
 1329ERGO    R517356  12.342   4.873   8.847  0.3661  0.2424 -0.2430
 1329ERGO    C117357  12.108   4.984   8.567 -0.0588 -0.1465 -0.0579
 1329ERGO    C217358  12.115   5.193   8.260 -0.2004  0.0099  0.0130
 1330ERGO   ROH17359  17.061   1.736   6.468  0.0507 -0.0758  0.1027
 1330ERGO    R117360  16.889   1.682   6.686 -0.2432 -0.0818 -0.1218
 1330ERGO    R217361  16.900   1.824   6.924 -0.1555 -0.4587  0.1181
 1330ERGO    R317362  16.636   1.864   6.875 -0.0452  0.1367 -0.0667
 1330ERGO    R417363  16.666   1.909   7.163 -0.2432 -0.5354  0.0584
 1330ERGO    R517364  16.525   1.773   7.067 -0.4095 -0.0734 -0.3720
 1330ERGO    C117365  16.281   1.996   7.256 -0.1908 -0.0211 -0.1500
 1330ERGO    C217366  16.284   2.257   7.363  0.1915  0.2444  0.1790
 1331ERGO   ROH17367  14.181   1.564   9.358  0.1551  0.0698  0.0357
 1331ERGO    R117368  14.268   1.746   9.159 -0.0524  0.1416  0.0094
 1331ERGO    R217369  14.449   1.676   8.962  0.0481  0.3278  0.0382
 1331ERGO    R317370  14.254   1.766   8.796 -0.0503  0.0609  0.0035
 1331ERGO    R417371  14.484   1.714   8.621  0.0781  0.4051  0.0494
 1331ERGO    R517372  14.371   1.900   8.635 -0.2001  0.2476  0.0420
 1331ERGO    C117373  14.321   1.821   8.265  0.0032  0.1996  0.0234
 1331ERGO    C217374  14.369   1.812   7.919  0.0395 -0.4270  0.2039
 1332ERGO   ROH17375   5.172  12.862   6.308 -0.1616 -0.2171 -0.0547
 1332ERGO    R117376   5.323  12.808   6.541 -0.1427 -0.3857 -0.1048
 1332ERGO    R217377   5.297  12.955   6.774  0.1949 -0.2643 -0.1356
 1332ERGO    R317378   5.253  12.711   6.885 -0.1502 -0.1652 -0.0436
 1332ERGO    R417379   5.312  12.887   7.112  0.2371 -0.1910 -0.1227
 1332ERGO    R517380   5.410  12.699   7.065 -0.0873 -0.3676 -0.1127
 1332ERGO    C117381   5.279  12.619   7.414 -0.0624 -0.0553 -0.0289
 1332ERGO    C217382   5.161  12.443   7.579  0.1618 -0.2268 -0.2870
 1333ERGO   ROH17383  14.727   0.058   9.232  0.2388 -0.2263 -0.0112
 1333ERGO    R117384  14.686   0.164   8.974 -0.0102 -0.2481  0.0179
 1333ERGO    R217385  14.891   0.265   8.819 -0.1931 -0.0393 -0.0918
 1333ERGO    R317386  14.797   0.089   8.636 -0.1271 -0.1178 -0.0515
 1333ERGO    R417387  14.971   0.268   8.483 -0.1303 -0.1334 -0.0784
 1333ERGO    R517388  14.764   0.220   8.438 -0.1151 -0.1866 -0.1014
 1333ERGO    C117389  14.929   0.104   8.115 -0.0316 -0.2619 -0.0330
 1333ERGO    C217390  14.957   0.103   7.705  0.0677 -0.1308 -0.2321
 1334ERGO   ROH17391  14.084   9.387   9.307  0.0562 -0.0398 -0.1438
 1334ERGO    R117392  14.202   9.583   9.141 -0.0255 -0.0132 -0.1694
 1334ERGO    R217393  14.353   9.518   8.919 -0.0740  0.0220 -0.2089
 1334ERGO    R317394  14.178   9.682   8.791 -0.1360 -0.0056 -0.1609
 1334ERGO    R417395  14.357   9.586   8.580 -0.2939 -0.1368 -0.2461
 1334ERGO    R517396  14.310   9.794   8.626 -0.2260 -0.1037 -0.3063
 1334ERGO    C117397  14.195   9.780   8.263 -0.4801 -0.2552 -0.2229
 1334ERGO    C217398  13.975   9.749   8.104 -0.0204  0.3676  0.1186
 1335ERGO   ROH17399  10.155   0.698   9.159  0.0687  0.2721  0.1287
 1335ERGO    R117400  10.139   0.897   8.958 -0.0652  0.1487  0.0146
 1335ERGO    R217401  10.359   0.978   8.811 -0.1021  0.2641  0.0156
 1335ERGO    R317402  10.200   0.915   8.599 -0.0047  0.0015  0.0181
 1335ERGO    R417403  10.440   1.033   8.479 -0.0326  0.0090 -0.0109
 1335ERGO    R517404  10.234   1.094   8.444 -0.0473 -0.1224 -0.1302
 1335ERGO    C117405  10.338   1.005   8.088  0.0993 -0.3861 -0.0242
 1335ERGO    C217406  10.309   1.064   7.843  0.1212  0.5388 -0.2901
 1336ERGO   ROH17407  16.513   2.187   5.944  0.1552  0.1629  0.0384
 1336ERGO    R117408  16.394   2.416   6.059  0.1951  0.2435 -0.0783
 1336ERGO    R217409  16.232   2.404   6.283 -0.0502  0.3481 -0.2437
 1336ERGO    R317410  16.407   2.588   6.379 -0.0168  0.2210 -0.0568
 1336ERGO    R417411  16.181   2.595   6.566 -0.1122  0.2283 -0.1733
 1336ERGO    R517412  16.267   2.765   6.461  0.0213  0.2428 -0.0415
 1336ERGO    C117413  16.315   2.880   6.821 -0.1165  0.0392  0.0431
 1336ERGO    C217414  16.268   3.034   7.091 -0.0755 -0.2778 -0.2167
 1337ERGO   ROH17415   7.075   8.538   9.655  0.0118 -0.2258  0.0999
 1337ERGO    R117416   6.989   8.424   9.411 -0.0657 -0.1349  0.0848
 1337ERGO    R217417   6.796   8.542   9.252  0.0057  0.0109  0.1075
 1337ERGO    R317418   6.987   8.522   9.060 -0.0124 -0.0821  0.0983
 1337ERGO    R417419   6.740   8.582   8.914  0.0478  0.2850  0.1304
 1337ERGO    R517420   6.875   8.415   8.877 -0.1339  0.1528  0.0290
 1337ERGO    C117421   6.887   8.586   8.536  0.0553  0.3574  0.1351
 1337ERGO    C217422   7.029   8.602   8.189 -0.3900 -0.2049 -0.0265
 1338ERGO   ROH17423   1.429   8.099   9.066  0.0204 -0.1914  0.1237
 1338ERGO    R117424   1.545   8.116   8.808  0.0302 -0.2394  0.1241
 1338ERGO    R217425   1.394   8.159   8.580  0.0471 -0.1899  0.1182
 1338ERGO    R317426   1.566   8.366   8.544  0.1223 -0.2529  0.1195
 1338ERGO    R417427   1.484   8.290   8.273  0.0949 -0.2165  0.1215
 1338ERGO    R517428   1.688   8.308   8.347  0.0998 -0.2923  0.1195
 1338ERGO    C117429   1.698   8.561   8.061  0.1933 -0.2912  0.1246
 1338ERGO    C217430   1.649   8.687   7.772  0.2666 -0.3219 -0.0591
 1339ERGO   ROH17431   4.357  14.506   9.568  0.1622 -0.0013 -0.1129
 1339ERGO    R117432   4.283  14.562   9.301  0.0825  0.0268 -0.0848
 1339ERGO    R217433   4.346  14.395   9.090 -0.0291  0.0214 -0.1132
 1339ERGO    R317434   4.078  14.404   9.045 -0.0433  0.0850 -0.0218
 1339ERGO    R417435   4.198  14.371   8.779 -0.1343  0.1586 -0.0747
 1339ERGO    R517436   4.057  14.526   8.840 -0.0883  0.1630  0.0278
 1339ERGO    C117437   3.861  14.366   8.555 -0.2089  0.2983  0.0335
 1339ERGO    C217438   3.749  14.488   8.194  0.1001 -0.2495  0.0545
 1340ERGO   ROH17439   5.995   0.959   8.934  0.0818 -0.0030  0.0081
 1340ERGO    R117440   6.025   0.891   8.661  0.1004 -0.0073  0.0116
 1340ERGO    R217441   5.816   0.901   8.481  0.1304  0.0600 -0.0174
 1340ERGO    R317442   5.987   1.058   8.341  0.1987  0.0097  0.0080
 1340ERGO    R417443   5.783   0.978   8.146  0.2285  0.0286 -0.0350
 1340ERGO    R517444   5.999   0.955   8.125  0.2311 -0.0184  0.0218
 1340ERGO    C117445   5.924   1.170   7.819  0.3498 -0.0369 -0.0215
 1340ERGO    C217446   5.854   1.276   7.534 -0.1665  0.0519  0.0855
 1341ERGO   ROH17447  16.083  15.562   5.786 -0.1783  0.0177  0.0005
 1341ERGO    R117448  16.088  15.679   6.043  0.1275  0.0973 -0.0362
 1341ERGO    R217449  16.003  15.545   6.269 -0.2452  0.3849  0.0092
 1341ERGO    R317450  16.250  15.611   6.363 -0.0513 -0.2408 -0.0142
 1341ERGO    R417451  16.083  15.584   6.603 -0.2110  0.5443 -0.0170
 1341ERGO    R517452  16.205  15.756   6.548  0.3324  0.1257 -0.1959
 1341ERGO    C117453  16.361  15.668   6.885 -0.0095  0.0497 -0.0542
 1341ERGO    C217454  16.329  15.451   7.241  0.3486 -0.1656 -0.0887
 1342ERGO   ROH17455   2.230  12.555   5.693  0.0577  0.0953  0.0713
 1342ERGO    R117456   2.266  12.551   5.974  0.0176  0.0840  0.0763
 1342ERGO    R217457   2.055  12.573   6.151 -0.0253 -0.0789  0.0469
 1342ERGO    R317458   2.156  12.342   6.251  0.1140 -0.0243  0.0337
 1342ERGO    R417459   1.953  12.424   6.446 -0.0583 -0.2429 -0.0464
 1342ERGO    R517460   2.162  12.377   6.488 -0.0381 -0.0832  0.0478
 1342ERGO    C117461   1.990  12.120   6.711  0.0532 -0.2872 -0.1131
 1342ERGO    C217462   2.045  11.958   7.098  0.0313 -0.3684 -0.5155
 1343ERGO   ROH17463   8.288   5.798   5.969  0.0715 -0.2734  0.0848
 1343ERGO    R117464   8.285   5.928   6.221  0.0271 -0.1294  0.0115
 1343ERGO    R217465   8.100   6.123   6.285 -0.0156 -0.1224 -0.1144
 1343ERGO    R317466   8.053   5.961   6.499 -0.0035 -0.0129 -0.0287
 1343ERGO    R417467   7.963   6.227   6.585 -0.0249  0.0189 -0.1677
 1343ERGO    R517468   8.105   6.098   6.689 -0.0175  0.0875 -0.0996
 1343ERGO    C117469   7.839   6.137   6.960 -0.0190  0.2040 -0.1181
 1343ERGO    C217470   7.649   6.075   7.227 -0.4440 -0.0928  0.1598
 1344ERGO   ROH17471   5.272   1.214   5.348  0.1134  0.1510  0.1048
 1344ERGO    R117472   5.321   1.243   5.625 -0.0482  0.0823  0.1418
 1344ERGO    R217473   5.119   1.236   5.814 -0.1310 -0.2268  0.0469
 1344ERGO    R317474   5.274   1.042   5.925  0.0341 -0.1067  0.0298
 1344ERGO    R417475   5.097   1.129   6.141 -0.1199 -0.3545  0.0063
 1344ERGO    R517476   5.314   1.119   6.148 -0.1096 -0.1356  0.0666
 1344ERGO    C117477   5.229   0.884   6.437  0.0416 -0.3160 -0.0332
 1344ERGO    C217478   5.076   0.616   6.650  0.2410 -0.0616 -0.0588
 1345W        W17479   1.470  11.956  13.519 -0.0966 -0.1230  0.2619
 1346W        W17480   4.255  19.127  11.715  0.1997  0.3457 -0.1020
 1347W        W17481  12.516   9.760  12.936 -0.5219 -0.0252 -0.3955
 1348W        W17482  17.749   1.854  13.509  0.1892 -0.3030  0.0619
 1349W        W17483   1.325   2.518   0.264 -0.2307  0.1896  0.3005
 1350W        W17484  14.710  17.655  11.007 -0.0056 -0.1016 -0.0775
 1351W        W17485  15.145   1.597  14.413 -0.2651  0.0452  0.3010
 1352W        W17486  10.802  11.665   0.934  0.2082 -0.1007  0.0844
 1353W        W17487   0.824  18.690  14.736  0.1645 -0.0665 -0.0956
 1354W        W17488   9.161   3.451   0.227  0.1279 -0.0773  0.3597
 1355W        W17489  14.341   6.472  13.448 -0.2196 -0.2861  0.1313
 1356W        W17490  13.835  17.037   2.479  0.2067 -0.0411  0.0942
 1357W        W17491  11.688  10.508   1.230  0.2425 -0.1301 -0.4019
 1358W        W17492   4.561   9.010  14.508  0.0343  0.0089 -0.2299
 1359W        W17493   0.351   6.863  12.826  0.0704 -0.1348 -0.0073
 1360W        W17494   9.066  18.361   4.205 -0.1866  0.2605 -0.1483
 1361W        W17495   1.857   1.894   1.191 -0.3286 -0.0046 -0.1606
 1362W        W17496   5.990   5.120   2.319 -0.3390  0.1440  0.1294
 1363W        W17497  13.221   0.501  12.525 -0.0299  0.0331  0.3169
 1364W        W17498   4.870   7.369   2.444  0.2550  0.0905 -0.0540
 1365W        W17499   5.354   1.880  10.679  0.3246  0.2046  0.1278
 1366W        W17500  13.373   5.020   4.605  0.1133  0.2396 -0.1727
 1367W        W17501  13.777   2.594  10.912 -0.5574  0.2208 -0.1101
 1368W        W17502  12.961  10.104   1.405 -0.1052  0.1595  0.2796
 1369W        W17503   7.620  10.535   1.878 -0.1586 -0.3329  0.0047
 1370W        W17504   4.435   1.034  13.035 -0.0554  0.2062  0.0004
 1371W        W17505   0.251   8.558   1.047  0.0812  0.0542 -0.0764
 1372W        W17506  14.598   9.629  11.200  0.0665 -0.1580  0.2014
 1373W        W17507   3.615  16.333  14.684 -0.0679  0.0154 -0.2575
 1374W        W17508  17.669  10.165  13.053  0.0606  0.1927  0.2878
 1375W        W17509   0.637  18.154   4.504 -0.2564  0.0441  0.1408
 1376W        W17510   3.523   5.531   2.545 -0.0734  0.1459  0.0644
 1377W        W17511  16.622   3.369   3.755 -0.2005 -0.0625  0.0076
 1378W        W17512  11.215   3.313  13.188 -0.2493 -0.1402  0.1271
 1379W        W17513   0.077   1.295   0.173 -0.2111  0.0101 -0.1456
 1380W        W17514   4.029  14.051  15.141 -0.2575  0.2452 -0.0128
 1381W        W17515  11.970   5.412   4.711  0.1548 -0.3906  0.0900
 1382W        W17516   8.683   7.370   2.193 -0.0879 -0.0528 -0.2965
 1383W        W17517  12.000  12.818  11.444 -0.1676 -0.0961  0.0468
 1384W        W17518   2.454   4.789  10.675  0.2475 -0.3245 -0.0268
 1385W        W17519  12.109   8.432   2.064  0.0024  0.0053 -0.2213
 1386W        W17520   7.431   5.062   3.310 -0.0415 -0.3741 -0.1968
 1387W        W17521  17.495   9.634   1.401  0.2384  0.0306  0.1923
 1388W        W17522  15.754   6.518  15.150  0.0725  0.1746 -0.2156
 1389W        W17523   3.255  17.060  13.657  0.1341  0.1432  0.0347
 1390W        W17524   6.071   9.641  12.812  0.2732  0.1408  0.1197
 1391W        W17525   8.653  10.145   4.212 -0.2744 -0.0062  0.1358
 1392W        W17526  12.993  12.659   2.113 -0.1214  0.0817 -0.1404
 1393W        W17527  18.885  14.516   0.875 -0.0420 -0.2380 -0.0313
 1394W        W17528  10.588  10.491   0.344  0.1297 -0.1697 -0.1805
 1395W        W17529  17.876  11.209   0.206  0.1086  0.1174  0.2246
 1396W        W17530   9.266   4.257  13.763  0.2250 -0.1357  0.2556
 1397W        W17531   5.857   6.472   2.655  0.1848 -0.0446 -0.2935
 1398W        W17532  11.029  11.008  14.379 -0.1057 -0.1892 -0.2169
 1399W        W17533   6.425   2.151   0.868  0.0274 -0.0347  0.1845
 1400W        W17534   7.111   2.915  13.098 -0.0415 -0.0677  0.0841
 1401W        W17535  17.596   1.747  12.624  0.1804 -0.1463 -0.2015
 1402W        W17536  17.288   0.020   3.970  0.3202 -0.0616  0.0030
 1403W        W17537  18.708  18.513  13.239  0.2132  0.1163 -0.0147
 1404W        W17538   0.041   0.982  10.864 -0.1241  0.0257 -0.2400
 1405W        W17539   3.703   1.233   4.946  0.1109 -0.0655  0.2201
 1406W        W17540  14.239  17.933  11.213  0.1570 -0.2265  0.1097
 1407W        W17541   0.210  16.154   0.395 -0.2559  0.0401 -0.0756
 1408W        W17542  15.273  11.174  11.137  0.0529  0.0027 -0.3926
 1409W        W17543   8.339  18.494   3.067 -0.0646  0.0322 -0.1073
 1410W        W17544   4.797   7.882   2.040 -0.0161 -0.0640 -0.2690
 1411W        W17545   4.619   4.533   2.654 -0.0046  0.2469 -0.0110
 1412W        W17546  13.235  17.858   3.939 -0.0009 -0.4334  0.1143
 1413W        W17547  12.541   2.178  13.058  0.0039  0.0652  0.2751
 1414W        W17548   3.025  13.025  14.813  0.0023 -0.0873  0.1316
 1415W        W17549  18.343  10.787  10.567  0.1577 -0.0992  0.0605
 1416W        W17550  10.135   0.532   4.345 -0.1341 -0.3013  0.1407
 1417W        W17551  13.056   4.716   3.269  0.4004 -0.1079 -0.0347
 1418W        W17552   7.920  15.317   0.363 -0.2467 -0.2619 -0.1510
 1419W        W17553   3.705   9.322   3.515  0.1240  0.0148 -0.1018
 1420W        W17554  10.235  10.570   2.050 -0.0579 -0.0719 -0.1234
 1421W        W17555  18.429  13.457  13.438  0.0619  0.0187 -0.2956
 1422W        W17556   2.881   3.832   0.713  0.2357 -0.2221 -0.1260
 1423W        W17557   1.631  17.689  15.031 -0.1073 -0.0801 -0.1070
 1424W        W17558   9.062   1.119  14.509 -0.1160  0.1798  0.1125
 1425W        W17559  18.747  16.537  11.065 -0.1400  0.0155 -0.1178
 1426W        W17560   8.263   6.136   5.575 -0.1113  0.0322  0.1823
 1427W        W17561  14.181  10.259  13.415  0.0438 -0.3502  0.0467
 1428W        W17562   4.780  13.642  12.511  0.1699  0.0739  0.2394
 1429W        W17563  12.625  19.050   0.563  0.2896  0.0158  0.1981
 1430W        W17564  16.955  15.772   0.809  0.0059  0.2031  0.2631
 1431W        W17565  17.380  13.845   1.840 -0.0280 -0.0769  0.1665
 1432W        W17566  10.327  13.929  11.378 -0.0681  0.2930 -0.0503
 1433W        W17567  12.532   2.227  11.564  0.2129  0.1795  0.2822
 1434W        W17568  19.127  16.391   4.180  0.1732 -0.2231  0.2299
 1435W        W17569  14.999  11.250  14.526 -0.2132 -0.3586  0.0440
 1436W        W17570  11.133   9.708   1.304 -0.1175 -0.1633 -0.0025
 1437W        W17571  12.324   1.178   0.174 -0.1573  0.2496 -0.1215
 1438W        W17572   0.823  15.028  14.798 -0.5042  0.0317  0.0224
 1439W        W17573  12.859  11.424   0.719 -0.2709 -0.1457 -0.3788
 1440W        W17574  17.308   8.202   2.712  0.0388  0.4371 -0.0465
 1441W        W17575   8.323  13.465   2.636 -0.2412 -0.5650  0.1747
 1442W        W17576   1.859   1.409   1.389  0.0631  0.0140  0.1306
 1443W        W17577   9.544  18.358   4.686 -0.2128 -0.0182  0.0371
 1444W        W17578   7.932  18.611   2.263 -0.2147 -0.1071 -0.1946
 1445W        W17579   3.605  17.482   0.781  0.0285  0.1420 -0.1016
 1446W        W17580  18.142  10.193   2.993  0.1670 -0.0871 -0.0292
 1447W        W17581  14.068   8.953   1.505  0.0420  0.1355 -0.1468
 1448W        W17582   0.370   1.260   9.780 -0.0321 -0.3486 -0.3315
 1449W        W17583  11.110   9.603  14.072  0.1628  0.1801  0.1410
 1450W        W17584  12.735  17.152  10.291  0.1538  0.1186 -0.0572
 1451W        W17585   3.992   9.014  13.282  0.1530 -0.0374 -0.0964
 1452W        W17586  11.527  13.098   4.437  0.0093  0.3730 -0.0118
 1453W        W17587  16.493   6.270  10.701 -0.2584 -0.0862 -0.2495
 1454W        W17588  18.715   2.178   1.054  0.0477 -0.2064 -0.0725
 1455W        W17589  12.717  12.474  12.088  0.2774  0.1252  0.1205
 1456W        W17590   9.333   1.492  14.869  0.0038  0.0124 -0.3059
 1457W        W17591   5.392  11.837  12.685  0.0273  0.0034  0.0130
 1458W        W17592   6.731   6.158  13.688 -0.2941 -0.2186  0.1485
 1459W        W17593  13.443   9.619  13.104 -0.0918  0.2786  0.0841
 1460W        W17594  16.726  14.817   3.223 -0.1422  0.0129  0.1029
 1461W        W17595   0.404   0.604  14.593  0.0125  0.0677  0.3850
 1462W        W17596   8.168   1.939   1.972  0.3470 -0.2316 -0.0437
 1463W        W17597   1.682   3.766  11.077 -0.3507  0.1645  0.1624
 1464W        W17598  11.404   0.575  14.730 -0.1975  0.0983  0.1041
 1465W        W17599  11.797  14.264  12.201 -0.1308  0.2011  0.2111
 1466W        W17600  11.897  16.081   4.255 -0.1291  0.1067 -0.0973
 1467W        W17601  10.696  13.729  15.125  0.0682 -0.0985  0.1155
 1468W        W17602  10.508  11.502   1.401 -0.0481  0.2420  0.2443
 1469W        W17603  10.738   8.354   4.207  0.0826  0.3026 -0.1106
 1470W        W17604  16.753  14.148  10.807  0.0027 -0.0052  0.1199
 1471W        W17605   6.791  14.997   5.023  0.1587  0.0660  0.0892
 1472W        W17606   9.464  17.942   0.125  0.0147  0.0022  0.1704
 1473W        W17607  12.642   8.947   1.610 -0.0558 -0.1721  0.2121
 1474W        W17608   1.913  13.114  10.668  0.0885  0.1799  0.2962
 1475W        W17609   7.224  11.469   3.737 -0.1678  0.2179  0.4498
 1476W        W17610   3.127  16.117   2.898  0.4235  0.2074 -0.2659
 1477W        W17611  13.333  13.043  11.674 -0.1914 -0.1802 -0.4443
 1478W        W17612  13.457  10.081  13.275 -0.0725 -0.0108  0.2897
 1479W        W17613   8.462   2.402   4.596  0.2834  0.1645  0.4157
 1480W        W17614  10.400  14.544   0.061 -0.0223 -0.2500  0.0219
 1481W        W17615  16.890   5.385   1.914 -0.5510  0.0706 -0.0057
 1482W        W17616   6.696  17.003  11.084  0.2622 -0.0772  0.0704
 1483W        W17617   8.581   2.495  13.900  0.1463  0.1968  0.0589
 1484W        W17618  15.207   5.178   4.609  0.1751  0.0808 -0.1180
 1485W        W17619   9.112  14.904   2.072  0.1911  0.0228 -0.1922
 1486W        W17620   5.859   8.173  12.821 -0.0908 -0.4684  0.2712
 1487W        W17621   3.979   1.623   4.260 -0.0495 -0.0031  0.1645
 1488W        W17622   1.838  13.260   2.908 -0.3186 -0.1684  0.0741
 1489W        W17623   2.019   7.299  13.935 -0.1180  0.1705 -0.0015
 1490W        W17624  15.666   9.867   5.895  0.2432  0.2402 -0.0246
 1491W        W17625   5.302  18.289   0.264  0.0025  0.4872  0.0635
 1492W        W17626   5.328   2.446  13.710  0.3969  0.0454  0.4429
 1493W        W17627   1.088   2.685   3.326 -0.0025  0.3518 -0.1849
 1494W        W17628   4.999   6.339   4.596  0.0247  0.0413 -0.1212
 1495W        W17629   1.486   3.971   2.822  0.1846 -0.2059  0.2813
 1496W        W17630  11.039   1.110  13.588  0.3459 -0.0154  0.0145
 1497W        W17631  18.946  11.416  13.269  0.1838  0.0455 -0.0683
 1498W        W17632   5.240   6.011   2.918  0.0028  0.4044 -0.1878
 1499W        W17633   8.576  10.153  10.398 -0.0145 -0.0759  0.1533
 1500W        W17634  16.872   5.980  13.255  0.1711 -0.2027 -0.1387
 1501W        W17635  17.762   4.690  11.570 -0.0455 -0.0792  0.2860
 1502W        W17636  17.722   2.495   2.392  0.4033 -0.1356 -0.1618
 1503W        W17637  18.208   3.028  10.246  0.3592  0.0767 -0.1062
 1504W        W17638  11.406  12.519   3.279  0.1607 -0.3346 -0.0379
 1505W        W17639  13.489  10.184   0.797  0.0565 -0.2540 -0.1547
 1506W        W17640   8.009  12.249   2.274 -0.3236 -0.0402 -0.0638
 1507W        W17641  10.635  11.253  11.752 -0.2013  0.3585  0.0114
 1508W        W17642   1.684   6.519   3.106 -0.0143  0.0023 -0.0577
 1509W        W17643   5.236   7.440   0.857 -0.1442 -0.0469 -0.2803
 1510W        W17644   3.657  12.403  14.009 -0.0610 -0.1807  0.0717
 1511W        W17645   9.408  12.586   5.548  0.0170 -0.3002 -0.1233
 1512W        W17646   9.162  14.551   3.139 -0.2347 -0.0149 -0.0251
 1513W        W17647   6.527  13.204   3.466  0.4693 -0.1014  0.1951
 1514W        W17648   3.648  18.694  13.028 -0.1544  0.0896  0.3343
 1515W        W17649   1.812   5.685   0.676  0.1197  0.4012  0.1680
 1516W        W17650  14.345  18.110  13.418  0.0780 -0.1734  0.0130
 1517W        W17651   0.184  13.011  14.251  0.0673 -0.1316  0.1599
 1518W        W17652   6.814   5.789  13.279  0.0778 -0.2818 -0.0461
 1519W        W17653   3.806  10.457  10.482 -0.0403 -0.2561 -0.0233
 1520W        W17654  14.451  10.472  12.450 -0.3765 -0.1662 -0.0356
 1521W        W17655   4.606   6.962  13.801  0.0927  0.2534  0.0276
 1522W        W17656  13.849  12.048   2.698 -0.1471  0.0862  0.1900
 1523W        W17657  17.704  16.958  10.340  0.2102 -0.1373  0.1597
 1524W        W17658  15.138   8.700  10.377 -0.1998 -0.0496  0.0112
 1525W        W17659   9.822  14.977   3.204 -0.3878  0.0262 -0.1420
 1526W        W17660   5.375   6.769  13.432 -0.0069 -0.1303  0.1305
 1527W        W17661   2.674  16.887  14.017 -0.0984  0.0491 -0.0931
 1528W        W17662   3.039   6.750   2.400 -0.0487 -0.1948 -0.3053
 1529W        W17663   3.962  15.200   4.529 -0.0838 -0.1855 -0.1056
 1530W        W17664  12.183   3.711   0.771  0.1232  0.0529 -0.1013
 1531W        W17665  14.953  14.951  14.774  0.2855 -0.1167 -0.2342
 1532W        W17666   8.865  12.448   0.044  0.0903 -0.1235 -0.0243
 1533W        W17667   6.695   9.033  12.275 -0.2552  0.1973  0.1794
 1534W        W17668   1.871   3.118   1.533 -0.1382 -0.0111 -0.0327
 1535W        W17669   6.847   4.042  15.082  0.3751  0.1943  0.3303
 1536W        W17670   4.623   4.203  15.207 -0.3113 -0.0089  0.0061
 1537W        W17671   3.909  17.055   2.152  0.3220 -0.1359  0.2637
 1538W        W17672   1.603  12.367  12.101  0.0112 -0.0903 -0.1807
 1539W        W17673   4.582  11.397  14.608 -0.0305 -0.2859 -0.2098
 1540W        W17674   4.138  17.722   0.717 -0.2845  0.1419  0.1024
 1541W        W17675   7.656  10.257  13.301 -0.3148  0.1679 -0.0285
 1542W        W17676   3.269  16.629  11.455  0.0618 -0.1096 -0.0169
 1543W        W17677   3.972   9.840  10.402  0.0569  0.0783 -0.0934
 1544W        W17678  16.592   9.808  11.963 -0.0214  0.1108  0.1445
 1545W        W17679  16.619   6.108  11.292  0.0561  0.0210  0.1453
 1546W        W17680  10.738  18.134  11.358 -0.4118  0.0081  0.0000
 1547W        W17681  18.422   7.007   0.412 -0.1893  0.0278 -0.0310
 1548W        W17682  18.989  13.022   3.867  0.2961  0.0202  0.1572
 1549W        W17683   8.732   5.288   0.458  0.0080  0.1288  0.5903
 1550W        W17684   8.140  10.656  14.916  0.2493 -0.0256 -0.0744
 1551W        W17685   3.479  16.964   3.614  0.1332 -0.0357  0.1155
 1552W        W17686   3.161   8.265   3.272 -0.1255  0.0988  0.3003
 1553W        W17687  16.084  15.587  11.357  0.1696 -0.1594 -0.0605
 1554W        W17688  17.673  15.446   3.971  0.0848  0.0081 -0.2699
 1555W        W17689   8.025  10.995   1.781 -0.1473 -0.1708  0.2415
 1556W        W17690   3.317  17.794   1.370  0.0883 -0.2061  0.0380
 1557W        W17691  16.557  15.449  11.401  0.2567  0.0186  0.3278
 1558W        W17692   0.194  17.767   3.987 -0.0185 -0.2668  0.1627
 1559W        W17693  12.086   5.668   3.767 -0.0417  0.0967 -0.3664
 1560W        W17694  15.979  12.314   4.151 -0.1700 -0.1145 -0.1093
 1561W        W17695  11.771  13.335   3.458 -0.1836 -0.0816  0.0945
 1562W        W17696   8.768  11.594  12.449  0.1831  0.1404  0.1818
 1563W        W17697  16.668   6.311  14.554  0.2427  0.0008 -0.0206
 1564W        W17698   1.728  12.718   4.590  0.1693  0.1176  0.0880
 1565W        W17699  18.125  18.509   4.601  0.1954 -0.3087 -0.0337
 1566W        W17700   4.963  18.792   4.474 -0.2547  0.0092 -0.0821
 1567W        W17701  15.894   1.825  14.514 -0.0605 -0.3070  0.0171
 1568W        W17702  18.279   8.293   0.103  0.1528  0.0760 -0.0722
 1569W        W17703  19.146   9.313   4.085 -0.0068 -0.0079 -0.0298
 1570W        W17704   2.839  12.817   0.529 -0.1519  0.2088 -0.1626
 1571W        W17705  11.126  12.085   3.212 -0.1232  0.0264 -0.3174
 1572W        W17706   4.743   3.772  10.805 -0.0228 -0.1388  0.2336
 1573W        W17707  17.991   2.523  12.109 -0.1131 -0.0465  0.3179
 1574W        W17708  11.810  17.389   3.819  0.0410  0.2277 -0.0863
 1575W        W17709  18.563   7.171  11.549 -0.0060  0.0184  0.0552
 1576W        W17710  14.652  10.413  14.727 -0.0604 -0.1270 -0.0632
 1577W        W17711   4.402  13.209  11.649  0.1198 -0.0497  0.0282
 1578W        W17712   5.572   1.580   1.740 -0.1820  0.0415  0.1563
 1579W        W17713   9.313   5.734  11.936 -0.1616  0.0876 -0.2530
 1580W        W17714   0.922  14.314  11.966 -0.1312  0.0404 -0.2821
 1581W        W17715   7.376  18.624   4.911  0.2911  0.1408  0.1936
 1582W        W17716   4.172   9.365   0.221  0.0762 -0.0800  0.0578
 1583W        W17717  13.374  11.323   0.772 -0.2004  0.0418 -0.2803
 1584W        W17718  11.035   1.625  12.582 -0.4644 -0.2128  0.1081
 1585W        W17719  11.784  16.661  12.806  0.3300 -0.2934 -0.0587
 1586W        W17720  10.972   6.689   3.289 -0.0651 -0.3377 -0.0697
 1587W        W17721   7.189   8.686  13.898 -0.0653  0.0241 -0.2657
 1588W        W17722   1.804   5.749  11.557  0.0374  0.2322  0.0349
 1589W        W17723   0.824   7.814   1.443  0.1197 -0.0475 -0.0323
 1590W        W17724   5.729  13.235  11.475  0.0103 -0.3604  0.1004
 1591W        W17725   7.796  10.963  12.615  0.1008 -0.0498 -0.2641
 1592W        W17726  15.375   5.628  14.655 -0.0407  0.2184 -0.2718
 1593W        W17727   6.904  18.925   2.741  0.3690 -0.1109 -0.2461
 1594W        W17728   6.347  11.346   0.817  0.0100 -0.1332 -0.2496
 1595W        W17729  16.441  10.055  13.998  0.1722 -0.0703 -0.0515
 1596W        W17730   1.055   4.286   2.090  0.0064 -0.1671  0.1253
 1597W        W17731  19.037  16.937   4.719 -0.0395 -0.1253 -0.2551
 1598W        W17732  10.328   8.171   0.831 -0.4595  0.1663 -0.0089
 1599W        W17733   3.518   9.052  14.375  0.0308 -0.2711 -0.0787
 1600W        W17734   3.811  16.090  12.034  0.1988 -0.1687 -0.3267
 1601W        W17735   3.877  11.641   0.483 -0.1056 -0.0986 -0.1109
 1602W        W17736   3.928   8.272   0.982 -0.0167  0.1566  0.1541
 1603W        W17737  13.765  13.582   3.302  0.2481  0.2190 -0.0822
 1604W        W17738  10.555  16.416   1.406 -0.0792  0.1450 -0.2191
 1605W        W17739   6.374   8.163   0.174 -0.3244 -0.1229  0.1437
 1606W        W17740   5.623  14.171  12.243  0.0963  0.0047  0.0834
 1607W        W17741   7.160   3.952  13.570  0.1807  0.2115  0.0531
 1608W        W17742  17.793  18.681  12.957 -0.1443  0.3498 -0.0394
 1609W        W17743  11.357  10.306  14.710  0.1807  0.0694 -0.3143
 1610W        W17744   0.522  13.447  11.175 -0.2010 -0.0090  0.0599
 1611W        W17745   0.188   7.636   3.154  0.0088  0.2303  0.0681
 1612W        W17746   6.464   3.272   3.575  0.0601  0.2299  0.2418
 1613W        W17747   9.345  16.043   0.998 -0.0696 -0.1445 -0.0432
 1614W        W17748   0.296   4.377   0.113  0.1761 -0.0875  0.1269
 1615W        W17749   8.624  15.554   0.813 -0.0949  0.2370  0.0004
 1616W        W17750  15.063  14.320   4.073  0.2719  0.1102  0.0365
 1617W        W17751  13.024  14.365   4.207 -0.0124  0.1516  0.1930
 1618W        W17752  10.708   7.687  13.819 -0.2872 -0.1840  0.0419
 1619W        W17753  15.729   9.462  14.843  0.2121 -0.0327 -0.2388
 1620W        W17754  17.297   0.355  10.013  0.0289 -0.0750 -0.2296
 1621W        W17755  11.012  14.173   0.649 -0.0617 -0.0515  0.2984
 1622W        W17756   1.546   4.189   1.807 -0.3453 -0.2651 -0.0903
 1623W        W17757   2.976  19.146  11.788  0.1226  0.0682  0.1475
 1624W        W17758  10.166   5.290   2.896  0.2363  0.0308 -0.1585
 1625W        W17759  12.584   3.920  11.518 -0.1863  0.3102  0.2896
 1626W        W17760   7.462  11.571   5.398  0.0014  0.1256 -0.2733
 1627W        W17761   6.876   4.339   4.305  0.2514  0.0011  0.3285
 1628W        W17762  18.439  17.067  12.056 -0.1098  0.3160  0.2291
 1629W        W17763  18.007  13.730  13.223 -0.1287  0.2004 -0.0168
 1630W        W17764  10.021   8.538   1.788 -0.1373  0.2302  0.5190
 1631W        W17765  15.196  13.832  14.598 -0.1967 -0.0196 -0.0227
 1632W        W17766   0.553  14.492   3.426 -0.0086  0.1430  0.1872
 1633W        W17767  12.365  12.667  11.678 -0.0345  0.2563  0.0866
 1634W        W17768  18.923  14.959  15.048  0.0417  0.1863 -0.0734
 1635W        W17769  11.878  17.078  13.801 -0.0026  0.0910 -0.2965
 1636W        W17770  13.861   2.366   1.286 -0.1591 -0.0527 -0.0253
 1637W        W17771  10.792   8.932   1.224 -0.1783 -0.2583  0.0404
 1638W        W17772   8.544   0.842   4.199 -0.0470 -0.1150 -0.0994
 1639W        W17773   2.184   7.401   3.907 -0.2060 -0.0702 -0.1864
 1640W        W17774  18.630  15.079  14.645  0.1814 -0.0618  0.5357
 1641W        W17775   4.261  12.538  11.019  0.2855 -0.3882  0.0594
 1642W        W17776   6.150  14.786  14.148 -0.1126  0.2707  0.4252
 1643W        W17777  12.291   1.776   4.513  0.0032  0.1327  0.0937
 1644W        W17778  14.771   7.471  10.704 -0.1779 -0.0966  0.1863
 1645W        W17779   6.683  13.177  13.864 -0.0987  0.0610 -0.0345
 1646W        W17780   6.466   6.775  11.155 -0.0402 -0.1499  0.2367
 1647W        W17781  16.369  11.387  14.313  0.1923  0.2912  0.1336
 1648W        W17782  10.474  10.312  12.175 -0.0637 -0.1757  0.1945
 1649W        W17783  19.018   4.551  13.986  0.0281  0.1922 -0.2398
 1650W        W17784   1.252   1.253   3.687 -0.2276  0.3898  0.1111
 1651W        W17785   1.709   9.823  14.059  0.2266  0.1576  0.1843
 1652W        W17786   9.758  16.521  13.824  0.2983 -0.1440 -0.0660
 1653W        W17787  18.875   3.274   4.535  0.0852 -0.3911 -0.1432
 1654W        W17788  11.554   4.263  12.601  0.1391 -0.2572 -0.1174
 1655W        W17789   5.121   1.202  14.462 -0.2139  0.0552  0.3056
 1656W        W17790   2.802  17.248  10.976 -0.1869  0.0751 -0.1493
 1657W        W17791   5.934   7.914   6.091 -0.2192 -0.0556 -0.1294
 1658W        W17792   4.608   5.785   2.281  0.0121  0.1146 -0.1479
 1659W        W17793   9.135  12.450  13.292  0.2364  0.0823  0.0062
 1660W        W17794  12.688   3.951   2.871 -0.1310  0.4086 -0.0857
 1661W        W17795  13.970  10.808  12.769  0.1424 -0.0166  0.0290
 1662W        W17796   8.784  14.376  14.871 -0.1674  0.2212 -0.0622
 1663W        W17797   3.980  11.550   5.029 -0.1105  0.0714 -0.0805
 1664W        W17798  10.364   2.049   3.410  0.1803  0.3288 -0.1127
 1665W        W17799  15.255  14.573   1.704  0.2963  0.2744  0.0670
 1666W        W17800   2.042  18.967   2.103 -0.1243 -0.0962 -0.1603
 1667W        W17801  12.208  17.687   1.994  0.1923  0.1920  0.0176
 1668W        W17802   1.217  11.565   2.928  0.1681 -0.0292 -0.1095
 1669W        W17803   9.917  18.374  13.138  0.0229 -0.1851 -0.2657
 1670W        W17804  12.802   3.262   2.224 -0.1434  0.3322 -0.0637
 1671W        W17805   7.321  13.039  14.594  0.3274 -0.0372  0.1055
 1672W        W17806  15.744  10.202  10.695 -0.0060 -0.2282  0.1349
 1673W        W17807  16.658   1.744  13.083 -0.1472  0.1389 -0.1305
 1674W        W17808   2.748   0.318   2.524 -0.2169 -0.1446  0.2074
 1675W        W17809   6.665   1.794   4.143 -0.0122 -0.3416 -0.0540
 1676W        W17810   7.404  13.565  14.678  0.2307  0.1170 -0.2165
 1677W        W17811   3.035   7.512  13.253  0.0723 -0.0862 -0.2522
 1678W        W17812  13.519  12.940   3.043 -0.1984 -0.1452 -0.2042
 1679W        W17813   4.047  13.655   2.584 -0.5116 -0.0244 -0.1357
 1680W        W17814  12.862   3.193  12.528 -0.1046  0.1874  0.0616
 1681W        W17815  12.507   5.385   4.460 -0.0888  0.1267  0.0859
 1682W        W17816  17.778   9.933  12.007  0.0754  0.3528  0.0317
 1683W        W17817   7.822  18.915   0.012 -0.2630  0.2495 -0.0360
 1684W        W17818  17.718  18.375   2.081 -0.2894  0.0018 -0.0668
 1685W        W17819   8.635  17.736   3.544 -0.0780  0.2850 -0.3660
 1686W        W17820  18.122  16.051  12.057  0.0314  0.0577  0.0735
 1687W        W17821  18.402   8.586   1.363  0.2902  0.1023  0.3851
 1688W        W17822   5.904   1.539  13.184  0.3594 -0.1845  0.0506
 1689W        W17823   2.830   8.095   3.824  0.0645  0.3092 -0.0184
 1690W        W17824   6.111   5.515  13.326  0.4738 -0.0969  0.2432
 1691W        W17825   5.465  14.188   4.356 -0.3400 -0.0599  0.2415
 1692W        W17826   0.588   2.537  14.846 -0.1413 -0.0250 -0.0700
 1693W        W17827  18.022   0.373  10.579  0.1716  0.2161 -0.1694
 1694W        W17828   5.292   8.286  10.615 -0.2401  0.1603 -0.2070
 1695W        W17829  15.504  17.568  10.922 -0.2895 -0.2653  0.3203
 1696W        W17830  17.821   8.323   4.100 -0.1749  0.0729 -0.2381
 1697W        W17831   2.579   4.947  12.076 -0.0243  0.1379  0.0568
 1698W        W17832   1.545  15.472  13.870  0.0514  0.1854 -0.0043
 1699W        W17833   7.121  17.356  11.647  0.0775 -0.1991  0.1643
 1700W        W17834   3.510  16.198   2.290 -0.0980  0.0459  0.1826
 1701W        W17835   5.331   2.953   3.043  0.2533  0.3792 -0.2197
 1702W        W17836  16.260  17.905  10.835  0.4134  0.2397  0.0786
 1703W        W17837   5.316   7.869   3.501  0.1609 -0.0147 -0.0213
 1704W        W17838   9.882   7.357   4.010  0.1211 -0.2798  0.0721
 1705W        W17839   6.219   9.193   4.897 -0.0547 -0.1238 -0.3500
 1706W        W17840   4.989   1.503   0.993  0.0375  0.0750 -0.1332
 1707W        W17841  12.225  12.996   2.681 -0.1683 -0.1521  0.1908
 1708W        W17842  13.431  10.354   3.684  0.0832  0.0975 -0.0861
 1709W        W17843   7.804   2.737  10.718 -0.1031  0.2319  0.1404
 1710W        W17844  16.710  10.313   5.130  0.2690  0.1752 -0.2413
 1711W        W17845  10.553   2.986   1.662 -0.0754  0.0601  0.2951
 1712W        W17846  14.973  13.467  15.070  0.0075  0.1574  0.2469
 1713W        W17847   9.670  13.464   0.086 -0.0373 -0.0637 -0.0128
 1714W        W17848   3.344   5.360  14.834  0.4680 -0.4273 -0.3468
 1715W        W17849   8.947   5.916   3.159  0.2013 -0.1634  0.1873
 1716W        W17850   7.519   4.497  14.207 -0.0020 -0.2973 -0.2386
 1717W        W17851  12.165  18.071  14.740  0.2514 -0.1030 -0.1530
 1718W        W17852   7.868   5.813  14.343 -0.2126  0.0795 -0.0128
 1719W        W17853  13.933   6.919  10.769  0.1014 -0.1201  0.3314
 1720W        W17854   2.093  19.025  14.218 -0.1420 -0.0565 -0.2575
 1721W        W17855  15.209  15.109  14.320 -0.0098 -0.0333 -0.0255
 1722W        W17856   9.084  14.723  12.958 -0.1788 -0.0313  0.0741
 1723W        W17857  10.747  14.529   2.052 -0.0551 -0.0968  0.0641
 1724W        W17858  13.863  11.404   0.717 -0.0832 -0.0527  0.1021
 1725W        W17859   5.652   3.889   1.326  0.2320 -0.0123 -0.3370
 1726W        W17860   6.734   2.210   2.550  0.1396  0.0893  0.4091
 1727W        W17861  14.019   2.393  13.055  0.0959 -0.1214 -0.1361
 1728W        W17862  13.552   2.195  11.633 -0.2465  0.2646  0.0526
 1729W        W17863  10.890  17.893   4.060  0.1718 -0.1520 -0.0168
 1730W        W17864   9.099  16.024   0.065  0.3539 -0.0915 -0.0730
 1731W        W17865   4.607   6.874  14.945  0.3734 -0.0971  0.1468
 1732W        W17866  18.383   8.622   2.887  0.1867  0.1690 -0.3337
 1733W        W17867   9.486  11.686  10.605  0.2230 -0.2178 -0.2899
 1734W        W17868   8.372  17.185  12.525 -0.0894 -0.0677  0.1478
 1735W        W17869   3.757   4.048  10.819  0.2978  0.0614  0.2670
 1736W        W17870   0.489   1.701   1.297 -0.1005  0.1636 -0.3071
 1737W        W17871  11.269   2.749   2.028 -0.2409 -0.0868 -0.0770
 1738W        W17872   5.492   9.285  11.731  0.0869  0.2965 -0.2365
 1739W        W17873   4.752   2.334   2.663 -0.0215 -0.2413  0.0061
 1740W        W17874  10.191   2.185  12.773 -0.2421 -0.0879 -0.0727
 1741W        W17875   7.444   4.657  11.255 -0.0820  0.0197 -0.0117
 1742W        W17876  18.834  19.025   4.747  0.3495  0.0710  0.1610
 1743W        W17877   8.396  11.397  10.657 -0.2291  0.3123 -0.3532
 1744W        W17878   6.971  13.796   1.191  0.2977  0.1456  0.1738
 1745W        W17879   9.705  14.559   6.110  0.2078 -0.3841  0.2941
 1746W        W17880  12.516   2.652  11.220  0.1849  0.1249  0.0467
 1747W        W17881  12.467  18.773  14.405 -0.1315 -0.1641 -0.0407
 1748W        W17882  12.562   4.039   0.617 -0.0733  0.0107  0.0577
 1749W        W17883   9.366  10.549   1.322 -0.3045  0.1876 -0.1988
 1750W        W17884   0.296  19.083  11.125  0.1127 -0.2256 -0.0033
 1751W        W17885  13.375  14.625  12.921  0.0976  0.0325 -0.1217
 1752W        W17886  10.069  10.924  11.124 -0.3440  0.0945 -0.2406
 1753W        W17887   7.319   1.896   4.760  0.0370  0.2526  0.1654
 1754W        W17888  11.566   9.008   5.709 -0.0167 -0.0160  0.1449
 1755W        W17889   7.617   4.140   3.733 -0.2310 -0.1919  0.2004
 1756W        W17890   5.399  18.056   4.560 -0.0441 -0.1837 -0.2057
 1757W        W17891   7.083   9.914  13.543 -0.0503 -0.0572  0.1973
 1758W        W17892   0.707   4.455  14.992  0.0216 -0.2997 -0.0392
 1759W        W17893   3.262   2.589   1.016 -0.4152  0.2894 -0.0783
 1760W        W17894  16.715   3.166  13.498 -0.0049 -0.1507  0.2739
 1761W        W17895   5.572   7.920  12.108 -0.1343 -0.1125  0.0195
 1762W        W17896   9.777  14.719  14.929  0.4719 -0.1037 -0.0927
 1763W        W17897   8.420   8.420   4.197  0.3349 -0.0390 -0.1864
 1764W        W17898  15.298  11.646  13.633 -0.1744  0.1150 -0.3790
 1765W        W17899   2.556   7.499   1.892 -0.1643 -0.1261  0.0034
 1766W        W17900  16.336  13.942  11.945 -0.0298 -0.1237  0.1022
 1767W        W17901  17.799   2.889   2.691 -0.0025  0.0625 -0.1692
 1768W        W17902   7.360   4.356  13.358 -0.0429 -0.0795 -0.1377
 1769W        W17903  10.664   3.688   1.248  0.1738  0.1508  0.0173
 1770W        W17904  12.438  14.673  11.121  0.1228  0.0145 -0.4261
 1771W        W17905   8.145  13.148   3.451 -0.1346 -0.1325  0.0589
 1772W        W17906   3.519   3.302  13.049  0.5063  0.3380 -0.1197
 1773W        W17907   9.036   8.085   0.291  0.1951  0.2122 -0.2687
 1774W        W17908  10.593   6.872  11.531  0.0712  0.0843  0.3166
 1775W        W17909  11.949   7.372  10.959  0.4783 -0.2435  0.1264
 1776W        W17910   1.749  12.223  10.851  0.1571  0.0563 -0.0732
 1777W        W17911   6.765   9.753  11.061 -0.1764  0.1354  0.1624
 1778W        W17912   9.692   4.506   5.403 -0.2275 -0.0053 -0.1421
 1779W        W17913  18.406  15.892  11.054  0.0721 -0.5517  0.1850
 1780W        W17914   2.711   6.218  13.843 -0.0402  0.2441  0.0386
 1781W        W17915   6.128   0.457  11.000 -0.0245  0.2271  0.2186
 1782W        W17916  15.234   9.543  14.903  0.5647 -0.2005 -0.1148
 1783W        W17917   8.930  13.169  13.756  0.1219 -0.1553 -0.5213
 1784W        W17918  14.115   9.122   2.551 -0.0067  0.0150  0.0678
 1785W        W17919  17.980   3.745   2.999 -0.1163 -0.0828 -0.1075
 1786W        W17920  10.486  11.291   9.698 -0.2378  0.0211 -0.2544
 1787W        W17921   1.435   5.468  14.612 -0.0544  0.1845 -0.2429
 1788W        W17922   5.838  14.598   4.757  0.0589 -0.1666 -0.1011
 1789W        W17923   9.564   6.368   1.107  0.2511  0.0415  0.0249
 1790W        W17924   4.087   9.054  14.176  0.1720 -0.2701  0.0629
 1791W        W17925   4.357  11.666   0.234 -0.0182 -0.0827 -0.2117
 1792W        W17926   4.895  16.868   4.174 -0.1328  0.1463  0.3146
 1793W        W17927   5.024  11.535   4.537  0.0071  0.0852 -0.1989
 1794W        W17928  13.967  18.063  13.779  0.1522 -0.2393 -0.1131
 1795W        W17929  12.857   2.538   5.072  0.1433 -0.2451  0.3690
 1796W        W17930   1.589  14.043  10.970  0.0358 -0.3176  0.0382
 1797W        W17931  18.461   8.327  12.171  0.0556  0.1715  0.1243
 1798W        W17932   9.416  13.781  14.533  0.1012  0.1554 -0.1327
 1799W        W17933   1.475   2.091  14.223  0.0836  0.2201  0.0870
 1800W        W17934   6.218   6.637   0.216 -0.1134  0.1588 -0.5075
 1801W        W17935   2.164  17.571  12.631 -0.2403 -0.0915  0.0953
 1802W        W17936   9.189   0.532   1.459 -0.0283 -0.3585  0.2294
 1803W        W17937  12.751   1.200  13.042  0.3137 -0.1205 -0.0439
 1804W        W17938   6.787   4.113   4.877 -0.0054  0.1977  0.1389
 1805W        W17939  12.852   1.659  14.957 -0.0203  0.2181  0.0413
 1806W        W17940   1.750   0.446  12.167 -0.3022 -0.2372 -0.1701
 1807W        W17941   0.914  18.625  11.395  0.3966 -0.0658 -0.1762
 1808W        W17942   1.929   6.857  13.811 -0.2322  0.0914 -0.1690
 1809W        W17943   6.460  14.501   4.239 -0.1129 -0.0678 -0.3847
 1810W        W17944   7.797  13.906  13.550  0.4742 -0.2011  0.1255
 1811W        W17945  15.101  18.290   2.360  0.2711  0.1374  0.0589
 1812W        W17946   2.700   0.688  10.757  0.4182  0.2540 -0.0391
 1813W        W17947   4.060  12.714   2.407  0.2842 -0.1330  0.0975
 1814W        W17948  14.125   4.898  11.893 -0.0188  0.2770 -0.0887
 1815W        W17949   2.811  10.990  11.644 -0.1066 -0.3867 -0.0950
 1816W        W17950  10.055   3.421  12.627  0.1740 -0.1657 -0.2729
 1817W        W17951  11.704   4.354  10.752  0.0468 -0.1104 -0.1548
 1818W        W17952  10.753   5.037  12.764 -0.0746 -0.0004  0.0828
 1819W        W17953  14.666  11.670   1.375  0.0706 -0.0787 -0.0471
 1820W        W17954  11.500  12.165  14.899 -0.0827  0.2171  0.2328
 1821W        W17955  11.336  13.569   5.555  0.0816  0.2295 -0.1527
 1822W        W17956   1.795  10.450   3.584 -0.1550 -0.2922 -0.2950
 1823W        W17957   5.339  17.562  12.412  0.2390 -0.1909  0.0308
 1824W        W17958  11.665  15.405   0.031 -0.3887 -0.3263 -0.2039
 1825W        W17959   3.300   3.736   2.398  0.3419  0.4020 -0.3299
 1826W        W17960   1.637  16.668  10.666  0.0563  0.0035 -0.0351
 1827W        W17961  18.200   6.670   4.183  0.2458  0.0850  0.2759
 1828W        W17962   9.399   4.888  11.507 -0.0560  0.1399 -0.2327
 1829W        W17963   9.703   0.298   1.724  0.0030  0.2276  0.1924
 1830W        W17964   5.604   6.585   5.120  0.0961 -0.2023  0.1203
 1831W        W17965  10.994  15.465  10.975 -0.3102 -0.2839  0.0552
 1832W        W17966  17.478   3.766   4.797 -0.1598  0.0831 -0.2189
 1833W        W17967   9.413   0.140  10.342  0.1562 -0.1700  0.0307
 1834W        W17968   2.159  16.487   1.449 -0.0830  0.0695 -0.2708
 1835W        W17969   1.856   8.666  10.780  0.1014  0.3131 -0.1279
 1836W        W17970   4.426  12.702   1.552  0.4373  0.1027 -0.1780
 1837W        W17971  18.198  15.638   4.215 -0.3149  0.1547 -0.0156
 1838W        W17972   7.586   7.501   0.986  0.1321 -0.1959  0.2157
 1839W        W17973   7.805   8.866   1.753  0.0301  0.0673  0.0260
 1840W        W17974  14.355  16.317  15.190 -0.1972  0.2983  0.0841
 1841W        W17975   3.405  18.428   4.274 -0.2131 -0.1436 -0.0466
 1842W        W17976  17.148  16.495   5.470  0.3733 -0.1815 -0.1669
 1843W        W17977   0.849  10.370  12.410  0.0836  0.1512  0.5145
 1844W        W17978  13.714  17.968   3.255  0.2010  0.0788 -0.1740
 1845W        W17979   2.862   1.243   2.458 -0.0893  0.0205 -0.1674
 1846W        W17980  16.878   8.600  11.097 -0.1022  0.2595  0.1024
 1847W        W17981  17.046  17.629  12.704 -0.1262  0.0847 -0.2622
 1848W        W17982   5.403  11.181   4.678 -0.0255  0.1016 -0.2354
 1849W        W17983   1.565  19.141  14.937  0.5717 -0.1772 -0.0131
 1850W        W17984  15.490  15.416   5.022 -0.2114 -0.0408 -0.0557
 1851W        W17985  16.511  18.487   9.785  0.1928 -0.3038  0.1617
 1852W        W17986   7.412   2.982  14.559 -0.3452  0.0247  0.1360
 1853W        W17987   4.226   3.843   0.402 -0.0177 -0.2273 -0.2590
 1854W        W17988   6.283  16.834  12.004  0.1569  0.0966 -0.1176
 1855W        W17989   6.149   6.892  10.340  0.5167  0.1909 -0.1804
 1856W        W17990   2.736   1.522   1.344  0.0140 -0.0327 -0.2758
 1857W        W17991   1.774   6.006  13.674 -0.0779 -0.3121  0.0406
 1858W        W17992  10.489   2.768  11.372 -0.1670  0.1708 -0.1237
 1859W        W17993   7.617   8.671   2.343 -0.0310  0.3437 -0.2735
 1860W        W17994  11.952  17.374   4.559  0.0447  0.1062 -0.0231
 1861W        W17995   5.309   4.799  14.838  0.2618  0.0947  0.1345
 1862W        W17996   9.230   1.854  14.453  0.2885  0.1710  0.0632
 1863W        W17997  11.198  16.027   1.424 -0.0449  0.3224 -0.2127
 1864W        W17998   7.754   6.022  13.848  0.1967 -0.0420 -0.2441
 1865W        W17999  16.316  10.083   0.761  0.4217 -0.1839  0.1436
 1866W        W18000  10.316  13.136  13.260 -0.0890 -0.2935 -0.0011
 1867W        W18001   1.458   9.427  11.258  0.1596 -0.2364 -0.0206
 1868W        W18002  18.422  18.084   1.742 -0.0906 -0.1559  0.0103
 1869W        W18003   9.918  17.768   1.458 -0.1544 -0.0612 -0.1069
 1870W        W18004   1.654  14.225   0.784 -0.5552 -0.2740 -0.2975
 1871W        W18005  14.052   0.263   1.644 -0.0066 -0.4006 -0.2703
 1872W        W18006   1.296   2.577   2.027 -0.0793  0.0911 -0.3590
 1873W        W18007   3.438  16.331  12.525 -0.0493  0.0411 -0.0157
 1874W        W18008   8.345  12.492   4.740  0.0487 -0.2652  0.0341
 1875W        W18009  17.916  12.643   3.190 -0.1735  0.2494  0.0200
 1876W        W18010   4.335  14.964   4.721  0.2512  0.0251 -0.2600
 1877W        W18011   9.896  11.161  14.008 -0.2783  0.0874 -0.1306
 1878W        W18012  17.975  17.702   3.355  0.1586 -0.1117 -0.3063
 1879W        W18013  15.383   5.550   1.887 -0.0757  0.0176 -0.4608
 1880W        W18014  18.837  16.658  11.586  0.0977  0.3386  0.0117
 1881W        W18015   0.401   0.143   4.322  0.3407  0.1032 -0.0299
 1882W        W18016   9.331   5.977   4.979  0.2257 -0.2685  0.0643
 1883W        W18017   5.628   9.089   5.079  0.1713 -0.0314  0.1701
 1884W        W18018   0.832  15.356   5.741 -0.1061  0.1634  0.6285
 1885W        W18019   8.781   4.458   1.058 -0.1337  0.2540 -0.1009
 1886W        W18020   5.968   3.749   3.984 -0.3102 -0.2668 -0.1198
 1887W        W18021   8.875  10.917   3.392  0.6071 -0.2067  0.0968
 1888W        W18022  11.319  13.447   4.927 -0.0894 -0.1878  0.0622
 1889W        W18023  11.188  13.103   4.063  0.0403  0.2175 -0.2920
 1890W        W18024   2.983   4.924  10.445  0.0486 -0.0098  0.0939
 1891W        W18025   6.296   1.237  10.667 -0.2082 -0.1730  0.0279
 1892W        W18026   7.734  15.511   3.939  0.1770 -0.0326  0.1742
 1893W        W18027   7.499   6.165   3.828  0.0980 -0.3415  0.1095
 1894W        W18028  13.158   7.767  12.795 -0.1662  0.1314  0.1683
 1895W        W18029   8.535   5.646   1.451 -0.1077 -0.1962 -0.1947
 1896W        W18030   7.705   3.331   1.135 -0.2001  0.1401 -0.3359
 1897W        W18031  13.611   7.844   5.420 -0.3280  0.3106  0.1671
 1898W        W18032  14.400  16.512   3.955 -0.4328 -0.2002 -0.2641
 1899W        W18033   2.842  12.191   2.513  0.1537  0.0105 -0.3022
 1900W        W18034   7.736   4.735   3.968 -0.0410  0.1696 -0.2166
 1901W        W18035  13.172   2.418   1.985 -0.2144 -0.0052 -0.4210
 1902W        W18036  14.580   5.952  11.075 -0.1355  0.0068 -0.0615
 1903W        W18037   2.785   0.493  11.971 -0.0721 -0.3784 -0.2395
 1904W        W18038   1.029  14.027  14.804  0.0795  0.0357 -0.1871
 1905W        W18039  11.060  10.598   5.013  0.1900 -0.2968  0.2097
 1906W        W18040   8.893   3.179   0.831  0.1783 -0.2632  0.0527
 1907W        W18041   8.446   8.610  12.733 -0.3923 -0.3203  0.2088
 1908W        W18042  11.175   6.196   2.743 -0.2611  0.3026 -0.0548
 1909W        W18043   5.618  13.738   0.065 -0.2730 -0.0323  0.4683
 1910W        W18044  13.468   3.569  11.608 -0.6960  0.1197 -0.2879
 1911W        W18045  10.294   3.947   1.747  0.0746  0.0141 -0.0719
 1912W        W18046  16.690   2.663   5.435  0.0102 -0.0584 -0.0011
 1913W        W18047  15.642  10.382  15.191 -0.0472  0.0510  0.1433
 1914W        W18048   8.592   1.396   4.454 -0.0065 -0.3566  0.1655
 1915W        W18049   2.756  16.524   0.614 -0.0541 -0.0696  0.1042
 1916W        W18050  12.029   4.330  14.846 -0.2704 -0.2810  0.1958
 1917W        W18051  15.473   1.904   1.532 -0.0649  0.0871 -0.2158
 1918W        W18052   5.577   4.668  13.095  0.0684  0.1315  0.2768
 1919W        W18053  11.249  16.852   1.893 -0.0042  0.0195 -0.0114
 1920W        W18054  16.129  14.692  11.151  0.3766  0.1744  0.2474
 1921W        W18055  16.835  17.863  15.125  0.2020  0.0104 -0.2841
 1922W        W18056   8.727   6.325  11.594 -0.0143 -0.0826  0.1905
 1923W        W18057  11.031  17.572  12.184  0.0787 -0.3065 -0.0298
 1924W        W18058  16.221  12.037   3.248 -0.0379 -0.0642  0.1865
 1925W        W18059  18.394  11.173   0.253 -0.3431 -0.0962  0.2481
 1926W        W18060   9.623  16.353   1.372 -0.0550 -0.4054 -0.2775
 1927W        W18061   7.652   5.105  10.968  0.1896 -0.3094 -0.1677
 1928W        W18062   1.728  17.639   4.325 -0.1847  0.0792  0.3904
 1929W        W18063   8.155  12.481  10.782  0.2023  0.1815 -0.0936
 1930W        W18064  10.784  17.905   5.008 -0.3715  0.0652 -0.0058
 1931W        W18065  17.410   8.423  11.063 -0.0610 -0.0945  0.0802
 1932W        W18066  17.793  11.389  12.081 -0.2251  0.1541 -0.0534
 1933W        W18067   0.298   9.000   3.853 -0.0890 -0.0009  0.1971
 1934W        W18068  16.424   0.980  12.738 -0.1810  0.0295  0.2208
 1935W        W18069  10.782  16.992   0.206 -0.1032 -0.4198  0.0318
 1936W        W18070  13.159   7.023   3.874  0.0489 -0.0560 -0.0687
 1937W        W18071   5.069   8.838   4.559  0.1592 -0.0914  0.0746
 1938W        W18072   8.113  13.537  13.901  0.1056 -0.0813  0.0366
 1939W        W18073   6.892  11.722   6.011  0.5344  0.3365  0.1819
 1940W        W18074   7.214   7.171   0.901 -0.0559 -0.3103  0.0479
 1941W        W18075  16.908   5.464  13.374  0.0105 -0.4461 -0.2159
 1942W        W18076  10.925  12.632   4.988 -0.2698 -0.0533  0.0289
 1943W        W18077   7.711  14.116  15.177  0.2876  0.2661  0.0222
 1944W        W18078   9.101   7.569   1.956  0.0923  0.1203  0.0333
 1945W        W18079  17.906  18.477   0.982  0.3511  0.3542  0.0371
 1946W        W18080   9.140   3.751  12.796  0.2109  0.1643  0.2934
 1947W        W18081   4.136   0.597   3.646  0.1567  0.0264 -0.3662
 1948W        W18082  13.343   5.382   0.368  0.0869 -0.1652  0.1175
 1949W        W18083   2.528   4.871  13.140 -0.0283 -0.2341 -0.1346
 1950W        W18084   0.334  15.978  12.863  0.1005 -0.0708  0.1504
 1951W        W18085   2.641   2.492   5.029  0.3319 -0.0777 -0.0518
 1952W        W18086  12.358  13.164  11.660 -0.0225  0.0532 -0.1573
 1953W        W18087   7.245   8.402  10.709 -0.2333  0.2639 -0.1044
 1954W        W18088  15.182   5.699   3.793 -0.2440  0.0631 -0.2536
 1955W        W18089  10.706   8.580   2.221 -0.3264 -0.1158  0.0806
 1956W        W18090  17.324   1.938  13.854  0.1441 -0.1188 -0.1220
 1957W        W18091   9.604   2.575   3.663  0.1922  0.0138 -0.1536
 1958W        W18092   6.672  11.850  14.222 -0.0360 -0.0895 -0.2371
 1959W        W18093  14.171  17.956   4.545 -0.4908  0.2816  0.0765
 1960W        W18094  15.708   5.938   4.759 -0.1607 -0.1272  0.2863
 1961W        W18095  18.259  19.073  10.785  0.0382 -0.0527  0.2023
 1962W        W18096  10.100  10.083  11.782 -0.1585  0.3834  0.1169
 1963W        W18097  17.485   0.318  12.923  0.1750  0.5114 -0.2624
 1964W        W18098   0.641  13.531   5.215 -0.0607  0.3468  0.0821
 1965W        W18099   1.002  13.184   2.337 -0.1839 -0.1164 -0.0932
 1966W        W18100  15.781   6.470   1.444  0.0012  0.1547  0.0104
 1967W        W18101  13.835   7.831  10.429 -0.1627  0.2897  0.0847
 1968W        W18102   1.886   3.561   1.329 -0.1004 -0.1351  0.1080
 1969W        W18103  15.315  10.827   0.160 -0.0166  0.1163  0.0634
 1970W        W18104   6.378   7.324   5.193  0.1786 -0.0716 -0.0733
 1971W        W18105  11.794  15.013  10.930 -0.0492  0.0349 -0.0349
 1972W        W18106   4.816   0.298  12.563  0.3759  0.1092  0.0582
 1973W        W18107   3.333   0.852  12.484  0.0906 -0.0687 -0.0757
 1974W        W18108  16.667  15.499  13.660 -0.0157 -0.1113 -0.0785
 1975W        W18109  11.931   0.743  13.556 -0.3297 -0.0417 -0.2007
 1976W        W18110   5.661   1.341  10.757  0.1481 -0.0996 -0.0720
 1977W        W18111   6.387   3.319   4.090  0.1269 -0.0274  0.2963
 1978W        W18112   3.799   9.315   0.620  0.1738 -0.0300  0.0063
 1979W        W18113   7.588   5.484   1.932 -0.0148  0.1901 -0.0738
 1980W        W18114  13.758   5.721   2.477  0.1253 -0.2052  0.1704
 1981W        W18115   1.555   0.831   3.495  0.0617 -0.2539  0.0146
 1982W        W18116   3.395   6.992  14.538  0.0932 -0.1111 -0.1978
 1983W        W18117   0.318   5.426   5.212  0.0911 -0.0585  0.3650
 1984W        W18118  13.359   7.857  14.147 -0.0220  0.1534  0.1770
 1985W        W18119   0.401   4.999  13.318 -0.3530  0.1584  0.1214
 1986W        W18120  15.515   5.514  14.217  0.0956 -0.1479  0.1334
 1987W        W18121   1.473  16.460   0.194 -0.0066  0.1147 -0.0715
 1988W        W18122  13.679  14.333   2.778 -0.1049 -0.3408 -0.2513
 1989W        W18123   0.128  10.159   1.709 -0.1679  0.1043  0.2656
 1990W        W18124  16.179  12.466  11.511 -0.0412  0.0454  0.1385
 1991W        W18125   5.419   2.097  11.243  0.1552  0.1453  0.0281
 1992W        W18126  15.645  17.427   4.496 -0.2825  0.1694 -0.1194
 1993W        W18127  16.249   6.154   4.824  0.0694 -0.4083 -0.0564
 1994W        W18128  18.151   9.205   5.343  0.1334 -0.0468 -0.2419
 1995W        W18129   6.610   3.625   5.626 -0.1191  0.0213  0.1754
 1996W        W18130  18.546  14.600   2.514  0.0261 -0.1752 -0.0241
 1997W        W18131   3.703  13.218   2.626  0.0706  0.0692  0.1532
 1998W        W18132   7.070  12.862  12.339  0.0382 -0.1781 -0.3003
 1999W        W18133   3.053   7.161  14.917 -0.1345  0.2451 -0.3121
 2000W        W18134   8.361   3.368   1.666 -0.1394  0.1674 -0.0491
 2001W        W18135  14.854  16.666   2.297  0.2128  0.1859  0.1512
 2002W        W18136  16.077   2.882   2.040 -0.2468  0.0330 -0.0876
 2003W        W18137  18.970  10.610   1.800  0.1965 -0.2892  0.0515
 2004W        W18138  11.238   5.736   4.987 -0.0846 -0.4195  0.0466
 2005W        W18139   9.706   8.868  11.095  0.1264 -0.0718  0.0986
 2006W        W18140   1.642  10.517  10.401  0.3442 -0.1070 -0.1180
 2007W        W18141  14.461  13.217  10.504  0.0299  0.1778  0.2114
 2008W        W18142  15.433   0.949   9.942 -0.1017  0.2472  0.2270
 2009W        W18143  15.132   0.336   4.787  0.1866  0.2461 -0.0943
 2010W        W18144  15.168  15.293   0.938 -0.1947  0.3140  0.0577
 2011W        W18145  11.545   1.100  12.168  0.0480 -0.0071  0.0557
 2012W        W18146   6.908   2.790  14.355 -0.1346 -0.2221  0.0350
 2013W        W18147  10.028  16.083   9.946  0.1152 -0.0787  0.1785
 2014W        W18148   0.449  10.750  14.387 -0.2035 -0.0518  0.0580
 2015W        W18149  16.001  16.013   4.901  0.3574  0.0015 -0.0740
 2016W        W18150  18.869   5.712   4.028 -0.3034 -0.1107  0.1458
 2017W        W18151  16.729   4.901   2.057 -0.3147  0.0464 -0.0722
 2018W        W18152   0.910   0.274   4.355 -0.0935  0.0298 -0.1616
 2019W        W18153  13.497  14.788  13.402 -0.0511 -0.1270  0.4329
 2020W        W18154  10.228  14.406  11.691 -0.2724 -0.0531 -0.0712
 2021W        W18155   1.519  16.886  14.557 -0.0857 -0.0071 -0.1684
 2022W        W18156   7.503   9.038  14.058  0.0468 -0.1804  0.0356
 2023W        W18157  17.462   0.769   1.215 -0.2263 -0.0535 -0.2158
 2024W        W18158  13.060  13.454   9.322 -0.2414  0.0106 -0.1774
 2025W        W18159  16.784   1.611   4.349  0.0436 -0.1704  0.0093
 2026W        W18160  12.539   1.123   2.241  0.3154 -0.6016 -0.0018
 2027W        W18161  10.867  17.882   1.755 -0.0939 -0.1291 -0.1346
 2028W        W18162  15.089   3.032   1.084  0.0932 -0.0279 -0.0261
 2029W        W18163   1.589  17.497   1.193  0.4795 -0.1373 -0.1367
 2030W        W18164  18.907   9.658   1.859  0.1232 -0.1100  0.3058
 2031W        W18165  13.350   2.536   4.308  0.0591  0.2910  0.1358
 2032W        W18166   8.773  15.812   4.007  0.0962  0.0904 -0.1931
 2033W        W18167  10.686  17.974  13.437  0.1363  0.0730  0.2456
 2034W        W18168   6.856   5.116  10.219 -0.0058 -0.1065  0.0218
 2035W        W18169  15.341   3.274  13.502 -0.3078 -0.0936  0.0153
 2036W        W18170  11.462  13.532   3.912 -0.0470  0.2208 -0.1001
 2037W        W18171  17.171   1.934   4.350  0.2711  0.0193 -0.0764
 2038W        W18172  14.772  16.080   5.165 -0.1432 -0.3334 -0.3759
 2039W        W18173  16.986  18.109   0.374  0.2862 -0.2263 -0.1458
 2040W        W18174   7.275  12.099   9.808 -0.2013 -0.1208 -0.0685
 2041W        W18175  10.563   2.714   2.906  0.2011 -0.3777  0.1105
 2042W        W18176   3.861   1.192  11.820 -0.3456 -0.0271  0.0431
 2043W        W18177  16.360  17.692   5.850  0.1295  0.3532  0.0514
 2044W        W18178   5.871  17.720   2.636  0.1687  0.0905  0.0900
 2045W        W18179   0.299   0.562   1.040 -0.3170  0.0548 -0.1319
 2046W        W18180   2.763   7.557   4.921  0.2155  0.0209 -0.2245
 2047W        W18181  12.829  13.175  14.106 -0.0020 -0.2357  0.0921
 2048W        W18182   3.818  15.479  12.717  0.3231  0.0717  0.1743
 2049W        W18183   6.032   1.062   4.594  0.0219 -0.2019 -0.0504
 2050W        W18184  15.234   5.171   0.884  0.1400 -0.3720  0.4631
 2051W        W18185   2.325  15.827   4.736  0.1939  0.1232 -0.0502
 2052W        W18186  13.386  12.012  13.230  0.0340  0.3289  0.1601
 2053W        W18187  15.959  17.135   9.771 -0.0045  0.0459 -0.1503
 2054W        W18188  16.334  14.698  11.688 -0.3547 -0.2821  0.0272
 2055W        W18189  15.333  10.933  12.327  0.1471  0.3253  0.0678
 2056W        W18190  14.938   6.207   0.197  0.2402 -0.1942  0.1762
 2057W        W18191  16.019  18.103   4.387  0.4491 -0.1485  0.0540
 2058W        W18192   5.331  11.742   2.853 -0.0367  0.2052 -0.2228
 2059W        W18193  10.632   0.427  11.038  0.3413 -0.0141  0.0832
 2060W        W18194   9.472   8.603  13.440  0.0017 -0.0324  0.2274
 2061W        W18195   2.188   0.840  14.637  0.0604  0.1867 -0.1674
 2062W        W18196  15.841  16.795   3.993 -0.0362  0.0174 -0.1576
 2063W        W18197   6.413   4.786  12.173 -0.0090 -0.1754  0.0897
 2064W        W18198  13.837   2.347   0.184  0.2219 -0.3019 -0.1094
 2065W        W18199  14.341   6.665  10.694 -0.0925 -0.0181 -0.0140
 2066W        W18200  17.471  13.812   3.464  0.0381  0.1146 -0.1717
 2067W        W18201   1.363  16.148  13.243 -0.0291 -0.2693  0.6110
 2068W        W18202  11.553   4.083  15.127 -0.2201 -0.1312  0.4618
 2069W        W18203  14.903   0.798   0.875  0.0159  0.0579  0.1034
 2070W        W18204   3.707  18.316  12.543 -0.1526 -0.0133 -0.1791
 2071W        W18205  18.011   9.131  10.634 -0.0422  0.0724  0.0854
 2072W        W18206  12.022  15.867   3.075 -0.0423  0.1359  0.2216
 2073W        W18207   3.188   7.829   5.271  0.1410  0.0112 -0.0704
 2074W        W18208  13.812   3.819   3.455  0.1068  0.0139  0.0950
 2075W        W18209   1.783   6.828   4.394 -0.0791  0.1656 -0.1202
 2076W        W18210  12.793  17.571  12.136 -0.0350  0.2717  0.1679
 2077W        W18211   3.793  12.506   0.061  0.1680 -0.0816 -0.3968
 2078W        W18212  12.988   5.413   4.871  0.0551 -0.0587  0.0148
 2079W        W18213   6.103   2.189   3.941 -0.3556 -0.2818  0.3473
 2080W        W18214  19.117   5.146   3.844  0.1122  0.0987 -0.0325
 2081W        W18215  17.995  15.685   2.421 -0.0600  0.1580  0.0137
 2082W        W18216   6.790   5.314  11.288 -0.3677  0.0563 -0.1324
 2083W        W18217   2.081   4.431  13.825  0.0656 -0.0833 -0.1676
 2084W        W18218  14.214  13.230  12.236 -0.0862  0.3731 -0.1262
 2085W        W18219  11.343  11.418   1.074  0.3155  0.0036  0.2959
 2086W        W18220   8.520   4.627   4.722  0.1705  0.0729  0.1247
 2087W        W18221   7.238   8.333   4.378 -0.3891  0.3222  0.2655
 2088W        W18222   5.286   5.048   0.584  0.0365  0.0312  0.0797
 2089W        W18223   2.427   5.410  12.135 -0.1296 -0.1227  0.3040
 2090W        W18224  18.742   1.819  14.112  0.0102  0.0583  0.0264
 2091W        W18225   6.721  15.812   3.648 -0.3017 -0.2695  0.0028
 2092W        W18226  10.035   7.815  11.458 -0.0003 -0.0429  0.1905
 2093W        W18227  15.671   5.993  14.962 -0.0700 -0.2358 -0.0907
 2094W        W18228   3.657  11.422   2.321  0.1413  0.0701  0.1069
 2095W        W18229   8.548  12.003  15.148  0.0836 -0.0614 -0.0509
 2096W        W18230   8.988   5.431   1.206  0.2423  0.4082  0.1865
 2097W        W18231   7.164  16.826  11.365  0.1285  0.0613 -0.0405
 2098W        W18232   4.219  13.820   1.764  0.2853 -0.5379  0.0024
 2099W        W18233  14.797  15.599   4.087 -0.0951  0.0636  0.1183
 2100W        W18234   6.349   2.984  13.497  0.0776  0.1062  0.1570
 2101W        W18235   0.512  18.204   2.889 -0.1223  0.1347  0.3230
 2102W        W18236  12.051   6.291  14.471  0.0470  0.4149 -0.1263
 2103W        W18237  14.978   2.320   3.595  0.4877 -0.1023 -0.0185
 2104W        W18238   7.809  10.557   4.487 -0.1924 -0.6102 -0.1855
 2105W        W18239   3.653   4.306  11.231 -0.0626  0.1571  0.0600
 2106W        W18240  12.505  16.427   1.384  0.1204  0.0139 -0.2309
 2107W        W18241   7.944  17.884  14.668 -0.3413 -0.0042 -0.1366
 2108W        W18242  16.032  12.567   0.102  0.0860  0.0390  0.2751
 2109W        W18243   9.664  10.311  15.026 -0.1231  0.0049 -0.2893
 2110W        W18244   0.986   2.986   4.529 -0.2235  0.1913  0.1368
 2111W        W18245   7.784  13.667  13.026  0.0696 -0.4058 -0.1493
 2112W        W18246   9.832   5.857  12.041  0.1739 -0.1920  0.0492
 2113W        W18247  11.818  13.993   2.942 -0.0195  0.0640 -0.2672
 2114W        W18248   9.422   1.623   2.336 -0.0561  0.1647 -0.2815
 2115W        W18249   2.045  11.260  13.330  0.3496  0.3678 -0.1123
 2116W        W18250   9.816  13.842   1.307 -0.2015 -0.1462  0.0313
 2117W        W18251  13.946  13.935  14.230  0.2570  0.0259 -0.1551
 2118W        W18252   9.918   0.920   4.576  0.3932  0.0959  0.1306
 2119W        W18253  16.498  13.391  11.838 -0.1710 -0.1303 -0.2191
 2120W        W18254  17.746  11.826  12.329  0.2480 -0.0548  0.1983
 2121W        W18255   2.601  16.185   2.931  0.0169  0.1789  0.1098
 2122W        W18256   3.614   4.083   2.052  0.2184 -0.1738 -0.1096
 2123W        W18257  16.116  18.825  13.699  0.0376 -0.1671 -0.1149
 2124W        W18258  14.411   4.538   1.716 -0.1021 -0.1804  0.2409
 2125W        W18259  13.272  18.046  11.266  0.1995  0.1807  0.1414
 2126W        W18260   0.496  17.080   0.222 -0.0101  0.1133  0.0284
 2127W        W18261   0.968   3.724   3.111  0.0367  0.0768 -0.2596
 2128W        W18262  16.504   9.704  11.000 -0.1357 -0.0323 -0.0805
 2129W        W18263   2.175   8.391   1.830 -0.2525 -0.0765 -0.1314
 2130W        W18264  12.694  18.901  13.201  0.1909 -0.2812  0.1719
 2131W        W18265  16.260   7.579  11.098  0.0313  0.1994  0.2312
 2132W        W18266   9.807   5.071  11.289  0.1045  0.0496 -0.3516
 2133W        W18267   7.825  12.524   3.998 -0.1022  0.1260 -0.1036
 2134W        W18268  16.815   1.439   2.744  0.1985 -0.1582 -0.1199
 2135W        W18269   2.495   4.784   3.790 -0.3597 -0.0936 -0.0865
 2136W        W18270  16.713  10.987   0.543 -0.2726 -0.3508 -0.2100
 2137W        W18271   5.992   3.137   0.109 -0.1129  0.2159  0.0700
 2138W        W18272   0.423   3.109   2.965  0.3067  0.0937 -0.0096
 2139W        W18273   8.285  17.298   2.848  0.1450 -0.0826  0.1102
 2140W        W18274  10.441  10.734  13.496  0.2088  0.1124 -0.2412
 2141W        W18275   3.833   8.145  14.171  0.0110 -0.2002  0.0261
 2142W        W18276   7.034  18.923   1.910  0.1791 -0.0151 -0.1573
 2143W        W18277  10.630  18.519  13.644  0.1529  0.3081 -0.4328
 2144W        W18278   0.087   2.653  11.053  0.0516  0.0804 -0.0074
 2145W        W18279  11.565  11.255  12.322 -0.3019 -0.0073 -0.1452
 2146W        W18280   7.157   5.118   1.176  0.1385 -0.0847 -0.0241
 2147W        W18281   4.688   6.769   4.728  0.0216  0.0314 -0.1703
 2148W        W18282  17.629   1.714   4.314  0.0898 -0.1932  0.2653
 2149W        W18283   9.480  17.854   1.664  0.2547 -0.0494  0.0936
 2150W        W18284   7.128  10.822   1.951  0.1936 -0.1437 -0.3722
 2151W        W18285   1.669  15.625   0.538  0.0877  0.1499  0.1434
 2152W        W18286   4.223  10.367  10.772 -0.3504 -0.0338  0.0805
 2153W        W18287  10.209   7.855  15.174 -0.3570  0.0837 -0.0427
 2154W        W18288   0.812  13.028   0.125 -0.0579  0.0088 -0.2614
 2155W        W18289   5.698  19.040   2.381 -0.1314  0.1341  0.2180
 2156W        W18290   5.216   0.367  10.881 -0.2581  0.0596 -0.2643
 2157W        W18291  11.519   9.107  14.620 -0.0819  0.0687 -0.0850
 2158W        W18292   5.846  16.379  10.041 -0.0505 -0.1184  0.0703
 2159W        W18293  11.627   4.329   3.366  0.1073  0.0232 -0.0589
 2160W        W18294   6.367  12.665  10.557 -0.1562  0.0591  0.0703
 2161W        W18295  18.987  18.146   1.813 -0.0492  0.1279 -0.0620
 2162W        W18296  10.296   8.465  11.363  0.0431 -0.2703  0.1865
 2163W        W18297   1.027   2.142  11.858  0.2224  0.2515  0.1915
 2164W        W18298   9.556  19.002  11.605  0.0269 -0.2870 -0.1495
 2165W        W18299   9.441   5.419   1.069 -0.4138  0.2287  0.4355
 2166W        W18300   7.343   1.022  11.443  0.2068  0.2547 -0.1123
 2167W        W18301  13.449  15.337  11.102  0.4011  0.4018 -0.1641
 2168W        W18302  17.987   4.443  10.000  0.0935 -0.1867  0.3157
 2169W        W18303  13.979  11.879  12.185  0.2275  0.0591  0.0810
 2170W        W18304  10.941  16.284   1.878  0.1088 -0.1278  0.0877
 2171W        W18305   8.045  11.324  11.644 -0.2825 -0.0103  0.0796
 2172W        W18306  16.388  14.142   0.842 -0.1013 -0.0024 -0.2498
 2173W        W18307   7.244  17.754  11.295  0.0653  0.3084 -0.1249
 2174W        W18308  10.148  12.635   4.932  0.0245 -0.0590  0.4600
 2175W        W18309  18.254  17.525   4.894  0.1234  0.2573  0.5078
 2176W        W18310   7.437   8.572  11.917  0.1550  0.1294  0.0354
 2177W        W18311  16.443   0.595  13.276  0.1981 -0.0743 -0.4278
 2178W        W18312   4.067   3.649  13.565 -0.0443 -0.0126 -0.3136
 2179W        W18313  10.633   0.151  13.518 -0.1400  0.2211 -0.1972
 2180W        W18314   2.034  13.503  10.367 -0.6257  0.2752 -0.4580
 2181W        W18315  10.166  11.853  13.974 -0.2592 -0.1356 -0.0668
 2182W        W18316  16.855   4.395   3.221  0.1362 -0.1811 -0.3486
 2183W        W18317  12.067   1.727   3.706  0.2560  0.2804  0.1504
 2184W        W18318   8.510   5.373  12.698 -0.0828 -0.0149  0.0823
 2185W        W18319  16.426   3.174   1.632  0.3254 -0.1745 -0.3745
 2186W        W18320  17.207   3.204   0.978  0.2861 -0.0063  0.1383
 2187W        W18321   9.181   5.359  13.743 -0.0219 -0.0312 -0.2739
 2188W        W18322   6.574  11.499   5.279 -0.1636  0.1119 -0.2209
 2189W        W18323   2.854   6.296   0.102 -0.0466  0.1672 -0.2470
 2190W        W18324   1.274  11.832  11.393  0.4615 -0.3107 -0.1638
 2191W        W18325   2.703   7.900   3.212  0.1130  0.1778 -0.0826
 2192W        W18326  15.980   6.374   2.784  0.0342  0.0761  0.4516
 2193W        W18327   9.123   5.083   4.343 -0.3690 -0.4203 -0.0886
 2194W        W18328   8.256   1.756  14.544 -0.1126  0.1221  0.0722
 2195W        W18329  11.534  11.672   4.653  0.0779 -0.0389 -0.0042
 2196W        W18330   7.748   9.842  10.822 -0.1534 -0.2074  0.0058
 2197W        W18331  12.838   9.510  12.387 -0.1478  0.1467  0.2919
 2198W        W18332   7.808   5.115   4.676 -0.4029 -0.1116 -0.0503
 2199W        W18333  18.788   3.323   1.519  0.0098  0.1627  0.1162
 2200W        W18334   7.532   1.870  10.953  0.1272  0.1344  0.0092
 2201W        W18335   4.042  10.617  11.152 -0.0113  0.0737 -0.0824
 2202W        W18336  10.367  17.497   2.298  0.1832 -0.0950  0.1673
 2203W        W18337   7.065   6.654   1.993  0.2700  0.0355  0.2160
 2204W        W18338  18.891   1.761  14.903  0.1835  0.1569  0.1690
 2205W        W18339   8.265   0.863  14.213 -0.4156  0.3221  0.3319
 2206W        W18340   7.635   0.855  12.342 -0.1109  0.3454 -0.2534
 2207W        W18341  18.329  13.254   1.740 -0.2136  0.1537  0.1019
 2208W        W18342  11.511   4.896   0.386 -0.2216  0.1812 -0.1398
 2209W        W18343   5.799   5.293   4.131 -0.1598  0.0558  0.0740
 2210W        W18344   9.365   1.109   2.776 -0.2338 -0.0819  0.1609
 2211W        W18345  12.578  12.136  13.050  0.2860  0.1359 -0.0183
 2212W        W18346   4.296   1.527   3.418 -0.2007 -0.1951 -0.0776
 2213W        W18347   0.173  11.582  15.082  0.0461  0.1219 -0.1219
 2214W        W18348  14.340   1.560   3.354 -0.1049  0.1410 -0.3143
 2215W        W18349   3.465  11.274  12.539 -0.4498 -0.1716  0.2328
 2216W        W18350  15.174   6.075  13.464  0.1315 -0.2303  0.0829
 2217W        W18351  17.097   0.194   3.548 -0.0288 -0.0694  0.3560
 2218W        W18352   0.993   0.187  12.656  0.0833  0.2437  0.2355
 2219W        W18353  13.734  18.154   0.015 -0.1614  0.0314  0.1520
 2220W        W18354   1.095   4.017  12.237  0.0581  0.1656  0.1878
 2221W        W18355   3.136   9.275  14.149 -0.0753  0.2166  0.3958
 2222W        W18356  15.650  18.461   2.935 -0.3956 -0.0352  0.0387
 2223W        W18357   9.583   9.036  13.104 -0.1119 -0.1492  0.1908
 2224W        W18358  13.790  12.564  14.375 -0.0320  0.1564  0.0620
 2225W        W18359  17.650  17.358  10.022  0.0633  0.1699 -0.0269
 2226W        W18360  17.862  17.658  11.387 -0.0673  0.2261 -0.0284
 2227W        W18361   5.368  17.186   1.035 -0.0033  0.3181  0.1492
 2228W        W18362  17.248   6.933  13.414 -0.0191 -0.3472 -0.0257
 2229W        W18363   0.748  17.492  13.728 -0.3847  0.2092 -0.2686
 2230W        W18364  11.992   4.834   0.726 -0.1155  0.0075  0.4447
 2231W        W18365  13.393  12.188   1.120 -0.0177  0.0833 -0.0344
 2232W        W18366  18.459  10.533   2.587  0.4118  0.7308  0.1676
 2233W        W18367  14.815  13.934  13.736 -0.0801 -0.0156 -0.1391
 2234W        W18368  15.544  14.284   0.073  0.1206  0.1841 -0.1068
 2235W        W18369   9.718   4.688   1.324  0.1610 -0.1078  0.1230
 2236W        W18370  18.186  12.175   1.218  0.1039 -0.3655 -0.0361
 2237W        W18371   7.764  16.730   3.358 -0.0003  0.1692 -0.0582
 2238W        W18372   7.501   2.878   2.527 -0.0937  0.0113 -0.2035
 2239W        W18373   3.850   3.832  14.991  0.0110 -0.0589  0.1185
 2240W        W18374  14.373   6.938  14.302  0.0928  0.0408  0.2423
 2241W        W18375  14.362  10.918  10.706 -0.0314 -0.0320  0.0380
 2242W        W18376  13.435  18.635   2.947  0.2748  0.1520  0.0915
 2243W        W18377  13.224   1.451  11.004 -0.0839 -0.1593  0.4870
 2244W        W18378  14.671  14.935  14.363 -0.0625  0.1973 -0.1307
 2245W        W18379   9.635   7.261  12.639 -0.1099  0.3627  0.0132
 2246W        W18380  14.980   4.259   2.528  0.2661 -0.1705 -0.1142
 2247W        W18381  11.230  16.713  10.203  0.3766  0.1894 -0.2853
 2248W        W18382  10.963  14.072   4.838  0.0581  0.0178 -0.1369
 2249W        W18383  10.946  17.719  13.090  0.1476 -0.1629 -0.0023
 2250W        W18384  13.157  11.327   1.185 -0.3762  0.1942 -0.0296
 2251W        W18385   3.910  10.065  11.795  0.0394 -0.0391 -0.1149
 2252W        W18386   9.441   5.305  12.197 -0.2187  0.0449 -0.0938
 2253W        W18387   7.543   6.622   0.082 -0.0454 -0.0332 -0.1998
 2254W        W18388  12.768  11.841   0.419 -0.2332 -0.2953  0.1258
 2255W        W18389   2.042   1.659   2.135  0.0624 -0.0255  0.0880
 2256W        W18390   4.692   4.756   0.142 -0.2801 -0.3027 -0.1726
 2257W        W18391   5.021   3.234   3.945  0.0332  0.5294 -0.2232
 2258W        W18392   7.444   4.758  10.724 -0.1866  0.0182  0.1358
 2259W        W18393   6.858   7.850  11.936 -0.0336 -0.4389  0.0905
 2260W        W18394   4.783   9.775   4.364  0.1810 -0.2696 -0.0261
 2261W        W18395  14.101  12.855  10.480  0.2839 -0.2527 -0.0215
 2262W        W18396   8.083  16.632  14.046  0.2954 -0.1434 -0.0544
 2263W        W18397   4.220  17.344  14.190 -0.4180 -0.0249 -0.1937
 2264W        W18398   5.570  15.385   5.145  0.0490  0.0100  0.0468
 2265W        W18399  11.140  10.029   3.710  0.0567  0.4317 -0.3335
 2266W        W18400  16.760   3.296   1.245  0.3026 -0.0970 -0.1227
 2267W        W18401  17.126  12.718  11.386  0.2560  0.0049  0.1649
 2268W        W18402   0.577  14.127  11.010  0.0436  0.1459 -0.1510
 2269W        W18403   5.624   2.854  13.850  0.0430 -0.0812 -0.1033
 2270W        W18404   6.457   0.131   0.264  0.1597  0.1331  0.3161
 2271W        W18405   1.560  14.255  10.203 -0.0364  0.4487  0.2134
 2272W        W18406   2.650   6.367   1.813 -0.0856  0.2638 -0.0194
 2273W        W18407   9.851  17.124   4.108  0.1458  0.0181  0.3922
 2274W        W18408   0.235  11.588   0.750  0.2073 -0.2524 -0.0616
 2275W        W18409   4.929   0.284   1.540  0.0549 -0.0316 -0.1983
 2276W        W18410   3.305  10.669   2.032 -0.1936 -0.1245 -0.0456
 2277W        W18411  13.038  18.227  13.554  0.0906 -0.6647 -0.0487
 2278W        W18412   7.744   1.455   2.771 -0.1097 -0.0640 -0.2461
 2279W        W18413   4.285  16.677  13.460 -0.3368  0.3763 -0.1432
 2280W        W18414  10.481   2.406   4.934 -0.1614  0.2811  0.2216
 2281W        W18415   5.500  13.492   1.153  0.1112 -0.1935 -0.1628
 2282W        W18416  16.257  10.058   9.962  0.1401  0.1401 -0.0094
 2283W        W18417  14.408  15.979  10.935  0.1732 -0.0955  0.1249
 2284W        W18418   8.285   8.498   0.945 -0.4760  0.0006  0.1745
 2285W        W18419   7.466   8.576  13.497  0.0565 -0.1670 -0.0027
 2286W        W18420   6.414  10.648  14.638  0.2321 -0.1053 -0.0604
 2287W        W18421   0.725   0.591   2.936 -0.1265  0.0312 -0.2229
 2288W        W18422   6.676  11.863  13.330  0.2842  0.1514  0.3226
 2289W        W18423   3.204   2.761   1.514  0.2300 -0.1735  0.0344
 2290W        W18424   2.852  17.832   1.251  0.1379  0.0759 -0.1136
 2291W        W18425   3.724   2.034   4.336 -0.1101  0.3128 -0.0992
 2292W        W18426   1.924   8.265  11.318 -0.1358  0.1271 -0.2286
 2293W        W18427  11.277  13.402  15.164  0.0137 -0.1825 -0.1825
 2294W        W18428   2.052  13.881   5.387 -0.1610 -0.1419  0.1802
 2295W        W18429  15.006   9.045   0.106 -0.2398 -0.1127  0.3325
 2296W        W18430  10.913   5.936  13.148 -0.1007  0.1036 -0.0026
 2297W        W18431   8.320   4.964   1.688 -0.3411 -0.2019  0.1241
 2298W        W18432  15.639  13.986   2.215  0.0975  0.2069  0.1710
 2299W        W18433   6.766  17.906  14.675  0.2395 -0.3150 -0.0609
 2300W        W18434   9.762  17.263   4.649 -0.2162  0.1395  0.3520
 2301W        W18435   7.538  10.719  14.406 -0.1440  0.2143 -0.2281
 2302W        W18436   4.504   9.946   3.418 -0.0892  0.2221  0.0754
 2303W        W18437  15.049   1.992   4.427  0.3211  0.1847  0.0069
 2304W        W18438   7.483  18.098  13.101  0.3123  0.2181  0.0644
 2305W        W18439   4.750   0.077   1.971  0.0819  0.0703  0.3708
 2306W        W18440   0.243  16.090   1.606 -0.3791 -0.2856  0.1469
 2307W        W18441  15.371   3.415   0.957 -0.0936 -0.0813 -0.2058
 2308W        W18442  18.032   8.896   1.130  0.0098  0.3001 -0.2040
 2309W        W18443  15.309  12.111  12.783  0.0744  0.0823 -0.1462
 2310W        W18444   0.395  17.668   4.430  0.2276  0.0243 -0.4595
 2311W        W18445   0.257  13.546   4.424 -0.0531 -0.0742  0.2171
 2312W        W18446  14.635   4.589   5.104 -0.0781  0.1350  0.0832
 2313W        W18447   1.822   6.905  10.607 -0.0143 -0.1506  0.0693
 2314W        W18448  15.460   4.458   0.424  0.0822  0.0072 -0.3217
 2315W        W18449  10.892   6.084   3.295 -0.1530 -0.0134 -0.2269
 2316W        W18450  14.950  18.643   0.464 -0.0873  0.3460  0.1139
 2317W        W18451   2.110   7.717  13.282  0.2873 -0.2244  0.0427
 2318W        W18452   3.890  13.597   2.142  0.1752  0.1258  0.1250
 2319W        W18453   6.852   5.721   0.642 -0.0374 -0.1863  0.0204
 2320W        W18454  12.050  12.715  14.761 -0.0416 -0.0812  0.0322
 2321W        W18455  18.856  10.877   1.099 -0.0274  0.0059 -0.1127
 2322W        W18456   1.572  13.833  10.444 -0.0941  0.0593 -0.0063
 2323W        W18457   3.619  12.890  13.631  0.1084  0.3352 -0.2358
 2324W        W18458   0.309   9.581  12.196  0.0609  0.1196 -0.2241
 2325W        W18459  18.584   9.788  13.160 -0.0553 -0.2337 -0.0407
 2326W        W18460  17.122   0.971   4.708 -0.2698 -0.0696  0.0179
 2327W        W18461   2.904  11.684  12.484  0.1577  0.0416  0.0042
 2328W        W18462  10.173  15.363   2.360 -0.4197 -0.4746  0.1582
 2329W        W18463   6.310  13.278   4.016  0.2913 -0.0958 -0.2820
 2330W        W18464   2.604  12.560   4.742  0.0012 -0.1174 -0.1751
 2331W        W18465   7.309   8.320   0.426  0.2085  0.1444 -0.2268
 2332W        W18466  18.129   9.754  14.497  0.1704  0.1510 -0.0170
 2333W        W18467  15.670  13.292  12.976 -0.0095  0.2255  0.0895
 2334W        W18468  18.595  11.565   0.640 -0.3104  0.3887  0.5198
 2335W        W18469  13.573  13.079   0.975  0.1927  0.1105  0.0678
 2336W        W18470   6.177  15.870  12.399  0.0626  0.0960  0.1238
 2337W        W18471   0.947   3.552  14.722 -0.0656 -0.1442  0.2254
 2338W        W18472   7.858  17.391   4.447  0.0388 -0.0689  0.0472
 2339W        W18473   6.617   5.815   5.392 -0.2824 -0.0550 -0.1079
 2340W        W18474   2.717   9.490  11.272  0.1114 -0.0560 -0.0117
 2341W        W18475  16.808  10.598   2.489 -0.2894 -0.0046 -0.1563
 2342W        W18476   9.841   2.072  12.396  0.3764  0.1410  0.3341
 2343W        W18477   3.729  10.364   0.220  0.0690 -0.2206  0.2960
 2344W        W18478  11.075   1.893  11.559 -0.2869  0.2868  0.1399
 2345W        W18479   1.866  11.829   5.408  0.1634  0.1093  0.1637
 2346W        W18480   9.854  15.588  12.303 -0.0850 -0.0627  0.1137
 2347W        W18481   7.303  10.517   5.781  0.1274 -0.4694 -0.1969
 2348W        W18482  13.305   7.326   5.836  0.1327  0.0755  0.3526
 2349W        W18483  12.420  14.585   4.737  0.0582  0.2958  0.0613
 2350W        W18484  13.162  15.730   0.351  0.2325 -0.0627 -0.2241
 2351W        W18485  19.001  16.142   3.080  0.0823 -0.0000 -0.1209
 2352W        W18486   5.487  14.689  12.144 -0.2542 -0.2035 -0.1198
 2353W        W18487  15.582  12.639   2.760 -0.2130  0.4399 -0.2081
 2354W        W18488  15.383  18.898   3.146 -0.1028  0.0179 -0.0832
 2355W        W18489   8.790  17.672  14.487  0.0669 -0.2451 -0.2323
 2356W        W18490   8.667   4.220   5.305 -0.2265 -0.0148  0.0037
 2357W        W18491  16.666  11.030  10.816  0.1085  0.0243  0.2475
 2358W        W18492   7.911  12.980  11.012  0.0442 -0.0323  0.0424
 2359W        W18493  12.275   5.633   1.320 -0.0579 -0.1240  0.0711
 2360W        W18494   5.393  15.882   4.212 -0.2177 -0.0169  0.0288
 2361W        W18495   5.931   9.044  14.196  0.1885  0.2186 -0.0581
 2362W        W18496   8.446  15.598  12.535 -0.3115 -0.5058 -0.0697
 2363W        W18497  16.406  15.860   0.804 -0.0622  0.0827  0.0827
 2364W        W18498  12.381   6.906  12.155 -0.3390  0.1032  0.4997
 2365W        W18499  14.881   6.360   9.900 -0.5238 -0.1755  0.1336
 2366W        W18500  12.654   5.094  13.754 -0.1241 -0.2201  0.0451
 2367W        W18501   9.533   0.508   0.318  0.2746 -0.0762  0.1174
 2368W        W18502  15.982  18.491   5.691  0.2935  0.0220  0.1781
 2369W        W18503   3.983  10.563   0.679  0.3682 -0.1659 -0.0387
 2370W        W18504   1.345  18.187   2.884 -0.1388  0.0918  0.3541
 2371W        W18505   4.427   4.176   5.511 -0.0759 -0.1386  0.1668
 2372W        W18506   6.055   8.070  14.251  0.1921  0.2155 -0.0377
 2373W        W18507   5.250  18.554  11.539  0.2161 -0.1024  0.2314
 2374W        W18508   6.163  18.161   0.057 -0.0158  0.0634  0.0271
 2375W        W18509   3.166  16.075  11.421  0.3321 -0.0455  0.1549
 2376W        W18510  15.965   5.614  13.077  0.0263 -0.0991  0.2975
 2377W        W18511   0.258  14.717  11.089  0.0222  0.3018  0.0707
 2378W        W18512   2.940   9.426   2.510  0.0489 -0.0073  0.1564
 2379W        W18513   0.500   1.442  12.130  0.1089  0.1937 -0.1025
 2380W        W18514   5.006   5.683  14.410 -0.1409 -0.2235  0.0631
 2381W        W18515   7.011   3.679   3.632 -0.0869  0.0615 -0.0865
 2382W        W18516   9.273  13.842   3.144 -0.3759 -0.1361 -0.0935
 2383W        W18517  18.187   3.650   1.701 -0.2415 -0.2154 -0.2795
 2384W        W18518  16.504  17.035  14.903 -0.0338 -0.0793 -0.0843
 2385W        W18519  12.304   5.502  12.992 -0.0442 -0.1433  0.3384
 2386W        W18520   0.983   8.097   4.633 -0.0577  0.1967  0.1551
 2387W        W18521  12.809  12.290   2.718 -0.1180  0.0846 -0.2366
 2388W        W18522  13.648   5.084   3.709 -0.0794 -0.0631  0.0588
 2389W        W18523   9.678   3.860   3.811 -0.0304  0.1150 -0.3339
 2390W        W18524   6.604   2.802   2.914 -0.0327 -0.1088  0.2039
 2391W        W18525   3.978  15.209  13.832 -0.1317  0.2546 -0.0151
 2392W        W18526   6.903   1.339   4.388 -0.0890  0.1272  0.0453
 2393W        W18527  10.676   4.675   1.611  0.1652 -0.2184  0.0826
 2394W        W18528   9.470   1.401   5.389 -0.2876 -0.0254  0.1645
 2395W        W18529   5.764   6.844  14.288  0.0928  0.2082  0.2992
 2396W        W18530  16.549  14.968   0.707  0.1384 -0.0294 -0.0625
 2397W        W18531   2.009  17.211   4.756  0.3602 -0.1876 -0.0001
 2398W        W18532  12.127  12.747  12.539  0.1534  0.2252 -0.0957
 2399W        W18533   6.341  14.551  11.183 -0.2630  0.4389 -0.0700
 2400W        W18534   6.355   9.682   5.062 -0.0466 -0.0466  0.2625
 2401W        W18535  18.460  15.804  12.372  0.1641 -0.0885  0.2288
 2402W        W18536   6.299  11.325  11.773  0.1499 -0.2474 -0.0468
 2403W        W18537   8.002  17.259  11.219  0.0237  0.3281  0.0795
 2404W        W18538  11.071  13.845   2.581  0.1055 -0.0655 -0.3275
 2405W        W18539   9.057  15.309   3.924  0.0784 -0.0248  0.2352
 2406W        W18540   2.548   4.011   3.395 -0.1309 -0.0149 -0.0909
 2407W        W18541   3.302  12.830  12.345  0.0386  0.0775  0.1340
 2408W        W18542   7.130  17.322  13.734  0.1362 -0.0852  0.2056
 2409W        W18543   2.755   8.861  11.458  0.1871  0.1000  0.1764
 2410W        W18544   6.170  15.311  12.210 -0.0690 -0.1285 -0.2767
 2411W        W18545  12.707  15.572   0.193  0.0776  0.0699 -0.1265
 2412W        W18546   0.510  11.537   4.862  0.0602 -0.2727 -0.2028
 2413W        W18547  12.045   8.866  13.401 -0.0209 -0.0860 -0.1344
 2414W        W18548   3.366   9.279   2.147 -0.0389  0.2786 -0.0950
 2415W        W18549  18.165   4.727   2.075 -0.1317 -0.0405 -0.2249
 2416W        W18550   5.937   6.160   1.620  0.0371 -0.0350  0.0149
 2417W        W18551  11.025   6.375   0.780  0.0344 -0.0814 -0.0223
 2418W        W18552   7.412  14.456   0.209 -0.0662  0.1746  0.3705
 2419W        W18553  14.249  10.710   9.672  0.3493  0.2413 -0.0590
 2420W        W18554  18.799   2.875  11.793  0.0203  0.1149  0.2975
 2421W        W18555   4.168  12.912  10.632  0.1916 -0.1664 -0.0656
 2422W        W18556   8.979  10.020   2.952  0.4608  0.3786 -0.2509
 2423W        W18557  13.866   6.165  14.009  0.3822  0.0702 -0.3331
 2424W        W18558   1.410   8.202   2.392 -0.0191  0.1916 -0.1385
 2425W        W18559  13.167   9.436  11.847  0.0524  0.0940 -0.1808
 2426W        W18560   8.732  15.039   0.621 -0.2706  0.0553 -0.0971
 2427W        W18561   8.055   5.896  12.066  0.1047  0.1152  0.2801
 2428W        W18562   7.604   5.667  15.151  0.1984  0.2608  0.0855
 2429W        W18563   5.779   4.187   0.161  0.0638 -0.1055  0.0376
 2430W        W18564  13.884  15.947  11.968  0.0920  0.2516 -0.0739
 2431W        W18565   9.465  15.627   4.556  0.1739 -0.5269  0.2498
 2432W        W18566  11.631   2.593  10.795  0.2686  0.2359  0.0480
 2433W        W18567  19.107  15.725   1.808  0.1369 -0.1690 -0.0393
 2434W        W18568   8.557   9.488  12.854  0.2881  0.0195 -0.0819
 2435W        W18569   4.624   6.419  11.151 -0.0867  0.1957 -0.2518
 2436W        W18570   9.979  17.867   0.502  0.0047 -0.1517 -0.1167
 2437W        W18571  14.716  11.499   0.178 -0.1568  0.0161 -0.2597
 2438W        W18572   0.727   3.030  13.919  0.2299  0.4221  0.4370
 2439W        W18573   8.915   2.516  11.538  0.0120  0.0462  0.0505
 2440W        W18574  17.781  14.182   1.673  0.0205  0.0227  0.0439
 2441W        W18575  15.451  18.500  12.428  0.1940 -0.0168 -0.1593
 2442W        W18576  17.863   3.584  13.123  0.1589  0.2263  0.0015
 2443W        W18577   7.171   5.796  11.575  0.4493  0.1658  0.4376
 2444W        W18578  14.381  16.117   4.698 -0.4108 -0.0689  0.1444
 2445W        W18579   7.341   3.574   4.572  0.1987 -0.1158  0.0164
 2446W        W18580  12.119   0.010  14.570  0.1924  0.2444  0.2397
 2447W        W18581  13.021   7.919  13.759 -0.2561 -0.0411 -0.0079
 2448W        W18582  14.944   5.980  10.684 -0.0870  0.1798  0.0322
 2449W        W18583  10.929   5.548   4.484  0.0360  0.1596  0.2755
 2450W        W18584   2.850  12.294  13.837  0.1463  0.0652 -0.0986
 2451W        W18585   9.880  15.774   2.784  0.1492  0.1000  0.1262
 2452W        W18586  16.306  16.911   0.767 -0.3307  0.4029  0.0882
 2453W        W18587   6.325  11.629   2.147  0.3011  0.0386  0.1103
 2454W        W18588   3.767   3.641   0.650 -0.1498  0.2930 -0.2301
 2455W        W18589   6.774   1.587   0.869  0.0256 -0.0947 -0.1145
 2456W        W18590  12.355   7.857   2.342 -0.0634  0.2379 -0.1473
 2457W        W18591  14.399  12.767  13.998  0.2836  0.0159  0.2993
 2458W        W18592   9.645  14.609   0.894 -0.0997  0.2894 -0.1946
 2459W        W18593   0.490   1.096  11.051 -0.1267 -0.0789 -0.0808
 2460W        W18594   1.318  12.316  11.151  0.0502 -0.3398  0.1337
 2461W        W18595   3.898   2.042   0.486 -0.2460 -0.0107 -0.1750
 2462W        W18596  17.375   9.315   2.560  0.3703 -0.2315  0.1769
 2463W        W18597   8.314   4.070   0.929 -0.0492  0.1816  0.0861
 2464W        W18598   4.417   7.853   3.977  0.0911 -0.3036  0.2666
 2465W        W18599  10.581   8.696  12.988 -0.0437  0.0457 -0.1131
 2466W        W18600   4.012  16.776  14.235 -0.4244 -0.4372 -0.0817
 2467W        W18601  18.958  17.466  13.213 -0.2278 -0.1815  0.0998
 2468W        W18602  16.612   3.963  13.981  0.1730  0.2508  0.2174
 2469W        W18603  11.594  18.378   4.034  0.0225  0.2527 -0.2818
 2470W        W18604  14.936  15.168  11.949  0.0322  0.0882 -0.2390
 2471W        W18605   6.680   2.440   0.408 -0.0044  0.0173 -0.2807
 2472W        W18606   2.169  17.572  10.590 -0.2230  0.0435  0.1084
 2473W        W18607   3.574  13.246   4.978  0.0788  0.1306  0.0562
 2474W        W18608   6.902   0.784  14.063  0.1352  0.0183  0.0971
 2475W        W18609   9.273   7.503  11.204 -0.2868  0.0013  0.2080
 2476W        W18610  15.636   2.319   0.218  0.5308 -0.0819  0.1643
 2477W        W18611   6.964   1.361   9.828  0.0587 -0.0038 -0.1741
 2478W        W18612  17.166   3.948  11.735  0.0146 -0.0667  0.2059
 2479W        W18613   4.214  17.260   4.364  0.0963  0.1191  0.0741
 2480W        W18614  13.906  16.889   4.567  0.1964  0.0956  0.0117
 2481W        W18615  16.436   3.790   3.966  0.1211 -0.0076 -0.1196
 2482W        W18616  15.572   2.410  12.797  0.0108  0.1452  0.0420
 2483W        W18617  14.769  13.554  14.484 -0.4105  0.1591 -0.1332
 2484W        W18618   3.591   0.501  10.756 -0.1408  0.0058 -0.1371
 2485W        W18619  18.328  12.925   2.890 -0.1786  0.2807 -0.0466
 2486W        W18620   0.057  11.911  11.600  0.1532  0.2760 -0.3903
 2487W        W18621  16.320  10.133   2.515  0.1694 -0.2399  0.1764
 2488W        W18622  14.512   2.515  12.997  0.0966  0.0995  0.0891
 2489W        W18623  11.786  16.572   3.120 -0.0421  0.1823 -0.4079
 2490W        W18624  10.169   8.603   0.728 -0.2787 -0.0034  0.0307
 2491W        W18625   6.059  10.651   0.312  0.0286 -0.4052 -0.1751
 2492W        W18626  18.781   2.549   3.957 -0.1654 -0.0301  0.2635
 2493W        W18627   7.403   6.370  13.851 -0.2197 -0.0486 -0.2060
 2494W        W18628   5.678   7.554   3.754 -0.2769  0.0947  0.3910
 2495W        W18629   9.445  16.290  14.627 -0.1337 -0.0089  0.1831
 2496W        W18630   8.521   3.697   2.918  0.0148  0.0407 -0.1268
 2497W        W18631   9.966  16.809  15.192 -0.3165 -0.0555  0.2819
 2498W        W18632   5.511   8.244   1.619  0.1796 -0.2824 -0.2825
 2499W        W18633  14.464   8.694  12.246 -0.1771  0.0593 -0.0739
 2500W        W18634  10.732  13.890  14.416 -0.3133  0.0695 -0.1245
 2501W        W18635  15.845  16.664   1.982 -0.0493  0.2090 -0.2723
 2502W        W18636  15.300   5.053  10.382 -0.0389 -0.3195 -0.1697
 2503W        W18637  14.921  11.144   2.132  0.0632  0.1473  0.2239
 2504W        W18638   4.774   1.858   3.545 -0.2457  0.1888 -0.2234
 2505W        W18639   6.009   4.593  13.316 -0.0954 -0.1611 -0.2128
 2506W        W18640  10.186  11.316   3.095  0.0404  0.3255  0.1609
 2507W        W18641   9.897   0.133  13.813  0.3170  0.2353  0.1145
 2508W        W18642   4.107  17.177   2.953  0.2813 -0.3335 -0.3120
 2509W        W18643   3.185   5.036   1.412  0.2147 -0.2680 -0.2830
 2510W        W18644   8.564  17.423   1.913  0.0214 -0.1292 -0.2765
 2511W        W18645   8.604  10.104   3.300 -0.1628  0.0316  0.6354
 2512W        W18646  18.466   2.924  14.295  0.0010  0.0947  0.0820
 2513W        W18647   8.984   7.633   2.942 -0.0168  0.1175  0.2523
 2514W        W18648  17.822  14.691  11.176  0.0099  0.0893  0.0723
 2515W        W18649   2.248  10.425  12.922 -0.1403  0.1276  0.0106
 2516W        W18650   8.429   0.625  12.822  0.2771 -0.0609 -0.0065
 2517W        W18651  17.366   0.415   4.711  0.0634  0.1084  0.0303
 2518W        W18652  11.577   8.170  11.117  0.4203  0.1157 -0.5155
 2519W        W18653   8.859   5.891  11.176 -0.0908 -0.0927 -0.1148
 2520W        W18654   1.564  14.678  14.209  0.0824 -0.1530 -0.0352
 2521W        W18655   6.425   4.417   4.562 -0.2339 -0.1258 -0.0596
 2522W        W18656  13.217  17.745  15.030 -0.0571 -0.0008 -0.1538
 2523W        W18657   2.452  13.813  12.212  0.0366 -0.1451  0.2492
 2524W        W18658  10.851   6.408   5.675 -0.3156  0.0203 -0.1249
 2525W        W18659  13.083   4.736  11.922 -0.0904 -0.1068  0.2122
 2526W        W18660   2.227  12.220   5.256  0.3818  0.0145 -0.0511
 2527W        W18661   4.778  11.725   4.896  0.0640  0.0160 -0.3068
 2528W        W18662   0.750   2.856   3.671 -0.3251 -0.1810  0.3226
 2529W        W18663  13.414  13.882  14.067  0.3725  0.1266 -0.4025
 2530W        W18664  16.191   1.317  11.474 -0.0461  0.0392 -0.2449
 2531W        W18665   5.944  10.818  12.497  0.0075  0.1733  0.2004
 2532W        W18666  16.728   0.775  14.036 -0.0739  0.0843 -0.0792
 2533W        W18667   0.615  17.279   4.988  0.2227 -0.2621  0.0038
 2534W        W18668  18.065   4.690  11.164  0.2545 -0.2416  0.2293
 2535W        W18669  16.375  11.475   1.379  0.0116  0.3349  0.4373
 2536W        W18670   3.695  11.721  12.792 -0.5834  0.1064 -0.1101
 2537W        W18671   4.184  10.558   4.109 -0.3915 -0.0728  0.0660
 2538W        W18672   6.660   3.017  12.088  0.0142 -0.2995 -0.1607
 2539W        W18673  15.638   0.400   1.359 -0.2998  0.0141  0.3024
 2540W        W18674   3.357  12.298   4.093 -0.0173  0.1213 -0.1456
 2541W        W18675   6.229  16.402  12.818 -0.1115 -0.2804  0.3179
 2542W        W18676  13.360   8.113   2.362  0.2972  0.1894  0.1576
 2543W        W18677   0.200  18.278  12.702 -0.0031 -0.2312 -0.3516
 2544W        W18678  14.650   3.743  13.298 -0.0432  0.0323  0.1148
 2545W        W18679   0.166   2.426  14.470 -0.2636  0.2848  0.0513
 2546W        W18680  13.333  13.515   0.823  0.0880  0.0474 -0.0179
 2547W        W18681  13.629   2.632   1.799  0.6173  0.2992  0.1046
 2548W        W18682   3.091  11.761  10.548 -0.0936  0.0725 -0.4132
 2549W        W18683  12.384   2.303   1.727 -0.0032 -0.0196 -0.1086
 2550W        W18684  19.058  18.402   5.191  0.2050 -0.0125  0.0570
 2551W        W18685   7.992   1.254  14.478  0.1345  0.0031 -0.0732
 2552W        W18686  15.496   5.448  13.013 -0.2329  0.3253  0.0136
 2553W        W18687  14.460  17.855  14.383 -0.0794  0.0000  0.2242
 2554W        W18688   5.018  11.513  14.192  0.1155 -0.1230  0.0091
 2555W        W18689   7.862  13.971  14.122  0.0622 -0.1534 -0.1900
 2556W        W18690   7.383  17.728  13.640  0.1818 -0.2344  0.1469
 2557W        W18691  10.776   8.553  13.613 -0.2553  0.0817 -0.1112
 2558W        W18692  17.883  13.420   5.127  0.1623 -0.0710 -0.0192
 2559W        W18693   3.210   1.590   2.433  0.3286 -0.2558  0.3739
 2560W        W18694   4.061   0.739  14.942 -0.0002 -0.1462  0.0578
 2561W        W18695   5.027   6.250  10.630  0.2031  0.0619 -0.1643
 2562W        W18696  11.565  12.143  11.292 -0.2299 -0.2924  0.2437
 2563W        W18697   5.102  12.724   3.843 -0.1095 -0.2141 -0.2181
 2564W        W18698   3.959  11.984   4.408  0.1108  0.0622 -0.0511
 2565W        W18699  18.939  17.689   4.613 -0.3966 -0.0113 -0.0158
 2566W        W18700  14.688  14.182   3.227 -0.0108  0.1412 -0.0018
 2567W        W18701   6.020  11.083  11.168 -0.1372  0.0774 -0.0468
 2568W        W18702   2.700   1.602   2.938  0.3691  0.0795 -0.1053
 2569W        W18703  11.441  17.009  13.550  0.1357  0.0531 -0.0402
 2570W        W18704   8.978  10.477   0.344  0.2608 -0.3258 -0.0858
 2571W        W18705   1.383  17.347   0.060  0.1448 -0.1681 -0.4928
 2572W        W18706   1.861  19.031   3.096  0.2935 -0.1500  0.0844
 2573W        W18707  14.419  16.815  11.430 -0.2214 -0.2311 -0.1876
 2574W        W18708  17.742   2.441   3.662 -0.2975 -0.1581 -0.1251
 2575W        W18709  13.953   9.813   5.260 -0.1999 -0.1112 -0.0566
 2576W        W18710   1.085  14.097   2.160 -0.2475 -0.0585 -0.3337
 2577W        W18711  11.386  16.455   3.506  0.0797 -0.0237  0.0052
 2578W        W18712  10.934   2.793  12.361 -0.1035 -0.0039  0.1381
 2579W        W18713   0.487  15.757  14.295  0.0946 -0.0536  0.0806
 2580W        W18714   4.261   9.081  10.277  0.1196  0.6256 -0.3175
 2581W        W18715   3.692  10.934   3.810 -0.0244  0.0177  0.2318
 2582W        W18716   7.213  15.119  10.435 -0.3983 -0.3316  0.1129
 2583W        W18717  12.833   6.155   5.458  0.1157 -0.1478  0.2189
 2584W        W18718  19.004   4.905   1.913  0.0657 -0.1345  0.3145
 2585W        W18719   2.751   5.699   3.118  0.1545 -0.1012  0.0951
 2586W        W18720   3.931   1.929   3.333 -0.1228 -0.2089  0.0416
 2587W        W18721   8.302   5.749   2.409 -0.0120 -0.2553 -0.2057
 2588W        W18722   4.924   8.667  14.721 -0.0043 -0.2411 -0.1797
 2589W        W18723  10.270  18.256  14.904  0.1606  0.1238  0.3524
 2590W        W18724   1.461  10.997  13.250  0.1875 -0.1666  0.2136
 2591W        W18725   4.483  11.519   3.124 -0.1616  0.2517 -0.0746
 2592W        W18726   3.994   7.976   3.566 -0.1133 -0.0367 -0.0397
 2593W        W18727  18.637   7.515   1.375  0.2272 -0.1157 -0.3717
 2594W        W18728   8.042  16.426   5.394 -0.1327  0.2002  0.1129
 2595W        W18729  10.877  12.516   3.223 -0.1511 -0.0242  0.0546
 2596W        W18730  10.736   0.689   0.156 -0.0378 -0.0201  0.0640
 2597W        W18731  16.290  11.928   4.691  0.0127 -0.1367 -0.2881
 2598W        W18732  12.337   9.388  14.315 -0.0088  0.3395 -0.2881
 2599W        W18733  11.198   5.624   5.956 -0.1840 -0.0249  0.1116
 2600W        W18734  18.295  13.053  14.401 -0.0476 -0.1875 -0.0355
 2601W        W18735  10.251   2.554  11.065  0.0408  0.0132  0.0953
 2602W        W18736   2.980  13.934   0.561  0.0133  0.2942  0.0018
 2603W        W18737  15.239  16.157   3.494  0.0551 -0.1436  0.1746
 2604W        W18738   3.056  16.509  10.482  0.0995 -0.1922  0.5749
 2605W        W18739   8.215  12.825  12.619  0.3318 -0.2989 -0.3519
 2606W        W18740   5.353   5.507   3.767 -0.3628  0.1422  0.1040
 2607W        W18741   5.609  16.549   3.845 -0.1572 -0.1418  0.2052
 2608W        W18742   0.737  16.172   1.707  0.0681  0.0885 -0.2617
 2609W        W18743   4.120   6.723   9.418  0.1123 -0.0268 -0.3479
 2610W        W18744   9.967  18.227   5.057  0.1470 -0.1211 -0.1810
 2611W        W18745   2.746   6.943  10.866  0.2740 -0.0613 -0.1349
 2612W        W18746   5.875  10.445  13.506  0.0344 -0.1379  0.0555
 2613W        W18747  16.517  15.497  10.435 -0.2786 -0.2951 -0.0341
 2614W        W18748  15.534  10.451  13.919 -0.0788 -0.0098  0.0796
 2615W        W18749   6.205  10.634  11.130 -0.1599 -0.0800  0.3009
 2616W        W18750  17.576   1.515  14.479  0.1742  0.1536  0.0481
 2617W        W18751  17.686   8.442   3.575 -0.2822  0.0194  0.1996
 2618W        W18752   5.914   4.331   2.473  0.0091 -0.0919  0.2355
 2619W        W18753   6.878   0.182  10.470 -0.5854 -0.0764  0.0485
 2620W        W18754   3.069  16.680   4.047  0.0396 -0.1875 -0.0305
 2621W        W18755  18.086   0.457   3.727  0.2209  0.3631 -0.2073
 2622W        W18756  12.071  18.421   2.914 -0.1578 -0.0596 -0.0957
 2623W        W18757  11.899  11.102  13.495  0.1213 -0.0480  0.4723
 2624W        W18758  16.169  14.878  13.067 -0.1460  0.0541 -0.0084
 2625W        W18759  16.679  16.654   0.531  0.0541  0.1962 -0.0589
 2626W        W18760  16.388  14.483  14.634 -0.2519 -0.2128  0.2761
 2627W        W18761  16.314   1.282   1.512 -0.1151 -0.3036  0.1518
 2628W        W18762   1.114  17.084   3.293  0.2859 -0.2443  0.0888
 2629W        W18763  14.769  12.206  14.594  0.1860 -0.2102  0.3059
 2630W        W18764  12.896  14.406  12.831  0.1951  0.0922  0.1423
 2631W        W18765   8.196   2.478   2.299 -0.0463  0.3224  0.0697
 2632W        W18766   0.380   9.725  15.066 -0.3119  0.1233 -0.1064
 2633W        W18767  17.005  10.867   1.987 -0.0227  0.1292  0.1071
 2634W        W18768  18.824  14.887   3.915 -0.4218  0.1273  0.2202
 2635W        W18769   8.421  15.238   2.710 -0.1175  0.0308 -0.0848
 2636W        W18770  11.607  14.129   1.586  0.0018 -0.1828  0.1049
 2637W        W18771  10.084   7.840  13.603  0.2713 -0.3153  0.0090
 2638W        W18772   0.790   6.542  12.089  0.3131 -0.0634  0.3565
 2639W        W18773  15.461   5.163  14.759  0.0221 -0.0570  0.1522
 2640W        W18774   8.164  13.370  10.735  0.0075 -0.2529 -0.1408
 2641W        W18775   4.196   4.548  11.940  0.2405 -0.1237 -0.2453
 2642W        W18776  18.430   9.604   1.407  0.1377  0.0541 -0.1858
 2643W        W18777   4.520   6.425   4.202  0.1661 -0.1683 -0.1172
 2644W        W18778   2.047   4.462   3.074 -0.3034 -0.0602  0.1218
 2645W        W18779   0.670   2.097  14.567  0.1436  0.1736 -0.2439
 2646W        W18780   8.200   8.067   1.879  0.2659 -0.1912 -0.1713
 2647W        W18781   3.445  10.381   4.827 -0.0737  0.0743 -0.0565
 2648W        W18782  16.139   0.407   4.359  0.2402  0.2222 -0.0998
 2649W        W18783  16.600  15.421   0.961  0.1638  0.2410 -0.0158
 2650W        W18784   2.261   4.100  13.527 -0.4349  0.1035 -0.2725
 2651W        W18785  18.581  11.085  12.947  0.2096  0.0146  0.2542
 2652W        W18786   3.589   4.900   1.191  0.2236 -0.1662  0.3110
 2653W        W18787   3.824   8.104   0.046 -0.1590  0.1186  0.0014
 2654W        W18788   0.916   7.083  11.857 -0.2134  0.1291 -0.4275
 2655W        W18789   2.041   9.639  14.509  0.1020  0.0208  0.0470
 2656W        W18790  18.236  12.708   4.649  0.1974 -0.1666 -0.2644
 2657W        W18791   6.635  10.344  12.853  0.1566 -0.3406  0.2461
 2658W        W18792   9.724   8.815   5.283 -0.1902  0.0033  0.3209
 2659W        W18793  12.846   1.694   3.558 -0.1360  0.0743  0.2297
 2660W        W18794   1.405   8.325  13.672 -0.4134  0.0430 -0.2285
 2661W        W18795   0.463   0.524  12.086 -0.1955  0.2680 -0.2424
 2662W        W18796  13.455  17.617  14.475  0.0910  0.0130  0.3701
 2663W        W18797   5.771   9.799  14.851  0.1068 -0.0622 -0.1778
 2664W        W18798  11.042   3.772  13.386  0.0565  0.0119  0.2877
 2665W        W18799   2.848   7.918   1.924  0.2973 -0.1331 -0.0785
 2666W        W18800  15.882   3.794  13.814  0.0028  0.2522  0.1956
 2667W        W18801   1.534   0.271   3.488  0.1886  0.0729 -0.0005
 2668W        W18802  19.039   1.725   3.795  0.4495  0.2035  0.1564
 2669W        W18803  11.813   0.469   2.428 -0.2227 -0.2117 -0.0725
 2670W        W18804   8.827  11.236  15.002  0.1832  0.2101 -0.1938
 2671W        W18805  17.183   5.318  14.379 -0.0761 -0.3281  0.1466
 2672W        W18806  17.386  16.044   3.037 -0.1387  0.0978 -0.0338
 2673W        W18807   1.684   4.320  14.044  0.0732  0.0218 -0.3073
 2674W        W18808  11.719   4.785   1.202  0.0415 -0.0977 -0.0169
 2675W        W18809  17.090   4.427  11.070 -0.1815  0.2684 -0.0877
 2676W        W18810  17.672   7.820   3.970 -0.0498  0.0418 -0.0218
 2677W        W18811  11.809  12.597   0.357 -0.0637  0.2269 -0.1204
 2678W        W18812  15.049  16.221  14.630 -0.3292  0.0297 -0.0897
 2679W        W18813  18.456  12.238   0.752 -0.2230 -0.2671  0.1484
 2680W        W18814   5.031  13.730   2.013  0.0997  0.0936 -0.0250
 2681W        W18815  11.826   8.594  11.103 -0.0711  0.0685  0.1359
 2682W        W18816   9.087  14.273   0.196 -0.1779 -0.1560 -0.1878
 2683W        W18817  18.140  16.808  10.881  0.2774  0.2736 -0.0257
 2684W        W18818   4.379   4.879  13.638 -0.0338 -0.5209  0.0480
 2685W        W18819  13.498  18.337   0.682 -0.0837 -0.1861 -0.0895
 2686W        W18820   4.567  13.145  14.778 -0.1190 -0.1658 -0.2039
 2687W        W18821  13.537   3.997  11.918 -0.2134  0.2299  0.1573
 2688W        W18822  17.011  17.566   3.925 -0.1994  0.0834  0.0424
 2689W        W18823  15.163  18.564   2.819  0.1259  0.3473  0.0269
 2690W        W18824   3.662   6.785  11.925  0.3707 -0.0028 -0.1955
 2691W        W18825   5.493   6.279  13.852  0.4034 -0.1139  0.2639
 2692W        W18826   7.058   6.137  14.092  0.2741  0.0712 -0.2063
 2693W        W18827  12.568  10.754  14.238  0.0941 -0.2281 -0.2374
 2694W        W18828   9.272  12.287   4.501  0.1259  0.2558  0.1913
 2695W        W18829  16.826  12.087  14.195 -0.0868 -0.0431 -0.0348
 2696W        W18830  16.956   6.101  10.886  0.0062 -0.2775 -0.0575
 2697W        W18831   6.055   4.897   4.403  0.1737 -0.1821  0.1000
 2698W        W18832   0.870  16.686   0.186 -0.0100  0.1719 -0.2129
 2699W        W18833   9.224   5.496   4.630  0.1503  0.0889 -0.1554
 2700W        W18834  10.592  14.745  13.978 -0.1231 -0.2607 -0.2252
 2701W        W18835   5.622  17.990   0.614  0.2172 -0.0859  0.4125
 2702W        W18836   4.829   8.745   1.803 -0.2075  0.3525  0.0185
 2703W        W18837  17.571  18.886   2.136  0.1115 -0.0208 -0.0636
 2704W        W18838   6.482  15.789   2.306  0.2412 -0.0358  0.0942
 2705W        W18839   5.541  10.976  14.388  0.0284 -0.2813  0.1212
 2706W        W18840  10.274   3.599   2.083 -0.1380 -0.1643 -0.1365
 2707W        W18841  15.193  16.942  10.398 -0.4908 -0.0492  0.0758
 2708W        W18842   5.054   6.247  14.606 -0.1683  0.1457 -0.0620
 2709W        W18843  14.566   1.799   4.341 -0.1626 -0.1706  0.1104
 2710W        W18844   9.593  17.578  12.779  0.0994  0.0246  0.5672
 2711W        W18845  11.942   1.940   4.170 -0.1989  0.0770 -0.1411
 2712W        W18846  14.344   5.259   4.472 -0.0120 -0.3160  0.1334
 2713W        W18847  16.918  13.615  13.147  0.2000 -0.2667 -0.0945
 2714W        W18848  16.620   8.810   2.274 -0.0240 -0.3728  0.1822
 2715W        W18849   8.382  14.867  11.921  0.2609 -0.1406  0.1541
 2716W        W18850  14.276   2.532  11.036  0.0836  0.2410  0.0650
 2717W        W18851   1.525   0.317  12.654  0.0201  0.1261  0.1955
 2718W        W18852  15.210   6.903   4.048 -0.0601 -0.0524  0.0091
 2719W        W18853  13.347  15.092  14.859 -0.0667 -0.2915  0.1098
 2720W        W18854   2.589   4.724   5.266 -0.1673 -0.4627  0.1331
 2721W        W18855   5.336  16.916  11.084  0.0579  0.3084  0.0776
 2722W        W18856   9.280   0.467   2.902 -0.0501 -0.1044 -0.0946
 2723W        W18857  17.468  18.936  14.989  0.1942  0.2127  0.1012
 2724W        W18858  12.615  14.339  13.344  0.0626  0.1955 -0.0452
 2725W        W18859   6.364  17.843   3.633 -0.1304 -0.1067  0.0987
 2726W        W18860  13.320   1.555   3.877 -0.1279  0.1348 -0.0729
 2727W        W18861  10.283  17.263  11.648  0.0668  0.2991  0.4069
 2728W        W18862  14.423  10.136  11.960 -0.2982  0.2906 -0.1254
 2729W        W18863  11.911   2.600  10.393 -0.2467  0.2044 -0.1957
 2730W        W18864   0.735   1.860   0.328 -0.1041  0.1546 -0.1343
 2731W        W18865   9.272  18.919  10.041 -0.0649  0.1844  0.0173
 2732W        W18866   0.802   1.643   2.893 -0.0663 -0.0895  0.2939
 2733W        W18867  13.842  18.698  14.489 -0.0305 -0.1625  0.1124
 2734W        W18868   2.881   2.844  14.346  0.1456  0.2112  0.3583
 2735W        W18869  15.137   2.787  10.632  0.1419 -0.5411  0.2170
 2736W        W18870   0.009   5.710  12.144 -0.0040  0.2205 -0.3663
 2737W        W18871   8.148  10.757  11.697  0.1018  0.2084 -0.0735
 2738W        W18872  15.103   4.790  13.542  0.0918 -0.1065  0.1887
 2739W        W18873   1.338   5.489   3.779 -0.1857  0.0471 -0.1873
 2740W        W18874  17.806   0.482  10.083 -0.4603  0.2385 -0.2834
 2741W        W18875   0.069   2.413   4.508  0.1430 -0.1184  0.3201
 2742W        W18876   1.097   7.593   4.186 -0.1362 -0.2668 -0.0085
 2743W        W18877  11.801  13.951  14.383  0.0357  0.0075  0.1383
 2744W        W18878   3.248   5.909   3.384 -0.0430  0.3802  0.3011
 2745W        W18879   2.781  11.289  12.865 -0.0998  0.2722  0.2436
 2746W        W18880   6.312   3.199  11.684 -0.0050  0.1905 -0.2096
 2747W        W18881   4.549   9.019   1.489  0.0901  0.0012  0.0357
 2748W        W18882  10.713   5.710  12.733 -0.2441 -0.0544  0.5562
 2749W        W18883   4.565   5.830  12.807  0.2274 -0.0337 -0.0916
 2750W        W18884   9.241   8.883  13.756  0.1591  0.0142  0.0641
 2751W        W18885  18.888  11.857  15.055  0.2557  0.1706  0.3879
 2752W        W18886  15.606  18.767  14.893 -0.0947  0.2553 -0.0679
 2753W        W18887  17.677  10.499  14.705  0.1771 -0.3108  0.1464
 2754W        W18888  13.985  12.730   2.229 -0.1189 -0.1609  0.0837
 2755W        W18889  11.963  16.934   0.633 -0.2831  0.0115 -0.3268
 2756W        W18890  10.452  14.750   1.096  0.0038  0.1102 -0.2856
 2757W        W18891  10.403   5.447  12.943  0.3567  0.0122 -0.1641
 2758W        W18892   7.829  13.266   3.870  0.1459  0.2149  0.1710
 2759W        W18893  12.766   8.643  11.822 -0.2296 -0.0511  0.2630
 2760W        W18894   0.369   3.975  13.591  0.1150  0.2049 -0.4345
 2761W        W18895   5.789   1.805  12.602 -0.2767  0.2289 -0.0679
 2762W        W18896   1.221  11.000  14.521 -0.1373 -0.3298  0.1348
 2763W        W18897  19.136  10.979  13.723 -0.1491  0.2557  0.0439
 2764W        W18898   3.624   4.689  12.889  0.1227  0.0698 -0.2760
 2765W        W18899   4.050  11.142   0.386  0.1753  0.1589  0.2639
 2766W        W18900  12.120   2.830   0.282  0.0897 -0.0528  0.1893
 2767W        W18901  15.568  12.450   9.396  0.0360  0.2070  0.2440
 2768W        W18902  11.421  10.800  13.411  0.1838 -0.0721  0.0685
 2769W        W18903   8.810  17.835  11.835  0.1896  0.0682  0.3162
 2770W        W18904  15.544  14.836  12.477 -0.0166  0.2976 -0.0205
 2771W        W18905  12.168   6.221  11.591 -0.0814  0.2825  0.0461
 2772W        W18906  15.234   3.789  11.730 -0.1830  0.1081  0.1227
 2773W        W18907   3.400   3.698  12.789  0.1483  0.2932 -0.0978
 2774W        W18908  14.473  17.151   3.286  0.0942 -0.0052 -0.0002
 2775W        W18909   6.811  18.415  13.668 -0.0926  0.0797  0.1336
 2776W        W18910  11.672  18.915  13.276 -0.1301 -0.0057  0.1348
 2777W        W18911   5.633   6.841  10.296 -0.2505  0.1697  0.2448
 2778W        W18912  13.386  15.183  13.661  0.1040 -0.3326 -0.0510
 2779W        W18913  15.669  17.761  14.243 -0.5514  0.2867 -0.1082
 2780W        W18914   1.574  16.627   0.713 -0.0222 -0.1462 -0.1731
 2781W        W18915  11.085  13.248   1.837 -0.1737  0.3845  0.2927
 2782W        W18916   2.645   3.025  12.027  0.1078 -0.0984  0.3111
 2783W        W18917   2.055  14.896   1.017  0.0697  0.0207 -0.0942
 2784W        W18918   5.089  17.358   3.972  0.1626 -0.2057  0.0528
 2785W        W18919  16.094   4.738  12.764  0.1731  0.5869 -0.1388
 2786W        W18920   6.872   9.614  12.299 -0.3434 -0.0630  0.2726
 2787W        W18921  15.125  11.749   1.778 -0.1713 -0.0024 -0.1810
 2788W        W18922  14.606   0.446  13.435 -0.0439  0.1098 -0.2252
 2789W        W18923   9.889  18.907   1.639  0.1770 -0.0784  0.0993
 2790W        W18924  13.579   4.698  12.879 -0.0221  0.0789  0.1349
 2791W        W18925  17.259  15.393  13.206  0.0360  0.0216 -0.2201
 2792W        W18926   5.398  15.488  11.075  0.1104 -0.0686 -0.0995
 2793W        W18927  18.849   8.528   3.316  0.0957  0.4724 -0.1842
 2794W        W18928   9.879  13.667  11.393 -0.2891  0.1546  0.1171
 2795W        W18929  14.254   0.707   1.834 -0.2046  0.2866 -0.1058
 2796W        W18930  15.512  12.633  11.666  0.2253  0.0937 -0.3014
 2797W        W18931  18.381  13.067  12.625  0.0390  0.1315 -0.2519
 2798W        W18932   3.973   0.709  10.934  0.0459 -0.0270  0.0718
 2799W        W18933   5.654   0.708   4.615 -0.0063  0.1460 -0.0326
 2800W        W18934  17.545  12.657   0.765  0.0825 -0.1950  0.2095
 2801W        W18935  16.591   3.397   2.187 -0.0652  0.1725 -0.0944
 2802W        W18936   9.827   8.371   2.513  0.1088 -0.0511  0.3600
 2803W        W18937  11.580  14.246  11.216  0.1304 -0.2013 -0.1129
 2804W        W18938  15.577   6.535  12.180  0.0104 -0.2016  0.1238
 2805W        W18939  11.614  16.850   5.109 -0.1941  0.3654  0.1338
 2806W        W18940  11.513   1.691  12.367 -0.1053  0.2656  0.6129
 2807W        W18941   0.898  18.021  12.223  0.2751 -0.2509 -0.4428
 2808W        W18942  11.371   9.550   3.017 -0.1789  0.2126  0.2157
 2809W        W18943  11.438   3.158  13.650 -0.0060  0.1818 -0.2479
 2810W        W18944   1.366   3.014   4.911 -0.2467 -0.2708 -0.0909
 2811W        W18945   3.211  12.867   0.906  0.0408 -0.0135  0.0299
 2812W        W18946  18.577  15.663   1.381  0.0516 -0.2947  0.0156
 2813W        W18947  16.909   8.911   0.356 -0.0031 -0.1447 -0.0582
 2814W        W18948  16.061  10.092  13.245  0.2297  0.0229  0.1119
 2815W        W18949  18.896   2.998   0.052  0.0708 -0.0959  0.3401
 2816W        W18950  15.077  15.657  12.744 -0.0605  0.1614 -0.2127
 2817W        W18951   0.002   4.940  11.290 -0.0664 -0.0177 -0.1134
 2818W        W18952   5.741  11.933   2.698 -0.2371  0.1191  0.0244
 2819W        W18953   1.847   9.896   4.522 -0.2463  0.0469 -0.1248
 2820W        W18954   7.256   1.168   3.842 -0.3898 -0.1852 -0.0405
 2821W        W18955   8.811   9.236   4.938 -0.2157 -0.4000  0.2504
 2822W        W18956  10.665   9.619  10.980 -0.1417  0.3015  0.0278
 2823W        W18957  15.048  11.379  12.017 -0.0073 -0.2236 -0.4097
 2824W        W18958   6.986   5.081   2.306 -0.1562 -0.1052  0.2814
 2825W        W18959   6.632   3.738  13.038  0.3818 -0.0204 -0.0826
 2826W        W18960   8.668  18.740   1.641  0.4045 -0.1761  0.0741
 2827W        W18961  17.316   5.377   2.219 -0.2532  0.1474  0.2745
 2828W        W18962   3.485   9.466  12.337  0.1298  0.0566 -0.2825
 2829W        W18963   7.244  10.362  15.200  0.0199 -0.1212  0.2982
 2830W        W18964  11.535   9.011  13.454 -0.0086 -0.1306  0.1234
 2831W        W18965   9.808   0.375   4.692  0.2182  0.1681  0.1757
 2832W        W18966   8.917  11.794   1.295 -0.0659  0.0545 -0.0008
 2833W        W18967  15.163   9.867  12.397 -0.0135 -0.0018 -0.2962
 2834W        W18968  12.578  13.625  11.384  0.2875 -0.0365 -0.1098
 2835W        W18969   0.891  12.667   3.556 -0.0844  0.2941  0.0843
 2836W        W18970   4.681  12.191  12.176 -0.0313  0.0212  0.2624
 2837W        W18971   4.058  11.810  10.369  0.0087 -0.0266 -0.1889
 2838W        W18972   0.946   0.649  11.930  0.0219  0.0141  0.0179
 2839W        W18973  11.119   4.561  13.881 -0.1915  0.0346  0.0814
 2840W        W18974  15.075  19.122   0.236 -0.1565  0.1829 -0.1413
 2841W        W18975   3.965  12.605   5.144 -0.4640 -0.0916  0.0709
 2842W        W18976   7.003  14.484  14.232  0.1338 -0.3255 -0.1711
 2843W        W18977  17.114   4.331  12.009  0.0998 -0.0444  0.2626
 2844W        W18978  18.347   6.491   3.701  0.2576 -0.3008 -0.3262
 2845W        W18979   9.902  14.214  12.773  0.2400  0.0277 -0.1192
 2846W        W18980   8.068   4.651   0.057  0.1260 -0.1985 -0.0132
 2847W        W18981   8.278   0.053  13.761 -0.1060  0.0897  0.4194
 2848W        W18982   1.862   3.838  13.188  0.3558 -0.2978  0.2247
 2849W        W18983   1.981  17.706  11.264 -0.0103 -0.0845  0.1465
 2850W        W18984  14.835   5.284   0.522 -0.0038 -0.0116 -0.3130
 2851W        W18985   9.308   2.798   0.662  0.1802  0.2416 -0.1175
 2852W        W18986  12.735   2.120   4.306 -0.2086 -0.0617 -0.0243
 2853W        W18987   9.992   9.648   3.387  0.0532  0.0019 -0.1004
 2854W        W18988   1.296   2.949  12.985  0.3886  0.2111 -0.0763
 2855W        W18989  11.041   8.909  13.335  0.0066  0.2436 -0.2417
 2856W        W18990   2.419   7.934   1.667 -0.4227 -0.2276  0.0139
 2857W        W18991   4.389   9.107   1.979  0.1791 -0.2138 -0.2201
 2858W        W18992  10.852   8.738  12.073  0.1291  0.4323 -0.2232
 2859W        W18993   7.521  10.923  11.073 -0.1363 -0.1968  0.1037
 2860W        W18994   1.996  16.629  15.206 -0.2250  0.2173 -0.1294
 2861W        W18995  12.626  11.249   3.022  0.2110  0.0349 -0.0511
 2862W        W18996   2.192   4.689  14.255  0.2808 -0.2096  0.0525
 2863W        W18997  16.915   8.867  14.744 -0.2399 -0.0017 -0.1749
 2864W        W18998  16.535   3.706  11.348  0.1440  0.0804  0.2219
 2865W        W18999  16.376  13.126  14.677 -0.1028 -0.0276 -0.0986
 2866W        W19000   3.986   6.984   1.599 -0.2170  0.1204  0.2155
 2867W        W19001   4.460   9.142   5.608 -0.2184  0.0069  0.4298
 2868W        W19002   6.689  13.153   1.253  0.0726 -0.4297 -0.1663
 2869W        W19003   3.038   8.416   2.316 -0.3957  0.0379 -0.3580
 2870W        W19004  11.530   8.637   3.163 -0.2681 -0.1924  0.0211
 2871W        W19005   5.714   4.329  12.317 -0.1127 -0.0961 -0.0673
 2872W        W19006  16.409  16.920   3.455 -0.0459 -0.0974 -0.0281
 2873W        W19007   1.905  15.825   3.994  0.2292 -0.2843  0.0439
 2874W        W19008  18.621  13.760  12.554 -0.1074 -0.3915 -0.2532
 2875W        W19009  18.685   2.827  11.232  0.1809 -0.3705 -0.0342
 2876W        W19010   4.281   1.518   2.370  0.1282 -0.1391  0.2397
 2877W        W19011   3.798  18.703   0.457 -0.0783 -0.3602 -0.6256
 2878W        W19012  11.486   2.127  11.888 -0.0452  0.0775  0.3979
 2879W        W19013   0.422  18.632   2.537  0.2327  0.4002 -0.4956
 2880W        W19014  10.242  13.983   0.955 -0.1525 -0.0950 -0.2402
 2881W        W19015  16.754   1.029   4.306 -0.1026  0.0744 -0.0184
 2882W        W19016  18.761  13.837   2.623 -0.3306  0.1197 -0.2050
 2883W        W19017  15.367   2.389   4.980  0.0194 -0.2144 -0.0874
 2884W        W19018  18.912  10.264   0.724 -0.1291  0.0637 -0.1922
 2885W        W19019  19.141   4.494  11.581  0.1233  0.0682  0.1127
 2886W        W19020  18.038   9.476   1.693 -0.1078 -0.0670 -0.4213
 2887W        W19021  16.666  12.312  14.629 -0.1157  0.3478 -0.2166
 2888W        W19022   8.084   4.163  15.068 -0.0818  0.0723 -0.2207
 2889W        W19023  18.640  15.324  11.972 -0.0053 -0.3110 -0.0985
 2890W        W19024  14.858   3.321   2.385  0.0405  0.0382  0.2231
 2891W        W19025   0.827   6.303   3.340  0.0253 -0.1344 -0.2036
 2892W        W19026  11.580   5.679   4.007 -0.1935 -0.0509  0.0490
 2893W        W19027  18.002   2.123  14.688  0.3109 -0.3372 -0.0015
 2894W        W19028   6.575   2.055  12.383 -0.2812  0.4119 -0.0368
 2895W        W19029  12.807  12.805  12.955 -0.2358 -0.3998 -0.1367
 2896W        W19030   5.742  10.016  12.600 -0.1285 -0.0122 -0.0721
 2897W        W19031   1.230  18.368  14.672  0.0586  0.0953 -0.0977
 2898W        W19032  18.469  10.152   0.102  0.2419  0.3768  0.3619
 2899W        W19033   5.120   6.578   5.538 -0.0914  0.0291 -0.1127
 2900W        W19034   3.851  16.112   4.828 -0.0857  0.0875  0.3894
 2901W        W19035   0.739   2.369   2.689 -0.0323 -0.1725 -0.0262
 2902W        W19036   6.403   4.481  13.543  0.1617 -0.0929 -0.1643
 2903W        W19037   8.251  10.231   3.743  0.1531  0.0782  0.0439
 2904W        W19038   9.803  13.192   0.682 -0.1206  0.0581 -0.1498
 2905W        W19039  15.003   0.121   5.597 -0.0178 -0.2311 -0.1960
 2906W        W19040   2.023   7.909   4.168  0.1648 -0.1197 -0.0287
 2907W        W19041   6.309  18.198   4.161 -0.2825 -0.3882 -0.3400
 2908W        W19042  18.193  18.322   2.669  0.0148  0.2192 -0.0061
 2909W        W19043   9.671  10.243  13.211  0.0323 -0.0718 -0.2084
 2910W        W19044   7.298  16.451   3.330 -0.2508  0.1366  0.2774
 2911W        W19045  12.335   0.882  12.532 -0.2736  0.1081 -0.0379
 2912W        W19046   8.737  13.870   5.210  0.0708  0.1236 -0.1834
 2913W        W19047   2.992   7.490   4.494  0.0318  0.2788  0.1636
 2914W        W19048   1.419   9.922  10.196 -0.2421 -0.0852 -0.2000
 2915W        W19049  10.474   6.444  11.222  0.0154 -0.3729 -0.1837
 2916W        W19050   5.339  15.817  12.068 -0.0432 -0.2384  0.4887
 2917W        W19051   6.253   1.386  13.627  0.1907  0.3989 -0.1456
 2918W        W19052   1.986   8.917   4.020  0.0795  0.0040  0.1273
 2919W        W19053  13.469  13.911   0.581 -0.6345  0.1680 -0.0345
 2920W        W19054  16.618   8.999   3.995  0.0818 -0.0040 -0.1715
 2921W        W19055  14.436  11.729   5.336 -0.1930  0.0466  0.3316
 2922W        W19056   8.925   8.065  12.896 -0.0686 -0.0152  0.1344
 2923W        W19057  17.121   9.297  13.646 -0.1635 -0.2868 -0.0397
 2924W        W19058   4.859   5.632   2.762  0.2082 -0.1231 -0.2156
 2925W        W19059   0.474  16.440   3.901  0.0646  0.1041 -0.0959
 2926W        W19060  11.572   6.159   2.070  0.1018 -0.1470  0.1114
 2927W        W19061   8.126   7.510  12.965 -0.1253 -0.3882  0.1158
 2928W        W19062   3.956   3.901   3.011  0.1807  0.0172  0.1987
 2929W        W19063   4.672  12.173  13.835  0.1220 -0.2053 -0.1827
 2930W        W19064   7.814  13.400  14.360 -0.2088 -0.1058 -0.1414
 2931W        W19065  17.891   8.855  15.044  0.0370 -0.2213 -0.1378
 2932W        W19066  14.404   0.457  14.902 -0.0446 -0.1483  0.1201
 2933W        W19067   2.161   6.241   3.414 -0.1698  0.0733 -0.1606
 2934W        W19068  18.922  14.049   5.466 -0.1749 -0.4566 -0.2564
 2935W        W19069   7.466   7.036   2.832  0.0742 -0.2000  0.1544
 2936W        W19070  11.088  10.798  13.072  0.0603  0.0055  0.0465
 2937W        W19071   8.520   1.573   0.126 -0.0534  0.1800 -0.0816
 2938W        W19072  17.813   0.139  14.023  0.2509  0.1754  0.0973
 2939W        W19073   2.576  14.474   1.340  0.3277 -0.0172 -0.2597
 2940W        W19074  16.696   2.849  11.975  0.0328 -0.0333  0.1924
 2941W        W19075   3.758  10.790  14.689 -0.0986 -0.1983 -0.3484
 2942W        W19076   7.647  13.616  12.557 -0.0736 -0.0183  0.1791
 2943W        W19077  10.687   7.564   0.081 -0.2753  0.3110 -0.1668
 2944W        W19078   3.966  10.445  14.988 -0.1563  0.1138  0.3759
 2945W        W19079   0.437   0.086  12.457 -0.0552 -0.1822 -0.5419
 2946W        W19080   6.007   7.286  14.213 -0.0276 -0.0967 -0.0992
 2947W        W19081  17.213  10.885   2.675  0.4159 -0.2501 -0.4784
 2948W        W19082   2.709  13.566   0.710  0.3241 -0.4343 -0.0709
 2949W        W19083   0.909   0.597  13.719 -0.3833 -0.2799 -0.2838
 2950W        W19084   8.550  15.849  10.493  0.0287 -0.1372 -0.2115
 2951W        W19085   3.189  17.119   2.787 -0.2472 -0.0829 -0.5033
 2952W        W19086  10.579  12.306   1.445 -0.2196  0.0130  0.1064
 2953W        W19087  10.526   7.362  11.124  0.2416  0.0975  0.1368
 2954W        W19088  14.156   3.997   2.354  0.0353  0.2463 -0.1158
 2955W        W19089   1.468  12.787   5.604  0.0749  0.1150  0.0622
 2956W        W19090   1.007   0.464   1.839 -0.1568 -0.1541  0.1584
 2957W        W19091   1.261  15.598  14.295 -0.1503 -0.3731 -0.1560
 2958W        W19092   6.684   6.919  12.155  0.1938 -0.0016 -0.3017
 2959W        W19093   4.331   1.478  11.490  0.3872  0.0279  0.1639
 2960W        W19094   5.822   7.265   3.310  0.1962  0.1710 -0.0534
 2961W        W19095  15.702   5.038   2.593  0.6297 -0.0319  0.1118
 2962W        W19096  11.361  16.692  14.961  0.1808  0.1090  0.0538
 2963W        W19097   8.814  17.593  14.994 -0.1379  0.4080 -0.0373
 2964W        W19098   2.094   0.502  13.603  0.0532 -0.0947  0.0581
 2965W        W19099   4.881  18.075  10.688 -0.4444 -0.0760 -0.0281
 2966W        W19100  17.082  11.172  14.547  0.1014 -0.0369  0.0641
 2967W        W19101   4.718  15.192  14.959  0.2789 -0.0089  0.2979
 2968W        W19102  14.182  10.588   4.753  0.1003  0.1862 -0.0013
 2969W        W19103   3.568   7.385  11.090 -0.1597  0.1271  0.2107
 2970W        W19104  16.900  11.720   5.310  0.1168 -0.2245 -0.2180
 2971W        W19105  12.582   3.440   2.882  0.4872  0.1206  0.1961
 2972W        W19106   7.844   2.743   2.011  0.2054  0.0078 -0.1114
 2973W        W19107  15.686   4.452  12.782  0.0144 -0.3660  0.2919
 2974W        W19108   2.682  10.547  13.512 -0.2429  0.0679  0.1254
 2975W        W19109  17.394  18.645   5.075  0.2330  0.0919 -0.1131
 2976W        W19110   6.806  11.022   0.825 -0.0049  0.1210  0.0784
 2977W        W19111   9.586   1.861  11.475  0.0217  0.7004  0.0865
 2978W        W19112  14.711  17.085   5.352 -0.2586  0.2503  0.0488
 2979W        W19113  10.324  10.810   3.000  0.1078  0.0702  0.2060
 2980W        W19114   1.822  13.334   0.460  0.0554 -0.1179 -0.3230
 2981W        W19115  16.087   0.971   4.387  0.0677  0.0716 -0.2953
 2982W        W19116  12.202  14.529  13.094 -0.2038  0.0519 -0.1168
 2983W        W19117  14.695   2.976   1.948 -0.0558  0.0785 -0.3547
 2984W        W19118  16.389  18.017   2.520  0.2388  0.1598  0.0491
 2985W        W19119   0.836  14.522  14.889  0.0190  0.1015  0.1616
 2986W        W19120  10.067  12.912   1.949 -0.0018  0.1972  0.1781
 2987W        W19121   0.104  17.859   3.104 -0.0094  0.3306 -0.1419
 2988W        W19122  15.013   0.425   0.505 -0.0172  0.1474 -0.2965
 2989W        W19123  13.533  11.199   2.325  0.2866 -0.1809  0.0039
 2990W        W19124   6.960  11.366  13.423 -0.0081 -0.0238  0.0384
 2991W        W19125   2.688  17.909   9.761 -0.3447  0.2106 -0.0981
 2992W        W19126   8.084  10.584   5.155 -0.3251 -0.0742 -0.0989
 2993W        W19127   1.442  13.035  11.452 -0.0955 -0.1524 -0.0584
 2994W        W19128  13.179  18.590   1.746 -0.0535 -0.0571  0.2013
 2995W        W19129   7.838  16.933  11.548  0.1779  0.1617  0.6101
 2996W        W19130   8.798   5.106  12.316  0.0243  0.0257 -0.1597
 2997W        W19131   0.155  10.125  13.979  0.2889 -0.0206 -0.0454
 2998W        W19132   8.021   6.249   2.160 -0.0067  0.1125 -0.1242
 2999W        W19133   2.083   2.827   8.978 -0.2733 -0.0799 -0.1008
 3000W        W19134   7.680   7.530   3.978 -0.1463 -0.1752  0.2110
 3001W        W19135   6.447   2.260   1.744 -0.0373 -0.0238  0.0713
 3002W        W19136   3.385  11.476   2.788  0.2599  0.1953 -0.2784
 3003W        W19137  18.160   7.825  10.886 -0.1587  0.1740 -0.4794
 3004W        W19138   2.982  18.261  10.953  0.2138  0.1160  0.0428
 3005W        W19139   9.668   6.763   0.074 -0.2534  0.0553 -0.0309
 3006W        W19140  10.840   6.372  13.755 -0.2585  0.3295  0.0548
 3007W        W19141  11.593  11.597   3.446  0.0313  0.1883 -0.1550
 3008W        W19142   1.938  10.668  13.241 -0.0101 -0.1506 -0.0446
 3009W        W19143  14.210   2.862  10.708 -0.0598 -0.0726  0.0146
 3010W        W19144   3.362   4.568  10.466  0.1529 -0.0891  0.0534
 3011W        W19145  13.338   2.627   3.665 -0.1107 -0.0569 -0.2844
 3012W        W19146   9.194   3.004  12.425 -0.0581  0.0142  0.1424
 3013W        W19147   8.907  15.420  11.626  0.0325 -0.0297 -0.2777
 3014W        W19148   1.303   8.428   2.995 -0.2617  0.3594 -0.1646
 3015W        W19149   4.565  12.164   1.552 -0.2770  0.3484 -0.1871
 3016W        W19150   9.223   0.704  11.086 -0.0320  0.1047  0.2354
 3017W        W19151  17.058  19.143   2.229  0.0544  0.0142 -0.2214
 3018W        W19152   0.408   8.570   4.089  0.2180  0.0456 -0.0033
 3019W        W19153  14.730   2.584  10.789 -0.2554  0.1913 -0.0139
 3020W        W19154   8.405  15.424  11.728  0.1304 -0.2629  0.1881
 3021W        W19155   3.471  14.622  14.214  0.1581 -0.1310  0.2292
 3022W        W19156   8.502   8.215   1.483  0.1518 -0.2036  0.1949
 3023W        W19157  10.573  13.003   4.861 -0.2136 -0.0738  0.0452
 3024W        W19158  15.094   5.197  14.390  0.3822 -0.1474  0.4931
 3025W        W19159   5.695   3.321  12.973 -0.2300 -0.2649  0.0500
 3026W        W19160   3.236  18.569  10.645  0.0734 -0.0722 -0.3413
 3027W        W19161   1.590  16.635   1.840 -0.3938  0.0331  0.2652
 3028W        W19162  15.432   9.038   0.834 -0.2927  0.1576  0.2705
 3029W        W19163  10.385  16.522   2.935  0.0463  0.3061  0.0681
 3030W        W19164   8.939   4.822  14.237 -0.2233  0.2938 -0.2395
 3031W        W19165  12.570   1.849  14.374 -0.1140 -0.2566  0.0830
 3032W        W19166   3.370   9.561   2.748  0.2341 -0.3357  0.2935
 3033W        W19167  11.678   2.662   0.626 -0.1860 -0.0528 -0.2274
 3034W        W19168   6.937  13.954  11.859  0.5485  0.1736 -0.1356
 3035W        W19169  14.125  14.644   2.670 -0.0193 -0.0047  0.1965
 3036W        W19170  18.093   7.887   0.288 -0.1133 -0.1104  0.0220
 3037W        W19171  17.308  11.855   0.389 -0.1827  0.1635 -0.0322
 3038W        W19172   3.785   6.512   2.440  0.0987  0.2223  0.0487
 3039W        W19173  10.160   8.183  11.838  0.1594  0.1316  0.2497
 3040W        W19174   8.137  17.407  13.056  0.1018  0.0765  0.1248
 3041W        W19175   3.210   3.951  13.255  0.0051  0.1486 -0.1195
 3042W        W19176   4.018   5.688   4.036 -0.0365 -0.0216  0.1478
 3043W        W19177  18.209  13.154  11.748  0.0383 -0.2752  0.2994
 3044W        W19178   0.586  17.544   0.248 -0.4221  0.2203  0.3401
 3045W        W19179   1.008  18.191   1.970  0.0343  0.0332  0.2160
 3046W        W19180   7.813  19.115  12.434 -0.2659 -0.0351  0.1974
 3047W        W19181  15.568  15.408  12.838  0.3637  0.0303 -0.1007
 3048W        W19182   6.810  14.352   1.734  0.0779  0.1850 -0.1225
 3049W        W19183  10.882  13.024   3.138  0.0735 -0.1783  0.1959
 3050W        W19184   4.215  17.588   1.234 -0.2108 -0.0745 -0.0942
 3051W        W19185   8.887  13.810  14.421 -0.2830 -0.3209 -0.1161
 3052W        W19186  11.787  18.019   3.120  0.1667 -0.1288  0.1822
 3053W        W19187  16.281  11.269  13.267 -0.1916 -0.4644  0.4006
 3054W        W19188   3.923   6.273   4.906 -0.1537 -0.4603 -0.0385
 3055W        W19189   8.085  11.747  10.825  0.0348  0.2704 -0.0681
 3056W        W19190  18.486   5.259  11.733  0.0687 -0.1210 -0.5265
 3057W        W19191   2.440  11.000   0.190 -0.2581  0.0238 -0.0018
 3058W        W19192  16.103  14.893  12.532  0.1045 -0.2622 -0.0338
 3059W        W19193   7.942   1.857  15.131  0.2005 -0.1137 -0.0129
 3060W        W19194   2.572  12.340   0.640  0.2061  0.1092 -0.0747
 3061W        W19195   2.876  15.394   1.209 -0.0542 -0.1242 -0.2207
 3062W        W19196   2.485  13.976   0.875 -0.0540 -0.1661  0.0996
 3063W        W19197  10.692   8.197   1.759  0.2376  0.0696  0.3927
 3064W        W19198  13.191   0.705   2.355  0.3160 -0.1440  0.1903
 3065W        W19199   7.522  14.454  14.365  0.1101  0.4206  0.0028
 3066W        W19200  12.434   9.071   3.435 -0.3415 -0.0902 -0.0927
 3067W        W19201   0.435  12.643   0.924 -0.0655  0.4328  0.0492
 3068W        W19202  14.793  17.914  13.177 -0.1435  0.1353  0.1557
 3069W        W19203   5.096  17.600   3.422  0.1980  0.0582 -0.2409
 3070W        W19204   0.890   2.265  15.196 -0.2800  0.4025 -0.1310
 3071W        W19205  10.332  17.270  14.210  0.0542  0.0067 -0.1058
 3072W        W19206  10.094   0.116  13.285  0.2521 -0.3236  0.1050
 3073W        W19207   8.040   1.628  12.459 -0.1498  0.1733  0.0003
 3074W        W19208  13.003  12.621   1.597  0.0330  0.1498 -0.3409
 3075W        W19209  17.699   3.138  10.320  0.0406  0.0974  0.3062
 3076W        W19210  10.613  11.439   3.468 -0.0508  0.2601 -0.1266
 3077W        W19211   5.435  13.419   3.555 -0.2038  0.2497  0.3211
 3078W        W19212   4.082   7.070   1.081  0.1275 -0.4295 -0.0946
 3079W        W19213   4.287  14.374  14.063  0.0227  0.1091  0.0356
 3080W        W19214   9.232   9.871  14.717  0.0300 -0.1456  0.2519
 3081W        W19215   4.074  10.056   0.947  0.0051  0.0023  0.0244
 3082W        W19216  17.777  13.511  14.741 -0.1954  0.0038 -0.2895
 3083W        W19217   0.213  13.456   3.778  0.3192  0.0808  0.0297
 3084W        W19218  19.083   2.832  13.094 -0.3745 -0.0889  0.1678
 3085W        W19219  19.006   0.620   1.216 -0.1290  0.0497  0.0050
 3086W        W19220   4.734  13.958   2.382 -0.2431 -0.3176  0.2043
 3087W        W19221  11.931   5.894  13.091  0.0189  0.2143 -0.2008
 3088W        W19222  11.729   9.648  12.416 -0.0374 -0.4253 -0.1266
 3089W        W19223   6.218  18.372   5.195 -0.0674  0.4886 -0.2710
 3090W        W19224  18.174   4.673   9.130 -0.0370 -0.0009  0.1052
 3091W        W19225   3.767  11.362   4.070  0.0401 -0.1058  0.5447
 3092W        W19226   9.552   0.909  13.572  0.0740  0.0182  0.3756
 3093W        W19227   1.171   6.801  14.447  0.0858  0.0069  0.0462
 3094W        W19228  16.976   1.857   0.969  0.1524 -0.0050  0.0464
 3095W        W19229   9.009  15.805   1.969 -0.0755 -0.0830 -0.0384
 3096W        W19230   5.901  18.203  14.300  0.0385 -0.0985  0.0063
 3097W        W19231   5.786  11.080   2.710 -0.0697 -0.1275  0.2469
 3098W        W19232  14.991  14.642  10.577  0.0512  0.4514 -0.1997
 3099W        W19233   4.328   7.517  12.706 -0.1956  0.1388  0.1726
 3100W        W19234   0.643   2.363  12.624  0.0719  0.4844  0.0826
 3101W        W19235   2.248  16.708  14.278  0.0882  0.2522 -0.2207
 3102W        W19236  14.971   8.917  11.372 -0.1697  0.0881 -0.0822
 3103W        W19237  11.946  12.362  13.447  0.1642  0.0163 -0.1879
 3104W        W19238   9.836  18.647   1.216  0.0111  0.1412 -0.3779
 3105W        W19239   9.939  16.988  13.937  0.0655  0.0746 -0.0084
 3106W        W19240   3.846   6.688  12.846  0.1753  0.3665  0.0726
 3107W        W19241   6.705   3.283   2.738  0.0545 -0.4546  0.1833
 3108W        W19242  13.010   9.115  12.628  0.0389  0.0050 -0.0935
 3109W        W19243   1.265  11.382   4.349 -0.0737 -0.0083  0.2308
 3110W        W19244   5.555   5.043  12.089  0.2497 -0.2159 -0.1109
 3111W        W19245   8.348  15.317   1.468 -0.0412  0.0188 -0.0655
 3112W        W19246   7.697  12.664  13.711 -0.1554  0.2017  0.1525
 3113W        W19247  16.791   0.519   0.176 -0.3842  0.1325 -0.3060
 3114W        W19248  12.192  15.366   3.139  0.2397 -0.1841 -0.0249
 3115W        W19249   1.475  13.692   4.832  0.2871 -0.2147 -0.1316
 3116W        W19250  16.380  13.239   3.609 -0.3723  0.0330  0.0893
 3117W        W19251  18.321  13.882  11.229  0.2738 -0.0838  0.0893
 3118W        W19252   6.821  17.633   3.613  0.2671 -0.1072 -0.2465
 3119W        W19253   8.505  15.849   2.774 -0.1872  0.1535  0.2653
 3120W        W19254  12.795  15.779   4.294  0.1620 -0.0978  0.3039
 3121W        W19255   7.911  11.566   2.857 -0.1324 -0.0739 -0.2993
 3122W        W19256   3.330  14.802  14.697 -0.0115  0.1271  0.1026
 3123W        W19257  18.163   9.217   0.780 -0.1030 -0.3150  0.2467
 3124W        W19258  19.010  18.160  15.167  0.1202 -0.5629  0.0759
 3125W        W19259   0.613   5.886   0.315 -0.1043  0.1005  0.2170
 3126W        W19260   0.482   5.540  12.031 -0.1943  0.1567  0.1783
 3127W        W19261   4.909  17.842   9.737 -0.3548  0.0042  0.1183
 3128W        W19262  14.875  10.720   1.832  0.0127 -0.0974  0.2940
 3129W        W19263   8.212   9.509   5.585 -0.2463 -0.3732  0.0021
 3130W        W19264  13.938   3.563  11.988 -0.2074  0.1025  0.0818
 3131W        W19265   3.962  13.320   1.194 -0.1818  0.0396 -0.2947
 3132W        W19266   7.439   1.100   2.555 -0.0778 -0.1098  0.0380
 3133W        W19267   5.351  11.681   0.909 -0.2043  0.0875  0.2086
 3134W        W19268  12.457  15.753   3.270 -0.3128  0.3543 -0.2161
 3135W        W19269   2.616  17.692  13.458  0.2657 -0.1781 -0.1828
 3136W        W19270   9.855   6.114  13.636 -0.2296 -0.1037 -0.0391
 3137W        W19271   1.575   5.085  12.067  0.2262  0.1736  0.1096
 3138W        W19272  18.363   5.491   3.511 -0.0543  0.2547 -0.3332
 3139W        W19273  18.152   0.817  10.233 -0.0075 -0.1012 -0.1308
 3140W        W19274  18.389  15.650  14.720  0.1380  0.0789 -0.2172
 3141W        W19275  11.365   1.616  13.046  0.1130 -0.1960  0.1388
 3142W        W19276  11.269  14.996   4.347 -0.0085 -0.1122  0.0165
 3143W        W19277  11.085  18.748   2.188  0.0746 -0.0799  0.0529
 3144W        W19278   0.423   2.700   4.751 -0.1757 -0.4320  0.2334
 3145W        W19279  14.489   1.850   1.171 -0.1112 -0.0301 -0.0455
 3146W        W19280   4.938   6.924   5.868 -0.0932  0.0098 -0.1236
 3147W        W19281  11.693   0.449  11.762 -0.2066  0.1189 -0.2134
 3148W        W19282  14.632  17.367   4.525  0.1829  0.1165 -0.1763
 3149W        W19283   2.786   7.152   0.121  0.0608 -0.0725  0.1524
 3150W        W19284  12.397  11.448   2.578  0.2084  0.1721  0.3456
 3151W        W19285  18.946  15.425  14.844  0.3375  0.0867 -0.1908
 3152W        W19286   1.581   0.029  11.830  0.2649  0.0685 -0.1819
 3153W        W19287  10.898  18.346   4.405  0.0841 -0.0192 -0.0672
 3154W        W19288  17.934   1.149   3.406  0.0285  0.2162  0.2039
 3155W        W19289  15.228   9.479   1.121  0.0563 -0.1523 -0.0230
 3156W        W19290   9.993  17.606  11.403  0.3625  0.0635 -0.0333
 3157W        W19291   5.400   5.127   4.335  0.1111 -0.3960 -0.0467
 3158W        W19292  13.881   4.311  13.052 -0.1551  0.0122  0.3050
 3159W        W19293   2.859  10.151   0.011 -0.2253 -0.0448  0.4568
 3160W        W19294  17.633   7.831  11.677 -0.1637  0.4323  0.0076
 3161W        W19295  15.048  11.929  10.614  0.4954 -0.0699 -0.5858
 3162W        W19296   0.993  12.534   0.266 -0.1041 -0.1175 -0.0162
 3163W        W19297   5.887   1.304  15.110  0.4975 -0.3742  0.1911
 3164W        W19298  17.611   1.115   4.364  0.2771 -0.0027 -0.0540
 3165W        W19299  10.878   4.530   0.149 -0.0043  0.3384 -0.0101
 3166W        W19300   4.535   9.036  12.917 -0.0484 -0.1500 -0.3099
 3167W        W19301   5.714  12.901   2.213 -0.2627 -0.0375  0.0822
 3168W        W19302  13.562  18.529   3.432  0.0517 -0.1209  0.0169
 3169W        W19303   3.073  17.027  14.957 -0.0840 -0.0028 -0.0057
 3170W        W19304  10.400   0.999   0.593  0.3906 -0.2252  0.0779
 3171W        W19305   8.330   1.473   2.112  0.3964  0.1699 -0.0679
 3172W        W19306   2.114   6.108   3.955  0.0798 -0.0886  0.2824
 3173W        W19307   6.706   3.229  13.250  0.1512 -0.2297 -0.0683
 3174W        W19308  18.025  15.671   0.286  0.0755  0.0256  0.2502
 3175W        W19309  10.142   0.688   1.609 -0.0749  0.2185 -0.1686
 3176W        W19310  11.998   5.418   2.034  0.2140 -0.1610  0.3224
 3177W        W19311  15.364  10.550   1.627  0.1554 -0.0361 -0.0197
 3178W        W19312  18.738  14.362   1.612  0.2436  0.1471 -0.0370
 3179W        W19313   7.375   5.653   3.148 -0.0903 -0.0400  0.2585
 3180W        W19314  13.995   8.813   0.446  0.1945 -0.0812  0.0071
 3181W        W19315   5.051  18.247   3.407 -0.1553 -0.2739 -0.0989
 3182W        W19316   3.030  14.424   0.298  0.2199 -0.0088  0.1891
 3183W        W19317   5.204  15.596  11.595  0.0292 -0.3752 -0.1962
 3184W        W19318  10.594   0.151   1.222 -0.0546  0.0371  0.0157
 3185W        W19319  10.620  13.372   1.679 -0.0275  0.2475 -0.0192
 3186W        W19320   6.002   6.030   3.004 -0.0835 -0.2614 -0.0869
 3187W        W19321   1.866   5.282  11.365 -0.2337  0.0109  0.1885
 3188W        W19322  17.548   9.102  12.626  0.2478 -0.0648  0.0643
 3189W        W19323  13.062   0.609   0.852  0.3427  0.0110  0.4059
 3190W        W19324   7.473  13.639   1.197 -0.1108 -0.1021  0.0397
 3191W        W19325  11.280   8.145  12.004 -0.1952  0.0236  0.2911
 3192W        W19326  13.908   9.308   5.128 -0.0908  0.0282  0.0649
 3193W        W19327   5.597  18.350  13.821 -0.0492 -0.4932 -0.0189
 3194W        W19328  13.910   8.507   1.860 -0.0289  0.1523  0.1110
 3195W        W19329  16.199   5.785   1.581  0.3399  0.4866 -0.0591
 3196W        W19330   6.630  18.374  14.521  0.4026 -0.0031 -0.3189
 3197W        W19331  12.478   5.634  14.538  0.0252 -0.1443  0.2868
 3198W        W19332   2.654  10.990  14.943  0.0154  0.3975 -0.1050
 3199W        W19333   8.893  15.945  14.247  0.1270 -0.0190  0.0200
 3200W        W19334  10.672  18.634   0.648  0.1506 -0.0710  0.1370
 3201W        W19335   8.705   0.033   4.533  0.1833  0.2749  0.1446
 3202W        W19336   0.368   1.541  14.474  0.0390 -0.4533  0.2949
 3203W        W19337  15.430  13.671   2.908 -0.1294  0.1459 -0.0617
 3204W        W19338   6.407   4.807  11.228  0.0440  0.0721  0.0132
 3205W        W19339   4.712  17.951  10.248 -0.0104  0.0126  0.1729
 3206W        W19340  11.019   6.795  11.886 -0.0744 -0.1591 -0.0460
 3207W        W19341  16.982   3.670  13.996 -0.1790  0.1239  0.2018
 3208W        W19342  14.332   4.743  12.453 -0.1322  0.1431  0.2221
 3209W        W19343   1.662  16.264   5.275 -0.0874  0.2986 -0.3782
 3210W        W19344  18.436  17.903   3.815 -0.0247  0.0187  0.3174
 3211W        W19345  10.750   5.786   1.248  0.2037 -0.0402 -0.0648
 3212W        W19346   3.696   7.916  13.710  0.0100  0.2289 -0.1905
 3213W        W19347  11.513  16.091  13.787  0.0022 -0.0853 -0.3483
 3214W        W19348   6.994   1.145  14.421  0.4684  0.1997  0.1657
 3215W        W19349   9.671   3.156  12.275 -0.2967  0.1077 -0.1519
 3216W        W19350   5.372  12.124   4.938 -0.2254 -0.0987  0.0739
 3217W        W19351  18.922   5.591   0.957 -0.0776  0.0282 -0.0120
 3218W        W19352  11.444   5.665   4.559 -0.3986 -0.1391  0.1304
 3219W        W19353   5.373   6.872   1.350  0.0042 -0.0794  0.2062
 3220W        W19354   4.870   1.853   4.578 -0.0312  0.1069 -0.1890
 3221W        W19355  16.693  19.140  12.107 -0.2554  0.3200 -0.2999
 3222W        W19356  14.529  10.127  11.329  0.0753 -0.1100 -0.2700
 3223W        W19357   7.307   1.710   5.512  0.2192  0.2533 -0.1244
 3224W        W19358   7.631   6.251   4.338 -0.1751 -0.0851  0.1645
 3225W        W19359  12.657   8.551  12.279  0.3617  0.2380 -0.0071
 3226W        W19360   7.300  18.949   0.105  0.2029  0.1320 -0.2522
 3227W        W19361  18.945  16.973   5.188 -0.2235  0.0520 -0.0725
 3228W        W19362   9.814  14.335   1.835 -0.0258  0.3195 -0.0434
 3229W        W19363   6.471  12.721   4.185 -0.0066  0.3841  0.0705
 3230W        W19364  12.350  13.769  10.911 -0.2112  0.0740 -0.0856
 3231W        W19365   5.835   5.721   5.080  0.1041 -0.1121  0.3345
 3232W        W19366  15.883   2.249   3.388 -0.2922  0.2268 -0.0930
 3233W        W19367   3.133   0.797  12.963 -0.0378 -0.1109  0.2362
 3234W        W19368  14.518  11.216  11.887  0.2251  0.2651  0.0601
 3235W        W19369  17.979  15.284   3.523 -0.0402  0.0604  0.4162
 3236W        W19370   9.545   5.977   4.484 -0.0912  0.0107  0.0595
 3237W        W19371   5.669  13.592   2.453 -0.2836 -0.4084  0.0317
 3238W        W19372  18.267   9.537  15.026 -0.1872  0.0341 -0.1495
 3239W        W19373   8.364  11.291  12.417  0.2283  0.2410 -0.0891
 3240W        W19374  17.729  15.454  14.157  0.2685 -0.0084 -0.2643
 3241W        W19375   1.607  11.122  11.006 -0.1324 -0.2860 -0.0022
 3242W        W19376   1.504   2.567  14.063 -0.1206  0.2554  0.4167
 3243W        W19377  15.574   6.872   1.132 -0.2262 -0.3369  0.0679
 3244W        W19378   6.342   8.473   5.489 -0.0467 -0.1671 -0.5246
 3245W        W19379   1.186   6.352  11.422  0.1480 -0.6299  0.0719
 3246W        W19380   2.093   3.367   0.748  0.2740 -0.3023  0.3170
 3247W        W19381  12.630  16.011   0.073  0.1353 -0.2940  0.1072
 3248W        W19382   1.631  17.122   1.577  0.2738  0.4178 -0.0503
 3249W        W19383   3.375   1.349  12.555  0.0440 -0.2646 -0.0743
 3250W        W19384  18.449   3.617   2.836 -0.0619 -0.1513 -0.1678
 3251W        W19385   8.279   5.286   4.646  0.1614 -0.3059  0.0425
 3252W        W19386  19.043   7.484   2.548 -0.2125  0.0318  0.0340
 3253W        W19387  15.011   5.971   1.339  0.1013  0.1081  0.0192
 3254W        W19388   7.064   1.646   3.894 -0.0118  0.0597  0.0227
 3255W        W19389   7.294  10.964  14.030  0.1638 -0.1660  0.0149
 3256W        W19390  16.151   9.458   4.877 -0.0053  0.1140  0.0371
 3257W        W19391  14.350  18.076  11.665 -0.0118 -0.0448 -0.2216
 3258W        W19392  15.855  11.390   1.379 -0.0811 -0.1127 -0.1991
 3259W        W19393   8.572  16.386  14.100  0.2374 -0.0090 -0.1412
 3260W        W19394  14.318   2.686   5.182 -0.1823  0.0085 -0.0348
 3261W        W19395   6.637   9.565   0.043  0.1822 -0.1422 -0.0363
 3262W        W19396   0.307  18.830  14.803 -0.0294  0.1001 -0.5277
 3263W        W19397   6.049  15.051  12.929  0.2748  0.1439 -0.0377
 3264W        W19398  14.107   2.906   4.531  0.1402  0.2165 -0.3266
 3265W        W19399  11.924  11.770   4.333 -0.1675  0.1708 -0.2873
 3266W        W19400   6.553  14.370  11.772  0.1245  0.1996 -0.0717
 3267W        W19401   1.399  12.857   1.050  0.1363 -0.1822 -0.0382
 3268W        W19402  16.092   6.677  12.401  0.1459 -0.1430 -0.1581
 3269W        W19403   7.090  17.741   1.249 -0.1457 -0.1778  0.0080
 3270W        W19404   7.422  16.034  11.878  0.0024  0.1197  0.1206
 3271W        W19405  19.066  15.080  11.133 -0.0146  0.5034  0.1708
 3272W        W19406  13.337  17.974  14.183 -0.3380  0.1831  0.2380
 3273W        W19407  14.391   5.884   4.497 -0.1002 -0.1140 -0.1536
 3274W        W19408   0.310  13.304  13.636  0.2606  0.1438 -0.0142
 3275W        W19409  14.628   8.097  14.647 -0.2067  0.1570  0.2452
 3276W        W19410   3.238   4.239   2.715  0.4201  0.0638  0.0650
 3277W        W19411  18.534   1.146  12.639  0.3112  0.3812  0.1601
 3278W        W19412  13.769  13.698   2.677 -0.2752 -0.3959  0.1762
 3279W        W19413   7.642  19.020  13.537  0.2559  0.1205 -0.1443
 3280W        W19414  11.034   1.273   3.096  0.0917  0.0709  0.2532
 3281W        W19415   9.221   9.902   0.454 -0.1828  0.0582  0.0910
 3282W        W19416  18.076  14.592  13.837 -0.4209  0.1648 -0.2796
 3283W        W19417   9.775   6.125  12.653  0.1995  0.0984  0.0738
 3284W        W19418  10.977   7.304   0.538  0.2166 -0.4217 -0.0003
 3285W        W19419  11.136   5.319   5.526 -0.2141  0.2981 -0.0480
 3286W        W19420  17.376  17.609  11.542  0.0554  0.3830 -0.2244
 3287W        W19421   1.000  12.066   0.348 -0.3963 -0.2543  0.0101
 3288W        W19422  14.755  17.678   1.683  0.0679 -0.1772 -0.2626
 3289W        W19423  13.425   3.499  10.881 -0.0025  0.0947  0.0937
 3290W        W19424   1.829  18.181   5.101  0.0890  0.1976 -0.0739
 3291W        W19425  17.926  12.766   2.633  0.1133  0.0550 -0.1254
 3292W        W19426  17.429  12.787  13.960 -0.1632 -0.0859 -0.1468
 3293W        W19427   4.339   6.285  12.126 -0.0767  0.1723  0.1446
 3294W        W19428   4.058  16.603   4.690  0.0630 -0.1620  0.2754
 3295W        W19429  13.753  17.198  13.603 -0.4675  0.1046  0.0962
 3296W        W19430  16.760  13.360   4.677  0.3301  0.5104  0.2557
 3297W        W19431   6.515   9.631   2.821  0.1558  0.2219 -0.1697
 3298W        W19432   7.432  15.613   4.407 -0.0734  0.4449  0.1414
 3299W        W19433   3.322  18.108  12.748  0.0345  0.0701  0.3153
 3300W        W19434   8.929  11.259  11.207 -0.0051 -0.0106 -0.1242
 3301W        W19435   6.133   2.018   2.738 -0.0150 -0.0531  0.0922
 3302W        W19436   6.554  17.793  10.422  0.0681 -0.4508 -0.0869
 3303W        W19437   4.007   4.294  10.445 -0.0853 -0.1359 -0.1185
 3304W        W19438   9.676  16.764  10.780  0.1943 -0.1029  0.0808
 3305W        W19439  15.429  14.638  13.451 -0.1392  0.3004 -0.0941
 3306W        W19440  14.140  11.531  11.663  0.0048  0.1497  0.3014
 3307W        W19441   5.129  14.134  13.580 -0.3472  0.0841 -0.1214
 3308W        W19442   1.453   9.477  14.521 -0.0481 -0.0089 -0.1591
 3309W        W19443  14.348   6.711   5.656 -0.3758  0.2825  0.3818
 3310W        W19444   1.080  10.845  14.996 -0.0462  0.3579  0.1971
 3311W        W19445  12.896   9.265   4.445 -0.1119  0.3773 -0.1625
 3312W        W19446  14.769   5.877   4.140 -0.1973  0.0129  0.0633
 3313W        W19447   2.998  14.282   1.492  0.0416  0.0730  0.2809
 3314W        W19448   8.219   3.400  13.892  0.2713  0.7319  0.0436
 3315W        W19449   6.954   8.756  10.535 -0.0890  0.0413  0.1107
 3316W        W19450   6.830  15.837   4.572  0.1415 -0.3443  0.1028
 3317W        W19451   9.322   4.439  12.384 -0.1065 -0.2559 -0.1804
 3318W        W19452   4.341  17.965  11.225 -0.1103 -0.1252 -0.3147
 3319W        W19453   7.822  14.523   1.953 -0.1227  0.1084  0.0344
 3320W        W19454   9.549   9.529  14.556  0.1515  0.1844  0.1091
 3321W        W19455   9.096  15.678  11.217  0.2971 -0.3830  0.1977
 3322W        W19456  10.366   2.212  13.524 -0.3666 -0.2231 -0.0234
 3323W        W19457   5.432  11.792   3.468  0.2208 -0.1608 -0.0374
 3324W        W19458   8.120   1.811  13.675  0.2024 -0.1484 -0.1810
 3325W        W19459   2.080   4.825  12.925  0.1568  0.2534 -0.2057
 3326W        W19460   3.534  14.506  13.071  0.0110  0.5005  0.1573
 3327W        W19461  12.791   2.064   0.298 -0.2847 -0.1434 -0.0128
 3328W        W19462   3.483   9.681  10.616 -0.0148 -0.0155 -0.4460
 3329W        W19463  11.284  16.412  12.767 -0.1216 -0.1867  0.1859
 3330W        W19464  17.589  14.913   2.372 -0.0178  0.0879  0.2414
 3331W        W19465  11.886  15.580  13.846 -0.0731  0.2748 -0.2985
 3332W        W19466  12.210  18.830  11.947  0.0184 -0.3413 -0.2179
 3333W        W19467   5.240   1.649   3.600 -0.0502 -0.2505 -0.0563
 3334W        W19468  10.429  13.733   5.346  0.3125  0.0100 -0.2834
 3335W        W19469   3.850   8.170   4.012 -0.0206  0.0726 -0.0136
 3336W        W19470  13.116  11.342   4.404  0.1690  0.0316  0.3153
 3337W        W19471   2.712   7.684  14.658 -0.1158  0.2828  0.0344
 3338W        W19472   8.573   2.116  13.527  0.2319 -0.1934  0.1813
 3339W        W19473  13.245  18.462   4.573 -0.1927  0.1019  0.1170
 3340W        W19474  12.781   2.587  13.283 -0.1435 -0.0365  0.1475
 3341W        W19475   7.757  14.574  14.950  0.2088  0.1720 -0.3123
 3342W        W19476  10.894   9.112  12.818  0.1127 -0.1034 -0.1049
 3343W        W19477   1.361  17.635   4.652  0.0310 -0.3608 -0.0491
 3344W        W19478   5.387  17.423  11.177 -0.1540  0.1871 -0.1299
 3345W        W19479   0.092  12.958   0.687 -0.4474  0.0048  0.1871
 3346W        W19480  14.161   7.724  14.759 -0.1030  0.0391 -0.1734
 3347W        W19481  13.566   5.246  12.856 -0.3321 -0.0486 -0.2356
 3348W        W19482  13.212   5.789   0.105  0.0929  0.0233  0.2808
 3349W        W19483  11.652  15.264   5.095 -0.0709 -0.0269  0.2596
 3350W        W19484  11.555   2.402   1.413 -0.2029  0.0674  0.0157
 3351W        W19485   4.774  10.298   1.374 -0.1654  0.0481 -0.2740
 3352W        W19486  14.764  11.477   3.669  0.0725  0.0719 -0.1732
 3353W        W19487  14.576  18.213  13.879  0.0013  0.2761 -0.3026
 3354W        W19488  13.966  10.577   1.960  0.2457 -0.0736 -0.4341
 3355W        W19489   3.708   5.640  10.451 -0.1315  0.1231 -0.1796
 3356W        W19490   9.920   5.444  14.969  0.1957 -0.0651  0.2432
 3357W        W19491   5.173   0.884  12.479  0.3525 -0.1818  0.0423
 3358W        W19492   0.740   0.044   3.072  0.3759  0.1492 -0.1592
 3359W        W19493   6.148  12.252  14.216 -0.4786  0.3080 -0.1404
 3360W        W19494   3.452  14.797  12.213  0.1033 -0.2789 -0.1037
 3361W        W19495   4.321  16.209   0.737  0.1094 -0.1929  0.1104
 3362W        W19496  17.255  17.981   5.107  0.0329 -0.1406 -0.1891
 3363W        W19497   0.535  16.997  11.460 -0.1461 -0.0992 -0.3353
 3364W        W19498  16.894  18.777   3.426 -0.0540 -0.4069  0.0732
 3365W        W19499  11.063   7.542  12.443  0.0628 -0.0645  0.1191
 3366W        W19500  17.938   2.076   2.241  0.1520  0.1854 -0.0562
 3367W        W19501   9.144  10.401  14.740  0.3214  0.0165  0.2947
 3368W        W19502  12.085  10.342  10.362  0.3616 -0.2508 -0.2530
 3369W        W19503   0.631   6.847  13.748  0.0722 -0.1468  0.1109
 3370W        W19504   1.060   0.204  10.275  0.4732 -0.0768  0.0152
 3371W        W19505   2.595   7.678  13.499 -0.0052  0.0989 -0.0788
 3372W        W19506  17.252   3.112  11.192  0.4367 -0.0320  0.2949
 3373W        W19507   3.192  12.106  14.202 -0.1343 -0.3609  0.2949
 3374W        W19508  15.488  12.345   0.827 -0.0101  0.2425  0.0698
 3375W        W19509  12.456   1.411   3.742  0.1942 -0.1725 -0.2346
 3376W        W19510   6.591  15.035  12.417  0.1430  0.3772  0.0636
 3377W        W19511  14.364   6.263  14.912 -0.2151  0.0087 -0.0764
 3378W        W19512  11.706   0.223  14.929 -0.0793  0.1052 -0.1140
 3379W        W19513  13.308   8.262  13.482 -0.0870  0.0680  0.3707
 3380W        W19514   9.117   0.094   4.828  0.1611 -0.1430 -0.1505
 3381W        W19515  17.253   0.997   5.921 -0.1978 -0.1147 -0.4567
 3382W        W19516   5.650   3.069  14.441 -0.0366  0.0656  0.0477
 3383W        W19517  15.981  10.863   2.115 -0.2488 -0.0596  0.3047
 3384W        W19518  11.854   8.927  11.816  0.0088 -0.4619 -0.0110
 3385W        W19519   4.992   8.153  13.449 -0.2941 -0.0438  0.1010
 3386W        W19520   5.367  15.211   4.605 -0.2669 -0.0102  0.0351
 3387W        W19521  11.688   6.345  10.831 -0.2739  0.0712  0.1727
 3388W        W19522   4.083   4.237  13.566  0.1950  0.2163 -0.2167
 3389W        W19523  14.562   4.085   1.734 -0.1025 -0.1381 -0.4335
 3390W        W19524  17.912   9.017  12.289 -0.3316  0.0461  0.0386
 3391W        W19525  11.813  17.383  10.405 -0.0497 -0.3297 -0.2539
 3392W        W19526   6.541   8.063   1.615  0.2908  0.0194  0.2958
 3393W        W19527   1.083  16.348  15.004  0.3178 -0.4167 -0.3381
 3394W        W19528   1.338   9.516  11.763 -0.1670  0.3119 -0.2993
 3395W        W19529   9.055   5.468  14.408 -0.0581  0.0646 -0.0056
 3396W        W19530   0.327  10.846   3.803 -0.0582  0.1516 -0.0454
 3397W        W19531   7.507  15.987   3.997  0.0178 -0.0869 -0.1272
 3398W        W19532  17.186   8.431   1.196 -0.5044 -0.0506  0.0202
 3399W        W19533   9.394   2.009   3.644  0.5381 -0.0271  0.1713
 3400W        W19534   7.655   1.659  13.314 -0.2546 -0.1610 -0.0381
 3401W        W19535  17.280  10.397   2.570 -0.2148 -0.0639 -0.0107
 3402W        W19536  16.026   7.002  10.722 -0.0519  0.2219  0.1549
 3403W        W19537  10.806   6.398   3.663  0.3975  0.0751  0.2956
 3404W        W19538  11.431   2.570   2.437  0.2634  0.3396 -0.0181
 3405W        W19539  14.903   2.410  11.216  0.2127 -0.0214 -0.0912
 3406W        W19540  11.422  16.391   5.051  0.2069 -0.0152 -0.4827
 3407W        W19541  13.851   1.469  13.727 -0.0258 -0.1224 -0.0206
 3408W        W19542  11.910   4.060   0.547 -0.0905  0.2413  0.1398
 3409W        W19543   0.862  17.792   4.751 -0.0415  0.0938 -0.1493
 3410W        W19544   8.133   0.118  12.043 -0.1302 -0.1430 -0.1513
 3411W        W19545  12.912   6.070  13.946  0.1440 -0.4238  0.2540
 3412W        W19546  10.687   7.736   1.547 -0.0685 -0.0035 -0.1986
 3413W        W19547   3.877   3.650   2.582  0.0216 -0.1824 -0.1563
 3414W        W19548  11.625  11.587  11.910  0.2570  0.2414  0.2279
 3415W        W19549  12.848  18.116  11.474 -0.2759 -0.3146  0.1711
 3416W        W19550  12.260  12.161   5.022 -0.0683  0.0821  0.0577
 3417W        W19551   9.079   1.935   2.209 -0.2878  0.2556 -0.0189
 3418W        W19552   3.781   7.842   1.580  0.0389 -0.1209 -0.2329
 3419W        W19553  16.747  17.978  13.479  0.1510 -0.0526  0.0670
 3420W        W19554  11.578   4.930   2.685  0.5713 -0.2442 -0.1341
 3421W        W19555   8.447   4.527  11.533 -0.3440  0.0304  0.2918
 3422W        W19556   8.964  10.493  10.572 -0.3105  0.0648  0.0664
 3423W        W19557  11.888  17.738   3.510 -0.1748  0.1650  0.0731
 3424W        W19558   0.650  11.104   1.908  0.1025  0.2913  0.1417
 3425W        W19559   8.202   1.054   1.479  0.2798 -0.0651 -0.0204
 3426W        W19560  13.921   3.956  11.636  0.3033  0.1184  0.3502
 3427W        W19561   8.025  16.956   9.537  0.3125  0.0132  0.2501
 3428W        W19562  19.089  11.936  14.271 -0.0868  0.0869  0.1100
 3429W        W19563   4.152  16.232   4.311  0.1834 -0.2658 -0.0893
 3430W        W19564  11.689   4.943  14.665 -0.2831 -0.0196  0.2837
 3431W        W19565   9.314   7.227  13.854  0.1754 -0.0887  0.3607
 3432W        W19566   4.882   7.703  14.506  0.1722  0.4222 -0.3625
 3433W        W19567  11.712   7.962   4.268  0.1648 -0.2606 -0.0726
 3434W        W19568  17.787  12.007  14.295 -0.1583  0.0215 -0.2679
 3435W        W19569  13.357   0.633  10.533  0.1809  0.3570 -0.2849
 3436W        W19570   4.264   2.289   3.517 -0.2777 -0.0575  0.2298
 3437W        W19571  11.893  12.712   4.658  0.1275 -0.0350  0.2476
 3438W        W19572   6.044  12.888   4.355 -0.1743  0.0940  0.0401
 3439W        W19573  13.896   6.725   4.242  0.3573 -0.1750  0.0096
 3440W        W19574   2.716   7.053   1.164 -0.3095 -0.0681  0.0691
 3441W        W19575   7.031  17.832  11.756 -0.0100 -0.2240  0.3410
 3442W        W19576  10.589  11.691  11.545 -0.1194  0.0151  0.4004
 3443W        W19577   4.730   1.053   5.114 -0.2269  0.0987 -0.2075
 3444W        W19578   8.060   0.061  13.303  0.2532 -0.1780 -0.2478
 3445W        W19579   4.087   4.757  11.073 -0.0282 -0.1369  0.1178
 3446W        W19580   9.168   2.408   3.401 -0.0126  0.0688 -0.3171
 3447W        W19581  18.770  18.314  13.992 -0.4364 -0.0645  0.0496
 3448W        W19582   8.327  14.055  11.566 -0.0400 -0.0006 -0.0760
 3449W        W19583   8.249   7.693  11.467 -0.2153 -0.1348 -0.2813
 3450W        W19584  13.054   2.810  11.270  0.2344 -0.0133  0.0879
 3451W        W19585   4.851   8.782   9.926 -0.2881  0.0879 -0.0434
 3452W        W19586  14.346   6.268   3.887 -0.0697 -0.2667 -0.1823
 3453W        W19587   1.187   0.589   3.186  0.0045  0.2737 -0.2355
 3454W        W19588  12.269   5.864   9.593 -0.2655 -0.0968  0.3331
 3455W        W19589  13.655  14.075  11.202  0.1139 -0.0028  0.2143
 3456W        W19590  18.636   9.162  11.802 -0.1487 -0.0288 -0.3238
 3457W        W19591  18.544  11.476  11.335  0.0677  0.0695 -0.6312
 3458W        W19592   0.873  17.316  15.167 -0.2845  0.1814 -0.2047
 3459W        W19593   8.912  13.381  12.074  0.2969  0.2644 -0.1788
 3460W        W19594   8.716   0.667   3.263  0.2177  0.2456  0.3441
 3461W        W19595  16.833  18.935  13.132  0.2141  0.0828 -0.0053
 3462W        W19596  18.339   5.889  10.629  0.2757  0.1611  0.2359
 3463W        W19597  10.592   6.160  14.719  0.0031 -0.3132 -0.3320
 3464W        W19598   7.963  17.428  10.734  0.0764 -0.2577 -0.0332
 3465W        W19599   4.673  16.304   1.179 -0.1419 -0.1761 -0.0270
 3466W        W19600  14.772  15.084  10.539  0.1455  0.2858 -0.0437
 3467W        W19601   9.025   5.389   3.885 -0.3117 -0.3561  0.1487
 3468W        W19602  15.461  13.668  10.879  0.3322  0.2453  0.1241
 3469W        W19603   5.445  17.285   0.008 -0.0965  0.3533  0.1291
 3470W        W19604   1.445  11.884  14.854 -0.0465 -0.3281 -0.2734
 3471W        W19605   1.362   9.023   0.184 -0.0332  0.1870  0.1813
 3472W        W19606   8.183   2.944   1.460 -0.0022  0.0240 -0.0385
 3473W        W19607   0.283   7.002  10.256  0.2960 -0.1190  0.2457
 3474W        W19608   7.961  12.797   0.834 -0.1700  0.1524  0.1874
 3475W        W19609  18.897  18.924   2.485 -0.1423 -0.0959  0.3186
 3476W        W19610  16.458   2.535  14.197  0.1038 -0.0575 -0.5622
 3477W        W19611   8.943   0.582  12.709 -0.2645  0.0119  0.2565
 3478W        W19612  15.042   0.292  11.486  0.1031  0.0197 -0.2659
 3479W        W19613   9.650  14.719   2.800 -0.0564 -0.2312  0.3448
 3480W        W19614  16.038   6.863  12.863  0.0384  0.6190 -0.3317
 3481W        W19615   8.371   3.125   9.734  0.0502 -0.0429  0.1432
 3482W        W19616   2.760   4.307  13.754  0.0510 -0.2904  0.1876
 3483W        W19617   3.408   2.288  12.311 -0.2623  0.0483 -0.2561
 3484W        W19618  13.206   1.122   4.725 -0.2140 -0.1138 -0.0571
 3485W        W19619  10.037   5.154  13.794  0.1125  0.1819 -0.2270
 3486W        W19620   2.160   5.798  10.579 -0.1193 -0.0300 -0.2445
 3487W        W19621  10.989  16.551   2.301 -0.1545 -0.1411 -0.2993
 3488W        W19622  16.545  14.699  12.759  0.0117  0.1612 -0.0054
 3489W        W19623  15.990   9.759  10.754  0.1551  0.1086 -0.0086
 3490W        W19624  12.690   3.488  14.102 -0.0991 -0.0764  0.0121
 3491W        W19625  10.981   7.570  11.043  0.0294  0.1285 -0.0215
 3492W        W19626   9.443  13.843   4.831 -0.0455 -0.0474 -0.0913
 3493W        W19627   5.358   7.482   9.791  0.1919  0.0277 -0.1092
 3494W        W19628  15.444   6.417   4.377  0.0830 -0.0022  0.0468
 3495W        W19629   3.728  18.185  13.125 -0.0682 -0.0937 -0.0714
 3496W        W19630  14.405  12.804   4.061  0.0834 -0.1414 -0.1336
 3497W        W19631   3.139  16.311   0.200  0.0098  0.1733 -0.2355
 3498W        W19632  16.296  11.853   2.762  0.1307  0.2642 -0.0561
 3499W        W19633  10.203  18.600   5.446  0.0030 -0.1483 -0.1498
 3500W        W19634   2.160   0.255   3.246 -0.0175 -0.4957 -0.2376
 3501W        W19635   4.551  16.455  13.085 -0.0124  0.2286  0.0477
 3502W        W19636   8.608   5.548   0.859 -0.0718  0.1458 -0.0504
 3503W        W19637   2.052   3.836   3.483  0.0031 -0.0394 -0.2394
 3504W        W19638   6.472  10.069   1.600  0.0104  0.4466 -0.0585
 3505W        W19639  16.136  18.996   3.576 -0.1425  0.1380 -0.0717
 3506W        W19640   6.103  17.189  12.405  0.1924  0.0414 -0.1730
 3507W        W19641  14.191  14.239  11.169  0.1368  0.0508 -0.1417
 3508W        W19642  17.405  15.143  14.406 -0.3172  0.0466  0.1977
 3509W        W19643  12.458  17.153  11.418  0.0183  0.0974  0.3218
 3510W        W19644  11.943   7.378   4.448  0.1193  0.0329 -0.2404
 3511W        W19645  16.407  18.891   4.945  0.3824 -0.1399 -0.0084
 3512W        W19646  11.817  15.598   4.449  0.1767 -0.0440 -0.1748
 3513W        W19647   2.904  10.760   2.577 -0.0023  0.1089  0.2272
 3514W        W19648   0.857   3.209   0.428 -0.3301  0.2693  0.2151
 3515W        W19649  13.794  13.217   2.092 -0.1701  0.1011  0.1330
 3516W        W19650   9.459   5.445  14.800 -0.1102 -0.1362 -0.0788
 3517W        W19651   6.815   5.542   3.026  0.1445 -0.1827  0.1404
 3518W        W19652  16.546   2.856   2.964 -0.0390  0.0051  0.2989
 3519W        W19653  15.387   6.263   5.948 -0.0232 -0.1482 -0.2117
 3520W        W19654   8.657   1.947  12.936  0.0840 -0.1745 -0.1859
 3521W        W19655   4.377  17.444  11.121  0.4392 -0.1167  0.0346
 3522W        W19656  10.785  12.694  12.850 -0.2536  0.0408  0.1691
 3523W        W19657  15.333   9.589   4.452  0.0315 -0.0056  0.3425
 3524W        W19658   5.972   9.221   3.926  0.0478  0.2530  0.3518
 3525W        W19659  17.131  16.315   1.839 -0.0461  0.0681 -0.0730
 3526W        W19660  16.314  11.381  12.204  0.0565  0.1194 -0.2357
 3527W        W19661   5.382  15.150  14.934 -0.0840  0.1546  0.1746
 3528W        W19662   1.892   7.095   0.561 -0.1492 -0.2422 -0.0984
 3529W        W19663   3.152   1.843   2.868  0.0442 -0.1731  0.1437
 3530W        W19664  11.222  11.691  10.863 -0.2942 -0.1658  0.1143
 3531W        W19665   3.811   2.568   1.064 -0.0377  0.1235  0.1924
 3532W        W19666  13.144  14.308   0.786 -0.3111 -0.5415 -0.0527
 3533W        W19667   2.449  10.350  11.948 -0.1521  0.0988  0.1230
 3534W        W19668   9.844   5.407   3.853  0.2323 -0.0660 -0.2844
 3535W        W19669  12.751   9.996  12.525  0.0897 -0.3202  0.1371
 3536W        W19670   5.281  11.994   0.347 -0.3191 -0.2543 -0.0274
 3537W        W19671  14.820   2.096   1.782  0.1576  0.1974 -0.4344
 3538W        W19672  12.381   0.229   3.180  0.4409  0.2302 -0.2554
 3539W        W19673   0.917  14.249  12.872  0.0436 -0.3210 -0.1215
 3540W        W19674  17.260  12.383   4.438  0.0300  0.0294  0.1589
 3541W        W19675  14.481  13.802  13.295 -0.1791 -0.0167 -0.0419
 3542W        W19676   2.195   6.833   2.544  0.0578 -0.1881  0.1224
 3543W        W19677   5.667  16.887  15.198  0.0620  0.1865 -0.0701
 3544W        W19678  10.181   3.041  12.237  0.1459 -0.1422  0.1802
 3545W        W19679   1.153  11.269   3.384 -0.0426  0.0185 -0.1006
 3546W        W19680   9.876  19.025  14.883 -0.4430 -0.0850 -0.2796
 3547W        W19681   4.289   0.528  10.581  0.0112 -0.0553 -0.2477
 3548W        W19682   8.762   7.942   2.467 -0.0899  0.0059  0.1307
 3549W        W19683   6.918   3.211   4.364  0.0256  0.0555  0.3205
 3550W        W19684  11.817  17.234  14.857 -0.0733  0.2859  0.0859
 3551W        W19685   0.752   7.682   3.312 -0.3760 -0.1413 -0.1008
 3552W        W19686  16.466  16.334   9.648 -0.0583 -0.0822  0.1388
 3553W        W19687   5.870   8.432   3.294 -0.2736 -0.0044 -0.2124
 3554W        W19688   9.831   4.440   1.833 -0.0633 -0.1055 -0.0069
 3555W        W19689   8.537   2.127  11.231  0.2209  0.3938  0.1023
 3556W        W19690  12.011   0.569  15.191 -0.0082  0.0254 -0.1943
 3557W        W19691  12.935  16.266   1.578  0.0037  0.1393  0.0002
 3558W        W19692   5.823  16.013  12.073  0.2201  0.0288 -0.0110
 3559W        W19693   4.757  14.451   1.660 -0.0801 -0.2503  0.0863
 3560W        W19694   0.891   0.590  10.629  0.1445 -0.1554 -0.0685
 3561W        W19695   8.841   6.193   0.489 -0.1638 -0.4767 -0.1381
 3562W        W19696  10.752   5.332  11.824  0.0660 -0.0633  0.0925
 3563W        W19697  13.832  11.471   2.563  0.1034  0.3136  0.3677
 3564W        W19698  17.492  12.085   4.780  0.4247  0.0509 -0.0468
 3565W        W19699   1.833   6.217   1.398  0.1506 -0.0269  0.0623
 3566W        W19700  17.089  16.358   3.995 -0.0050 -0.0711  0.0745
 3567W        W19701   4.593   8.553  13.373  0.2027  0.1621 -0.3155
 3568W        W19702  15.346   1.534   1.186 -0.0907  0.3620 -0.3458
 3569W        W19703  12.168  14.389  13.624  0.2547 -0.3511 -0.2311
 3570W        W19704  16.961  14.447  14.218 -0.0794  0.0181 -0.0981
 3571W        W19705  14.480  11.847   0.477 -0.1891 -0.2084 -0.2823
 3572W        W19706   6.028   3.642   0.201  0.0951  0.0664  0.2240
 3573W        W19707   9.598  11.842  12.845  0.0945 -0.0931  0.2433
 3574W        W19708   2.072   3.362  10.877 -0.2058 -0.1372 -0.1382
 3575W        W19709  18.515   0.833  13.028 -0.1481  0.2836  0.1198
 3576W        W19710  16.768  10.465   4.697 -0.1133  0.2538 -0.1093
 3577W        W19711   2.157   9.485  11.291  0.0271 -0.0383 -0.0952
 3578W        W19712  16.652  16.036  13.494 -0.0027  0.2941  0.1378
 3579W        W19713   7.393  14.963   1.196  0.0866  0.0220 -0.2355
 3580W        W19714  12.283   5.445   0.202  0.0046 -0.1177 -0.2041
 3581W        W19715   7.358  11.227   2.896 -0.0506  0.2142  0.0782
 3582W        W19716  15.765  17.529   3.213  0.1153  0.0446 -0.0727
 3583W        W19717   7.934   6.975  14.489  0.1464  0.0261  0.1665
 3584W        W19718  12.877   7.290  13.098 -0.1931  0.0953 -0.0027
 3585W        W19719   6.153   5.523   0.198 -0.2293 -0.2535  0.1390
 3586W        W19720  10.415  11.271  13.954 -0.0203  0.2093 -0.0540
 3587W        W19721  11.463   9.131  14.138  0.0772  0.0275 -0.0446
 3588W        W19722   3.236  17.157   5.592  0.0912 -0.0055 -0.1562
 3589W        W19723  11.756   3.296  13.196 -0.1162  0.3593 -0.0103
 3590W        W19724   5.391  16.517   4.262  0.4509 -0.2088  0.4903
 3591W        W19725  10.749   6.263  14.263 -0.2738 -0.1674  0.0984
 3592W        W19726   1.620   3.908   3.735  0.0698 -0.1361 -0.5062
 3593W        W19727  18.382  12.817   0.117 -0.0132  0.2955 -0.0708
 3594W        W19728   6.769  13.013   2.641  0.1864  0.1793  0.1804
 3595W        W19729   8.517  12.458  13.562  0.0607  0.0325 -0.0062
 3596W        W19730  10.789  19.142  11.187  0.1322  0.1086  0.1146
 3597W        W19731  13.616   6.640   6.043  0.0160 -0.1417  0.2677
 3598W        W19732   9.439   1.154  12.488 -0.0056  0.1528 -0.0009
 3599W        W19733   8.790   4.944  12.833 -0.0851  0.1119 -0.2102
 3600W        W19734   6.286  12.489  14.947 -0.0474 -0.2201  0.3750
 3601W        W19735   6.343   7.577  13.127 -0.0377  0.1120 -0.0545
 3602W        W19736  16.031  12.993   2.797  0.2942  0.2353 -0.1003
 3603W        W19737  18.824   0.627   4.937  0.0199  0.2783 -0.2396
 3604W        W19738  13.017  10.790  14.063  0.0729 -0.1834 -0.0767
 3605W        W19739   2.169  18.857  15.062 -0.0515 -0.1665  0.3079
 3606W        W19740   6.287  16.182   5.052  0.1210 -0.0511 -0.4547
 3607W        W19741  16.231   4.063   4.355 -0.0598  0.1082 -0.2903
 3608W        W19742  13.659  15.272   9.750  0.1513 -0.0228 -0.2048
 3609W        W19743  15.264  11.528   2.184 -0.1324  0.2756  0.0037
 3610W        W19744   3.366  14.034  14.456 -0.0506 -0.0619  0.5424
 3611W        W19745  15.747  14.973   1.837  0.0290  0.1418  0.1063
 3612W        W19746  12.839   5.917   2.168 -0.0585  0.1059  0.0770
 3613W        W19747   5.478  11.376   4.167  0.1441 -0.1125 -0.0258
 3614W        W19748  10.215  12.011  12.211 -0.0157 -0.1221 -0.2416
 3615W        W19749   0.462   3.612   2.921 -0.2044  0.0074  0.0082
 3616W        W19750   1.160   6.006  12.852  0.2216  0.0788  0.2435
 3617W        W19751   9.166   7.660  13.180  0.2194 -0.0592 -0.2742
 3618W        W19752   9.362   8.697   4.242 -0.0932 -0.0007 -0.0740
 3619W        W19753   7.197   4.882   3.715  0.1492  0.0989  0.0193
 3620W        W19754   8.214   1.986  10.377 -0.1604 -0.4359  0.0510
 3621W        W19755   1.305   1.453   1.005 -0.3415  0.0281 -0.1178
 3622W        W19756  10.836  13.754   5.783  0.2481 -0.3253 -0.0394
 3623W        W19757  18.683   6.388   2.854  0.0516 -0.2617  0.0068
 3624W        W19758   5.310  17.010  13.483 -0.3715 -0.0977 -0.2634
 3625W        W19759  13.689  18.883  14.034 -0.3086 -0.1023 -0.1016
 3626W        W19760  11.203   3.339  12.396 -0.1219 -0.1725  0.2578
 3627W        W19761   1.040  17.516   5.728 -0.3832 -0.1124  0.1557
 3628W        W19762  11.620   1.611  14.865  0.1631  0.3804 -0.1213
 3629W        W19763   5.231   3.524  11.241  0.1360  0.1051  0.2427
 3630W        W19764  14.652   4.764  11.947  0.0337 -0.0749  0.0897
 3631W        W19765   0.274  16.002   4.023  0.4076  0.0217  0.1582
 3632W        W19766   2.166   4.500  13.296  0.0290  0.0266  0.0868
 3633W        W19767  17.092   7.394   1.671 -0.1881 -0.3917  0.0038
 3634W        W19768  13.306   3.485   1.222 -0.1434 -0.0303 -0.1274
 3635W        W19769  13.004   8.316   3.336  0.0378 -0.1218 -0.0755
 3636W        W19770   1.353  17.992  10.480 -0.3896  0.0531  0.0011
 3637W        W19771   0.330  17.838   2.437 -0.1834  0.1445  0.0992
 3638W        W19772  15.627   1.856   3.599  0.0007 -0.0159  0.0225
 3639W        W19773  13.568   7.644   4.336 -0.1176 -0.0523 -0.0541
 3640W        W19774  17.505   4.702  13.051 -0.0275 -0.2319 -0.0244
 3641W        W19775   2.241   7.430   0.346  0.0669  0.0134  0.1839
 3642W        W19776   3.262   1.191  11.512  0.1962  0.0490  0.2297
 3643W        W19777   8.612  13.692  11.173  0.1680 -0.3251 -0.0812
 3644W        W19778  14.789   2.228   1.302  0.0727 -0.0309  0.2534
 3645W        W19779  12.752  16.601   3.524 -0.0436 -0.3167 -0.1349
 3646W        W19780   3.892  10.868  12.047 -0.3376  0.2005 -0.3596
 3647W        W19781  17.392   5.890   2.604 -0.1576  0.2467  0.2438
 3648W        W19782   0.595   4.962   2.589  0.2613  0.3548  0.2193
 3649W        W19783  17.623   0.096  11.890  0.0033  0.1143  0.0544
 3650W        W19784  18.535  16.449   2.016 -0.0671 -0.0671 -0.1201
 3651W        W19785  18.466   3.853   3.739  0.1048 -0.0670  0.0047
 3652W        W19786  19.115  18.969   4.339 -0.0732  0.1189 -0.0643
 3653W        W19787  10.771  16.893   1.156  0.1600 -0.1295  0.1338
 3654W        W19788   5.991   9.509   2.901  0.2587  0.2818  0.3604
 3655W        W19789   9.395   8.176   3.512 -0.0573  0.1456  0.2557
 3656W        W19790  18.245  10.551  14.717 -0.0216  0.2447  0.1968
 3657W        W19791  13.519  12.530  12.429 -0.1170  0.3005  0.1090
 3658W        W19792   2.036   6.580   6.081 -0.1551  0.2510 -0.1897
 3659W        W19793  14.631   0.283  10.687 -0.2804 -0.0569  0.1077
 3660W        W19794   1.485   5.406   9.996  0.2556 -0.0795  0.2013
 3661W        W19795  16.765   4.681   2.504  0.1421 -0.0584 -0.0243
 3662W        W19796  13.302   7.740  14.683  0.1238  0.0716 -0.0856
 3663W        W19797   9.715  18.069   3.602  0.2505 -0.1151 -0.1032
 3664W        W19798   9.218  17.906   1.077 -0.2252 -0.0789 -0.1217
 3665W        W19799  17.399   2.264  11.436 -0.1412 -0.2469 -0.0427
 3666W        W19800  18.170  11.293   3.689  0.0820  0.0057  0.1734
 3667W        W19801   4.349  17.066   1.413  0.1616  0.2945  0.2969
 3668W        W19802  16.246  11.772  12.951  0.1316  0.0428 -0.1496
 3669W        W19803   4.426   6.301   4.736 -0.1965  0.1411 -0.2157
 3670W        W19804  15.941  18.015   1.668  0.1048 -0.1533 -0.1115
 3671W        W19805   9.352   3.079  10.714 -0.0563 -0.0407  0.3444
 3672W        W19806   9.423  11.950  13.390  0.1705  0.2931 -0.0975
 3673W        W19807  18.222   9.340   4.465 -0.0620 -0.2061 -0.0836
 3674W        W19808  15.807   8.751  11.708 -0.1406  0.1908 -0.0213
 3675W        W19809   6.717  14.207  14.625  0.1794 -0.0387  0.0580
 3676W        W19810  15.305   6.970   1.574  0.0942  0.0037  0.0215
 3677W        W19811  10.461  10.092  10.963  0.0084  0.2562 -0.0006
 3678W        W19812  12.807  18.228  10.681 -0.2003 -0.2860  0.4486
 3679W        W19813   8.999  16.781  10.424  0.0232 -0.2834  0.3132
 3680W        W19814   0.583  19.044  11.575 -0.0263  0.0904  0.2850
 3681W        W19815   1.243  18.147  13.744 -0.3599 -0.1326 -0.0607
 3682W        W19816  12.374  17.742  14.234  0.1263 -0.0611  0.2148
 3683W        W19817   5.060  11.092   4.295  0.4624  0.3104  0.1361
 3684W        W19818  14.337   3.352  13.259  0.1402  0.0473 -0.1927
 3685W        W19819   7.473  17.069   4.296  0.2097 -0.0126 -0.3061
 3686W        W19820   4.211  14.013  11.257  0.0177  0.2002 -0.2251
 3687W        W19821  13.813   5.345   3.244 -0.0878 -0.0356 -0.2519
 3688W        W19822  18.600  15.700  13.142  0.2021 -0.0236 -0.0763
 3689W        W19823   2.886  16.103   2.438 -0.0039  0.2731  0.0080
 3690W        W19824   4.925  10.297  14.580  0.2610  0.1143 -0.2271
 3691W        W19825  14.801   1.537   9.307 -0.0799  0.1626 -0.2834
 3692W        W19826  18.474  11.334  13.409 -0.1214  0.0318  0.1686
 3693W        W19827  17.114   9.637  14.131  0.0348  0.0961  0.1983
 3694W        W19828   6.545   5.400  13.036  0.0004 -0.1028  0.0446
 3695W        W19829  15.407  17.143   2.422  0.0441 -0.2310  0.4734
 3696W        W19830  15.396  11.165   2.972  0.0669 -0.2981  0.0537
 3697W        W19831  17.955   7.047   0.805 -0.1942  0.7220 -0.2062
 3698W        W19832   5.003   7.101   4.740  0.1920  0.4419  0.1420
 3699W        W19833   6.570  13.112   5.338  0.3063 -0.1077  0.0232
 3700W        W19834   0.758  12.246   0.835  0.0179 -0.0634  0.0911
 3701W        W19835  12.885   9.762   4.226  0.3351  0.1402 -0.3180
 3702W        W19836   2.755  12.862  14.315  0.0438 -0.0201  0.1456
 3703W        W19837  15.259  11.396   0.930  0.0744 -0.0321  0.0942
 3704W        W19838  17.223  13.638   4.056 -0.2270 -0.0727 -0.0885
 3705W        W19839   6.168  17.658  11.482 -0.0940 -0.0454 -0.1294
 3706W        W19840  12.549   7.834   4.757 -0.1555  0.1962  0.0548
 3707W        W19841   6.705  14.116   0.895 -0.0349  0.3984 -0.1356
 3708W        W19842  17.679  11.829   0.958  0.2054  0.1360 -0.4372
 3709W        W19843  14.192   2.934   0.050  0.3284  0.0545  0.0305
 3710W        W19844  13.807  16.969  12.948  0.0544 -0.0892 -0.1751
 3711W        W19845  11.743  11.652  13.892 -0.0781  0.0446  0.0514
 3712W        W19846   1.501   9.828   4.197  0.1246  0.0392  0.4176
 3713W        W19847  12.880   4.876  12.373  0.1107 -0.1408  0.0283
 3714W        W19848   8.420   0.340   4.261  0.1240  0.0896 -0.0704
 3715W        W19849  14.317  14.055   0.329 -0.3077  0.1225  0.1746
 3716W        W19850   3.388  15.232   2.443 -0.1925  0.1968 -0.0645
 3717W        W19851   8.274   7.399   4.608 -0.1133 -0.0236 -0.1043
 3718W        W19852   5.281   2.101   4.302 -0.0636 -0.2755  0.1319
 3719W        W19853   7.188  11.016  13.188  0.0157 -0.0826 -0.0534
 3720W        W19854  10.687  13.771  13.859 -0.0013  0.0190  0.1410
 3721W        W19855  15.586  11.483   2.610  0.1011  0.0035  0.2453
 3722W        W19856   6.972   8.820   0.727 -0.1246 -0.4448 -0.1271
 3723W        W19857   4.411  15.616   0.863  0.1470  0.1288 -0.1838
 3724W        W19858  11.962  12.333  15.105  0.0163 -0.3758  0.1173
 3725W        W19859  10.434   8.413   2.776  0.1809  0.1733 -0.0664
 3726W        W19860   8.248  13.341   1.547 -0.1412 -0.4624  0.3381
 3727W        W19861  10.323   8.994   5.020  0.2320 -0.1976  0.0413
 3728W        W19862  18.425  16.854   4.717 -0.3168  0.1879  0.1040
 3729W        W19863  10.684   3.518   3.179 -0.1402 -0.3185 -0.3278
 3730W        W19864  10.080  18.733   2.400 -0.1772  0.2927  0.1551
 3731W        W19865  11.336  11.751   1.447  0.0766  0.0455  0.0295
 3732W        W19866  13.929   6.978  11.996  0.0124  0.5001 -0.0493
 3733W        W19867  12.490   8.689  10.878  0.2497  0.2603 -0.0594
 3734W        W19868  12.431   6.434  11.984  0.0819 -0.0305  0.3890
 3735W        W19869   5.559  14.855   9.506  0.0298 -0.1697 -0.0795
 3736W        W19870   4.066   9.031   4.229 -0.5926  0.0782 -0.1124
 3737W        W19871  18.785   8.357  14.577 -0.0907  0.1653  0.0178
 3738W        W19872   5.955   3.122   4.369 -0.3040  0.1282  0.1141
 3739W        W19873   7.403   3.655  11.433  0.2611  0.0782 -0.0848
 3740W        W19874   9.088   2.456  13.817 -0.2001  0.1619  0.1461
 3741W        W19875  13.775  12.647   2.696  0.0115 -0.1529  0.4076
 3742W        W19876  16.926   3.269  12.219  0.0978  0.0608  0.3607
 3743W        W19877  10.953  17.763  10.965 -0.0138  0.2919  0.1356
 3744W        W19878  18.041   4.847   4.602 -0.1062 -0.2571  0.3266
 3745W        W19879  10.619  11.129  13.197  0.0889 -0.0518  0.2073
 3746W        W19880  14.310   3.537   9.877 -0.0168  0.0085  0.0479
 3747W        W19881  12.220  14.317   1.599 -0.0257 -0.2231 -0.1630
 3748W        W19882   3.540  17.712  13.236 -0.4017  0.3004  0.0752
 3749W        W19883   7.179   3.946   2.100 -0.0291 -0.0338  0.0151
 3750W        W19884   1.455   4.012   4.946 -0.0499 -0.1228  0.1909
 3751W        W19885   4.835  12.799   5.815 -0.0231  0.0975 -0.3745
 3752W        W19886   9.387   5.814  13.659  0.2229  0.0067 -0.4475
 3753W        W19887  10.517   1.742   4.830  0.5095  0.4739 -0.0473
 3754W        W19888  14.278   9.532   3.287  0.0891 -0.0460  0.3556
 3755W        W19889  18.411  16.110  13.011 -0.2398 -0.2278 -0.2111
 3756W        W19890   0.036  17.281  10.659  0.4215  0.2614  0.5030
 3757W        W19891   1.648   5.152   3.027  0.1818  0.0782  0.1782
 3758W        W19892  17.965  13.983  14.498  0.1621  0.2404  0.0187
 3759W        W19893  11.652   1.986  14.477 -0.0462 -0.1008 -0.3404
 3760W        W19894   0.479   7.828  12.810  0.2500  0.0481  0.1375
 3761W        W19895   6.328   0.123   1.614 -0.1341  0.1196  0.0100
 3762W        W19896  19.110  17.675  14.289 -0.0806 -0.3468  0.1800
 3763W        W19897  19.003  16.180   1.916  0.2772  0.1442 -0.0588
 3764W        W19898   4.094   2.861   3.619  0.0722  0.1670  0.2081
 3765W        W19899   3.186  11.447  15.045  0.1238  0.1760 -0.0447
 3766W        W19900   9.029   0.792   4.265  0.1824 -0.1067 -0.0635
 3767W        W19901  15.970  18.469  15.142  0.0860 -0.1223  0.1977
 3768W        W19902  10.476   1.116   3.358 -0.0821  0.2621  0.2850
 3769W        W19903   2.466   3.909   4.927 -0.3081  0.0240  0.2877
 3770W        W19904   0.316  12.626  12.042  0.2446 -0.0489  0.0325
 3771W        W19905  16.037   2.792  14.174 -0.1119  0.0392  0.4081
 3772W        W19906   3.379   7.820  14.087  0.1188 -0.1132 -0.1526
 3773W        W19907   6.623  18.774  13.253  0.0694  0.3372 -0.0394
 3774W        W19908  12.089   2.223   3.383 -0.1315  0.1533 -0.3761
 3775W        W19909   7.226   3.348   1.932  0.0413 -0.0489 -0.0392
 3776W        W19910   4.545   5.294   1.589  0.1147 -0.1433 -0.1372
 3777W        W19911  12.020  13.697  12.420  0.1150  0.0415  0.1188
 3778W        W19912   2.060  10.087  14.740  0.3756 -0.0602 -0.0982
 3779W        W19913  13.516   4.475  13.420 -0.0525 -0.1641  0.1583
 3780W        W19914   0.514   9.265  10.395  0.2143  0.1943  0.0572
 3781W        W19915  15.872   3.283  13.640 -0.2196  0.0834  0.1146
 3782W        W19916  17.342  16.626  10.559  0.4746 -0.2503  0.0425
 3783W        W19917   0.415  18.611  11.251 -0.0079 -0.3916 -0.3213
 3784W        W19918   9.893   6.721  14.498  0.0135 -0.0090  0.2394
 3785W        W19919  15.139   1.376   2.987 -0.0501  0.1222  0.0578
 3786W        W19920  15.396   8.499  13.633  0.0610 -0.0676 -0.2722
 3787W        W19921   8.687   8.869  13.715 -0.3422  0.0210 -0.1268
 3788W        W19922   5.218  11.488   0.487  0.1477  0.1634  0.2801
 3789W        W19923   5.243  12.675  11.442 -0.1275  0.2977 -0.2950
 3790W        W19924  19.067   9.646  12.481  0.1495 -0.1801  0.1815
 3791W        W19925  15.172  10.056   1.498  0.0050 -0.1176  0.2995
 3792W        W19926  18.000   0.475   1.875 -0.0985  0.0035  0.2078
 3793W        W19927   5.954   3.259   3.837 -0.0205 -0.0547 -0.2057
 3794W        W19928   8.812  16.877  13.901 -0.2735 -0.0750  0.1308
 3795W        W19929  17.897   3.520   1.222 -0.1438  0.2944 -0.0340
 3796W        W19930   7.617  13.386   0.181 -0.0987  0.0152 -0.1730
 3797W        W19931  18.963   6.688   3.832 -0.0580 -0.0812  0.1591
 3798W        W19932   1.263  15.345  12.277  0.0590  0.1700  0.0646
 3799W        W19933  13.109   2.292  14.037 -0.2416 -0.2214  0.3570
 3800W        W19934   7.468  14.568   4.233 -0.3279 -0.0075  0.0951
 3801W        W19935   6.915  19.016   1.098  0.0851 -0.3260  0.3165
 3802W        W19936   9.670  16.564  11.869  0.0266 -0.0513  0.0850
 3803W        W19937  17.616  15.367  12.133 -0.3630 -0.2666  0.2398
 3804W        W19938  17.000  13.015  14.210 -0.2586 -0.1269  0.0787
 3805W        W19939   2.066   8.632   3.267 -0.1011 -0.0215 -0.0271
 3806W        W19940   2.231   5.716   5.038 -0.6488  0.0426 -0.2014
 3807W        W19941   5.867  15.857  13.419 -0.1751  0.2637 -0.0292
 3808W        W19942  14.903   9.110  13.635 -0.0969 -0.2688  0.0011
 3809W        W19943   4.924  10.766  11.173 -0.0662 -0.0870  0.1284
 3810W        W19944   4.997   3.434  15.024  0.0154 -0.1648 -0.1893
 3811W        W19945  17.335  19.002   0.834 -0.0824  0.4483  0.0051
 3812W        W19946  17.735   4.108   0.763  0.0301  0.2910 -0.2421
 3813W        W19947  18.574  15.839   0.499  0.0979  0.1143  0.0803
 3814W        W19948   8.068   7.712   0.392 -0.1726 -0.2170  0.2091
 3815W        W19949  10.877  17.984   0.249  0.0068 -0.3261 -0.2450
 3816W        W19950  12.451  15.490   3.831  0.2372  0.2663 -0.1998
 3817W        W19951  18.673  15.993   4.360 -0.0988  0.1675  0.0760
 3818W        W19952  17.513  16.742   1.935  0.0417  0.2210 -0.3517
 3819W        W19953   6.116   4.313  13.956  0.0106 -0.1099 -0.1751
 3820W        W19954  19.144   6.023   3.538  0.0871 -0.1648  0.4258
 3821W        W19955  10.720   2.336  11.101 -0.1774 -0.0183 -0.0305
 3822W        W19956  18.961  11.008  14.726 -0.2080  0.0064 -0.0155
 3823W        W19957  15.732  11.844  13.402  0.1239  0.0237  0.2391
 3824W        W19958   0.032  13.080   2.166  0.3011 -0.2711  0.1591
 3825W        W19959  15.783   4.151   9.643 -0.0847  0.0000 -0.1395
 3826W        W19960  18.543  16.831  12.545  0.2477 -0.1032  0.1143
 3827W        W19961   1.553   9.578   3.656 -0.2482  0.0345 -0.3204
 3828W        W19962  18.365   1.556  10.674 -0.1961 -0.1935 -0.2783
 3829W        W19963   8.949   3.410  13.861 -0.1737  0.2723  0.0921
 3830W        W19964  17.035   4.893  14.144 -0.1599 -0.4209 -0.0114
 3831W        W19965  16.870  11.193  14.059  0.2610 -0.1407  0.3679
 3832W        W19966   3.360   6.181   1.040  0.3679 -0.0982  0.1524
 3833W        W19967  11.158   3.900   3.936 -0.1570  0.0724 -0.0151
 3834W        W19968   1.497   4.787  10.701  0.0070 -0.1297  0.2571
 3835W        W19969  10.572  17.882  15.047 -0.0025 -0.1086  0.0986
 3836W        W19970  13.338   7.252  13.291  0.1617  0.1077 -0.0334
 3837W        W19971   8.337  18.697  14.050 -0.2637  0.1606 -0.0114
 3838W        W19972  10.639  13.799   0.567  0.0040  0.0505 -0.1169
 3839W        W19973  11.430   4.366   0.388  0.0121  0.3889  0.0091
 3840W        W19974  19.017  11.288  11.313  0.0031 -0.2429 -0.2437
 3841W        W19975  14.497   1.580   0.650  0.1193 -0.3023 -0.1881
 3842W        W19976   2.370  13.519   5.174  0.2980  0.0221  0.0255
 3843W        W19977   1.696   9.333   0.711 -0.2008 -0.2224  0.3019
 3844W        W19978   3.292   3.754   3.680  0.0083 -0.4366  0.0709
 3845W        W19979   1.228  12.223   2.799  0.2159 -0.0466  0.0063
 3846W        W19980  13.663   8.086   1.117  0.0457 -0.3864 -0.2374
 3847W        W19981   9.300   4.813   5.356 -0.0622 -0.3440 -0.2689
 3848W        W19982  11.220  18.584  13.405  0.0944 -0.0226  0.2601
 3849W        W19983   6.645   5.273   0.937  0.1095  0.1173  0.0773
 3850W        W19984  16.683  13.454   5.422 -0.0190 -0.1845 -0.2377
 3851W        W19985   2.563  19.099   1.277  0.1795 -0.0562  0.1364
 3852W        W19986   1.993   8.583  13.303 -0.0783  0.2199 -0.1963
 3853W        W19987   5.565  10.838   3.335  0.0364  0.1322  0.0747
 3854W        W19988  16.721   1.850   0.301  0.0610 -0.1010  0.0355
 3855W        W19989   3.560  18.484   9.682  0.0636  0.0086 -0.4011
 3856W        W19990  15.379  13.587  11.402  0.2180  0.1070  0.2687
 3857W        W19991   0.471   8.936  11.466 -0.2657  0.0723 -0.0740
 3858W        W19992  14.506   2.789  12.522 -0.2363  0.0718  0.2131
 3859W        W19993   8.570   2.209   1.639  0.1462  0.1039  0.1350
 3860W        W19994   4.519   1.535  13.219  0.2133 -0.2320  0.0439
 3861W        W19995   0.474  14.073   0.279  0.1835 -0.0368 -0.0736
 3862W        W19996   8.170   0.258   3.775  0.1888 -0.1933 -0.0959
 3863W        W19997  16.169   7.794   3.809  0.0451 -0.1480  0.1255
 3864W        W19998  14.703   1.191   3.231  0.1468  0.2160 -0.0169
 3865W        W19999   1.316   8.889  12.500  0.3209  0.0728 -0.2245
 3866W        W20000  16.249   2.790  11.653  0.1613  0.2219 -0.0354
 3867W        W20001  10.735  12.555  10.454 -0.2103  0.0273 -0.1211
 3868W        W20002   5.858   7.280  10.297  0.4661  0.1838 -0.2965
 3869W        W20003   3.068   0.784   2.717 -0.1642 -0.2652 -0.3489
 3870W        W20004   8.714   8.629   2.367 -0.1998  0.0281  0.1385
 3871W        W20005  16.661  11.539   0.587  0.1614 -0.0314 -0.2494
 3872W        W20006  17.947   6.021  12.907  0.0081  0.2659 -0.2434
 3873W        W20007   8.097  16.295   3.504  0.2049 -0.0120  0.3305
 3874W        W20008   1.992   9.637   3.913 -0.0657 -0.0320 -0.0030
 3875W        W20009   7.859   1.305  11.628 -0.0627  0.1976 -0.3911
 3876W        W20010  11.493  17.637  14.579 -0.2144 -0.2449  0.2531
 3877W        W20011  10.382   6.118   3.882  0.0896  0.0488 -0.0940
 3878W        W20012   5.332  16.116  12.698  0.1826  0.1673 -0.0256
 3879W        W20013  17.791  12.008  10.874  0.1709 -0.0920  0.4322
 3880W        W20014   9.227   6.287  14.773 -0.1681 -0.1226 -0.1210
 3881W        W20015   9.496  14.686  12.564 -0.1879 -0.2065 -0.0334
 3882W        W20016   2.625  13.832  10.961  0.2232  0.2238 -0.3238
 3883W        W20017  15.703  10.637  12.515  0.0402 -0.1304  0.1062
 3884W        W20018   9.256  10.016  11.927  0.2223 -0.2558 -0.1802
 3885W        W20019  16.116   8.427   1.357 -0.0481 -0.0297 -0.2379
 3886W        W20020   9.579  11.788  14.974 -0.2253 -0.0155  0.2201
 3887W        W20021   0.306   6.712  11.308 -0.0069  0.1967 -0.0269
 3888W        W20022   7.885  14.843  11.271  0.2924 -0.1604 -0.1986
 3889W        W20023  10.612   7.235  12.474  0.2351  0.0299  0.1456
 3890W        W20024   0.034  14.076   2.327 -0.1968  0.1321 -0.2434
 3891W        W20025   2.851  15.762  11.037  0.1932  0.1299 -0.1138
 3892W        W20026   0.562  16.522  11.179  0.0094 -0.0664  0.2030
 3893W        W20027   8.447  18.333  13.723 -0.3054  0.3157 -0.1776
 3894W        W20028   0.013   5.794  11.642  0.2891 -0.0623  0.2104
 3895W        W20029  11.800   6.984  14.991  0.0656 -0.0697 -0.1942
 3896W        W20030  18.267  13.669   9.490 -0.1702 -0.0935 -0.2417
 3897W        W20031  13.244  10.834   2.632  0.1698 -0.0840  0.1097
 3898W        W20032   3.027  11.147   2.944  0.0988  0.1010  0.1875
 3899W        W20033   4.948  18.213  13.557 -0.1401  0.0764  0.0669
 3900W        W20034  18.476   2.354   1.489  0.1143  0.1568 -0.1966
 3901W        W20035  16.979   3.077   2.426  0.1258 -0.0317  0.1125
 3902W        W20036  12.129   9.676   1.210 -0.0184 -0.1652  0.2757
 3903W        W20037   8.358  14.432   3.617 -0.0760  0.3736 -0.2241
 3904W        W20038   0.836   8.176  12.718 -0.1119  0.2423 -0.1938
 3905W        W20039   1.983  10.821   4.792 -0.0781 -0.2101  0.0185
 3906W        W20040  13.245  13.480  11.847 -0.1162 -0.0728 -0.1288
 3907W        W20041   9.861  15.320   1.477  0.1882  0.0018 -0.2481
 3908W        W20042  12.205   8.060   1.591 -0.1046  0.0690  0.0531
 3909W        W20043   1.349  14.877   1.554  0.1224 -0.1949 -0.1378
 3910W        W20044   3.320  13.063   2.321 -0.2451  0.0047 -0.2336
 3911W        W20045   6.921   4.879  12.187 -0.1475  0.0031 -0.0315
 3912W        W20046   7.273   1.166  14.885  0.0439 -0.3418  0.0172
 3913W        W20047   7.587  18.975   4.476 -0.1206 -0.0435  0.0498
 3914W        W20048   8.403   8.514  13.621 -0.3174 -0.3157 -0.3045
 3915W        W20049   4.472  13.634  12.052  0.0264  0.3792  0.3155
 3916W        W20050  19.066   4.224  13.493  0.0803  0.2768  0.3039
 3917W        W20051  12.943  17.698   1.796 -0.0067  0.2990 -0.3086
 3918W        W20052   5.895  17.647   3.605  0.1712  0.1294 -0.1292
 3919W        W20053  12.124  15.888   4.692  0.2119  0.1658  0.0439
 3920W        W20054  13.373   6.651   4.179  0.1474  0.0442  0.1899
 3921W        W20055  10.917   2.221   5.169 -0.0703 -0.3479  0.5615
 3922W        W20056  18.897  10.515  12.335  0.1078  0.0759 -0.0268
 3923W        W20057   1.845   7.251   5.096  0.1095  0.4084 -0.0476
 3924W        W20058   9.690  13.844  15.019 -0.1818  0.1004  0.2933
 3925W        W20059  11.088   3.547  13.822 -0.4033  0.2831 -0.0455
 3926W        W20060  10.258   5.839   0.966 -0.1530  0.0993  0.2587
 3927W        W20061   7.387   4.023  14.339  0.3276 -0.0518 -0.0168
 3928W        W20062  13.410   6.770  12.709  0.0352 -0.0469 -0.3677
 3929W        W20063   9.995   9.219   2.523  0.0200  0.1031 -0.2074
 3930W        W20064   6.841   8.492   4.673  0.0619  0.3341  0.0361
 3931W        W20065  17.426  17.360  13.902 -0.1515  0.0851  0.1393
 3932W        W20066   0.467  13.825  11.461 -0.1453  0.0230  0.1602
 3933W        W20067  11.489  14.971   3.918  0.1142  0.3158  0.1803
 3934W        W20068   1.414   3.355   1.452  0.0398  0.3011 -0.1672
 3935W        W20069   1.017   3.457  14.139 -0.1119 -0.1129 -0.0697
 3936W        W20070   2.492  16.880  13.579 -0.1673 -0.2172 -0.0664
 3937W        W20071   5.554  12.909   3.678  0.3791 -0.0190  0.1137
 3938W        W20072   5.057  15.657  14.734  0.1432  0.1007 -0.0601
 3939W        W20073   8.195   7.584   3.141  0.1826  0.1055  0.1318
 3940W        W20074   6.178   2.163  13.847  0.3071 -0.0338  0.0941
 3941W        W20075  17.006  19.046   1.285 -0.4456  0.3637 -0.0682
 3942W        W20076   4.469   5.316   4.283  0.1487  0.2166 -0.1892
 3943W        W20077   1.395   4.962   2.626  0.2523 -0.1914 -0.0764
 3944W        W20078  12.154   8.207   0.502 -0.0995  0.1081 -0.0851
 3945W        W20079   1.822  17.300  11.528 -0.2500 -0.3241  0.0809
 3946W        W20080   8.587  13.426   0.273 -0.0743  0.2663  0.1591
 3947W        W20081   0.586   4.625   2.147  0.0825 -0.0394  0.4148
 3948W        W20082   1.570   0.174  10.301 -0.1546  0.1087 -0.0323
 3949W        W20083   1.841  10.467  14.606  0.1700 -0.4422 -0.2577
 3950W        W20084   6.070   7.388  12.709  0.1042 -0.0076 -0.0505
 3951W        W20085   5.389  18.561   4.614 -0.1718 -0.2214 -0.0299
 3952W        W20086  14.120  13.596  12.931 -0.1024 -0.0051  0.0313
 3953W        W20087  13.576   1.724  13.350  0.3890  0.1046  0.0569
 3954W        W20088   4.501  11.909   3.378  0.2342 -0.0230  0.0055
 3955W        W20089   5.914   4.076   4.627 -0.0695  0.1953  0.0738
 3956W        W20090   0.838  18.673   1.703  0.1353 -0.3755 -0.1985
 3957W        W20091  13.024   5.518  12.950  0.2658 -0.0704  0.1940
 3958W        W20092   3.265  18.705   2.910 -0.1221  0.0683 -0.0593
 3959W        W20093   2.861  12.336   2.004 -0.2345  0.2199 -0.0417
 3960W        W20094  18.041  13.193   9.427  0.0822 -0.1181  0.0493
 3961W        W20095   0.884   5.447   4.967  0.1912 -0.1138  0.2759
 3962W        W20096   4.156  14.895  11.440 -0.2352  0.1972  0.1268
 3963W        W20097  18.767  17.919   3.381  0.1684  0.0393 -0.1933
 3964W        W20098   0.000   9.827   2.343  0.5714  0.1396 -0.1335
 3965W        W20099  10.863   9.773  14.832 -0.0615  0.0390  0.1306
 3966W        W20100  12.055  16.230  13.528 -0.1483 -0.2282  0.0824
 3967W        W20101   0.482   9.665  10.848 -0.2024  0.2124  0.0518
 3968W        W20102   8.344  18.814  15.121 -0.2168  0.3783 -0.1170
 3969W        W20103  10.346  11.049   2.006 -0.3179  0.1927  0.0546
 3970W        W20104   5.965   2.319   5.440  0.0804 -0.0729  0.0465
 3971W        W20105  16.781  11.610   9.259  0.3925 -0.1166 -0.1017
 3972W        W20106   7.504  10.511   4.041  0.2069 -0.1430 -0.0978
 3973W        W20107  14.800   8.429  13.287 -0.1435  0.0018 -0.1523
 3974W        W20108   5.643   6.451  10.749 -0.2305  0.0630  0.1570
 3975W        W20109   6.002   1.882   0.751  0.0936 -0.1870  0.2504
 3976W        W20110   7.779  18.143   5.071 -0.1907  0.1832 -0.2096
 3977W        W20111  15.269  15.355  14.884 -0.0027 -0.4686 -0.0231
 3978W        W20112  12.252  18.113  10.853 -0.0891 -0.0255 -0.1228
 3979W        W20113  16.792   1.971   2.917  0.2247 -0.1562 -0.2196
 3980W        W20114   3.092   8.652   2.796  0.2982 -0.0802 -0.1335
 3981W        W20115  11.886   2.080   1.785 -0.0179 -0.1639 -0.0958
 3982W        W20116  17.704  11.053   3.934  0.2267  0.0075  0.0166
 3983W        W20117  10.709  10.873  13.937  0.2532 -0.2043  0.1238
 3984W        W20118  11.691   2.437  13.489 -0.1268 -0.0758 -0.0502
 3985W        W20119   3.066  12.864   4.985  0.3201  0.0127 -0.2186
 3986W        W20120   8.971   0.186   4.186 -0.0283 -0.1655 -0.0513
 3987W        W20121  10.944  17.207  13.472 -0.2996  0.1836  0.0841
 3988W        W20122  18.992  16.652  14.140  0.4096  0.0990  0.2630
 3989W        W20123  11.659   8.607   1.831 -0.1890 -0.1847 -0.1137
 3990W        W20124  14.537   5.692  10.616 -0.3633 -0.5615  0.1802
 3991W        W20125   2.615   0.742  14.300 -0.1551  0.0758  0.2984
 3992W        W20126   5.427   7.178  14.326 -0.3685 -0.4027 -0.1313
 3993W        W20127   9.140  18.632  11.529 -0.1450  0.2185 -0.1438
 3994W        W20128   7.812   6.464  11.812  0.0149  0.4762  0.1077
 3995W        W20129  10.078  16.138  13.870 -0.0394 -0.1850 -0.0452
 3996W        W20130  10.488   4.443   0.755  0.0783 -0.1816 -0.0839
 3997W        W20131   1.591  17.801  10.894 -0.3144  0.1693  0.0120
 3998W        W20132   7.932  16.964  12.598  0.0376 -0.0301  0.2472
 3999W        W20133  12.027   2.653   4.624  0.0450 -0.0701 -0.3032
 4000W        W20134  10.255   5.010  11.065 -0.1635 -0.0579 -0.2613
 4001W        W20135  16.356  18.704  13.242  0.0296  0.0260  0.3335
 4002W        W20136   2.320   5.787   1.931 -0.3010  0.0650 -0.0741
 4003W        W20137   0.816  10.737   3.546 -0.1074 -0.4819  0.3683
 4004W        W20138  16.365   2.285  11.436  0.1868  0.4048 -0.3381
 4005W        W20139   6.106  18.859  14.661  0.2048  0.1163 -0.3134
 4006W        W20140   1.735   1.550  14.729  0.0897  0.0386 -0.0471
 4007W        W20141   3.497   4.683   3.478 -0.3622 -0.2098 -0.1244
 4008W        W20142   0.609  11.933  11.439  0.1621 -0.2790  0.0946
 4009W        W20143  16.140  13.744   0.935 -0.1426  0.3015  0.0836
 4010W        W20144  13.988   3.679   3.905  0.1215  0.0307 -0.2638
 4011W        W20145   6.146  15.103  13.403 -0.1289 -0.0096  0.0906
 4012W        W20146   9.332  15.303   1.462  0.0285 -0.3137 -0.1372
 4013W        W20147   8.420  15.488   5.183 -0.1098  0.1015 -0.2032
 4014W        W20148   1.639  15.179   0.943 -0.1131  0.2340  0.0231
 4015W        W20149  10.924   5.827  14.492 -0.1357  0.0270  0.0640
 4016W        W20150  15.335  14.440   3.168  0.1742  0.2344 -0.2427
 4017W        W20151  15.303  15.950  13.101 -0.0355  0.1567 -0.0385
 4018W        W20152  18.914   6.142   0.029 -0.6257  0.0533 -0.0206
 4019W        W20153   3.604  13.029  12.718 -0.1551  0.0022  0.1951
 4020W        W20154  15.058   2.643  12.582 -0.1290  0.1014  0.2016
 4021W        W20155  12.079  12.983  12.111 -0.1393 -0.3643  0.1299
 4022W        W20156   7.031  18.635  14.639  0.2447 -0.3522 -0.0858
 4023W        W20157   8.263   2.972  14.218  0.3917 -0.1254 -0.2261
 4024W        W20158  10.675  16.855   3.783 -0.2062 -0.0392  0.0735
 4025W        W20159   4.739   2.455   1.347 -0.0263 -0.0465 -0.1267
 4026W        W20160   6.491   2.736  10.614 -0.2050 -0.0483 -0.2846
 4027W        W20161  13.791  10.636  10.804  0.0071  0.1936  0.1308
 4028W        W20162   8.324   0.154   2.615  0.1966  0.1951 -0.0737
 4029W        W20163   2.583   2.140   9.667  0.0759  0.2972  0.0557
 4030W        W20164   5.070  19.035  10.372  0.2291  0.0482 -0.0191
 4031W        W20165   8.085   7.290   0.083 -0.0814 -0.0141  0.3880
 4032W        W20166  16.487  14.051   2.417 -0.0049  0.3248  0.0839
 4033W        W20167  18.128   2.948   0.828  0.2421 -0.1748  0.3476
 4034W        W20168   1.346   0.451   9.892 -0.0424 -0.2279  0.2547
 4035W        W20169   6.568  11.610  15.065 -0.1287 -0.2102  0.1882
 4036W        W20170   7.564  11.983  11.475  0.2488  0.1255 -0.1555
 4037W        W20171   8.043  18.619   3.510  0.0756  0.2807  0.0923
 4038W        W20172  17.871  17.193  13.814  0.0631 -0.4585 -0.2583
 4039W        W20173   5.663  11.073   0.049  0.4531  0.1562 -0.0842
 4040W        W20174  11.664  15.059   0.486 -0.0978 -0.2175  0.3407
 4041W        W20175   5.249  17.315   3.066 -0.0532 -0.0971 -0.2181
 4042W        W20176  12.919   6.835   1.649 -0.0172  0.4195 -0.4135
 4043W        W20177  18.617   4.140  14.637  0.0585  0.0887 -0.0721
 4044W        W20178   5.917  15.483  10.966  0.1307 -0.3278 -0.0794
 4045W        W20179   0.047  12.671   4.159  0.2605 -0.1765  0.0845
 4046W        W20180  13.097  13.002  10.610  0.0632 -0.1705  0.1964
 4047W        W20181   0.216   5.339  11.538  0.3291  0.0935 -0.0201
 4048W        W20182  14.361   4.727  14.349 -0.3231 -0.0350 -0.1365
 4049W        W20183  18.092   9.822   1.094  0.0473  0.1951  0.1116
 4050W        W20184  18.839  12.313  13.464 -0.2355 -0.0468 -0.0400
 4051W        W20185   1.165  13.220  13.140 -0.1435  0.0876  0.0358
 4052W        W20186   5.603   0.572   5.268 -0.0561 -0.0252 -0.1316
 4053W        W20187   9.207  13.607   5.232  0.2121 -0.2585 -0.0297
 4054W        W20188   3.029   6.266  10.769  0.1279 -0.0908  0.1762
 4055W        W20189  13.600  17.579   3.646  0.0108  0.1521  0.2743
 4056W        W20190  10.521   7.953   3.048 -0.2320  0.0597 -0.3591
 4057W        W20191  10.701   6.190   5.095  0.1133 -0.1126  0.2034
 4058W        W20192   3.331   5.112   5.634  0.2598  0.0568 -0.0904
 4059W        W20193   9.987  15.906   2.073 -0.0103 -0.2480 -0.2160
 4060W        W20194  11.902   6.343  12.885 -0.0888 -0.0874  0.0102
 4061W        W20195   4.871   2.936  13.208 -0.0391  0.0178  0.3814
 4062W        W20196   5.813  11.696  13.633 -0.2100  0.3005  0.1707
 4063W        W20197   5.792  18.027  14.820 -0.0615 -0.1542 -0.3665
 4064W        W20198  15.470  12.307  10.440  0.1422  0.0964  0.0063
 4065W        W20199   8.064   0.598  12.448 -0.0684 -0.1372  0.0380
 4066W        W20200   3.718   6.122  10.123 -0.3386 -0.0778  0.1872
 4067W        W20201   1.895   2.805   4.484  0.1320  0.1136 -0.0522
 4068W        W20202   7.587  17.615   1.335 -0.1794  0.1212 -0.1983
 4069W        W20203  16.248   2.229  10.918  0.2173  0.5277 -0.1469
 4070W        W20204   5.218   1.364   2.574  0.4124 -0.0005  0.1315
 4071W        W20205  12.572  10.544   0.302 -0.0410 -0.1426 -0.1413
 4072W        W20206   7.156   9.684  12.757 -0.3556 -0.1093  0.0128
 4073W        W20207  16.160   2.138  12.948  0.0580 -0.1193 -0.1023
 4074W        W20208   1.658  11.377   3.320 -0.1272  0.2368 -0.1683
 4075W        W20209   2.277  11.595   2.760  0.0533  0.2594 -0.4584
 4076W        W20210   7.397  13.145  14.095 -0.2039  0.3019  0.3372
 4077W        W20211   8.777  16.437  11.379  0.0323  0.0419 -0.1789
 4078W        W20212   6.552  13.967   1.470 -0.1291 -0.3252 -0.0445
 4079W        W20213   8.521   6.131  13.395 -0.0125  0.0242  0.1702
 4080W        W20214   8.030  14.813   3.569 -0.0241  0.1226 -0.1570
 4081W        W20215   4.195   4.800  12.813 -0.0887 -0.0446  0.0851
 4082W        W20216   0.195  13.059   0.187  0.1939  0.0261 -0.0729
 4083W        W20217   7.941   4.414   3.297 -0.0964  0.2812  0.0654
 4084W        W20218   3.215  15.629   3.213  0.1068 -0.1539 -0.1316
 4085W        W20219   6.250  14.409   9.753 -0.1374  0.0782  0.1542
 4086W        W20220   6.435  15.210  14.999  0.0723  0.0462  0.0139
 4087W        W20221  10.840   4.111  13.853  0.3715  0.1294  0.2323
 4088W        W20222   6.430   5.238   4.104  0.0698  0.4808  0.0120
 4089W        W20223  12.860  18.848   3.812  0.1921  0.1198  0.2139
 4090W        W20224  10.913   1.666   1.737 -0.1809 -0.2264 -0.4231
 4091W        W20225  18.391   6.892   2.195 -0.2241  0.4634  0.3902
 4092W        W20226   5.908  18.257  13.448 -0.3228  0.0230 -0.2422
 4093W        W20227   9.505   3.002   1.068 -0.0489 -0.1715 -0.0245
 4094W        W20228   3.942  15.718   3.636  0.0528 -0.3540 -0.0227
 4095W        W20229   4.757   6.629  14.502 -0.1732 -0.1154 -0.1897
 4096W        W20230  18.492   9.298   3.518 -0.0331 -0.1525 -0.0935
 4097W        W20231   1.609   5.760   9.666  0.3398  0.2034 -0.1627
 4098W        W20232  11.689  10.732   3.022  0.1111 -0.1059 -0.2593
 4099W        W20233   2.386   3.464   3.341 -0.3490 -0.0731  0.0469
 4100W        W20234  17.854   6.008  10.715  0.2316  0.0765 -0.0465
 4101W        W20235  10.300   9.603  15.125 -0.1582  0.0034  0.4217
 4102W        W20236  17.687   5.608  13.194 -0.0966 -0.5526  0.2284
 4103W        W20237   0.635   6.066   0.823 -0.3134  0.1498  0.1948
 4104W        W20238   9.966   5.076   4.755 -0.1274  0.1175 -0.0087
 4105W        W20239  10.416  11.004   3.510  0.0334 -0.1951 -0.0556
 4106W        W20240   8.805   0.283   2.831 -0.0520 -0.4608 -0.0605
 4107W        W20241   6.413   0.856  10.991 -0.0002  0.0303  0.1112
 4108W        W20242  11.441  11.312  13.635  0.0496 -0.1692  0.1327
 4109W        W20243   1.786   6.819  13.059  0.0113 -0.1051 -0.1596
 4110W        W20244   5.900  18.810  13.698  0.0110  0.0789  0.0626
 4111W        W20245   6.169  16.838  10.634 -0.0629  0.1913 -0.0689
 4112W        W20246   3.382   3.614  14.687 -0.0538  0.1227 -0.1603
 4113W        W20247  16.330  11.212   2.632  0.0193 -0.0595  0.0551
 4114W        W20248  15.134   0.498  12.827 -0.0785 -0.1393  0.0182
 4115W        W20249   4.388   7.151  10.813  0.1081  0.0617 -0.2217
 4116W        W20250   3.782  12.646  14.723  0.0162  0.2863 -0.1289
 4117W        W20251   7.022   8.921  11.878  0.1993 -0.0488  0.0063
 4118W        W20252   5.898   2.769   3.959  0.1995 -0.2049  0.3210
 4119W        W20253   0.610  16.046   3.561 -0.1260 -0.2037  0.0376
 4120W        W20254   6.011   2.121  11.105  0.1297  0.3203 -0.0617
 4121W        W20255  15.860   5.696  10.465 -0.1668  0.0539 -0.0775
 4122W        W20256  14.274   9.448   1.694 -0.2225 -0.0235  0.1135
 4123W        W20257   0.633   8.604  12.442  0.3581 -0.3981 -0.6570
 4124W        W20258   6.114   8.928   1.224 -0.0949 -0.1713  0.1930
 4125W        W20259   9.260  12.850   4.294  0.1871  0.1299  0.1659
 4126W        W20260  11.777   9.486   5.070  0.0331 -0.1577  0.2672
 4127W        W20261  16.809   5.219   4.452  0.0241 -0.0732  0.2005
 4128W        W20262  10.229   1.156  12.424 -0.2222  0.0709  0.0208
 4129W        W20263  12.807  13.349  10.450 -0.0060  0.3920  0.3866
 4130W        W20264  11.249  14.695  12.132  0.3204  0.0254  0.1181
 4131W        W20265   0.628   1.400   5.203  0.0322  0.2447 -0.0631
 4132W        W20266   7.863   0.872  12.829 -0.0707 -0.0825 -0.2150
 4133W        W20267   6.999  13.169   3.134  0.0911 -0.0532  0.0535
 4134W        W20268   3.712   0.566  13.146  0.1370  0.2173 -0.2101
 4135W        W20269  15.960   4.019  10.637  0.1281 -0.4449  0.0783
 4136W        W20270   6.721  16.410   5.137 -0.1344  0.3168  0.0895
 4137W        W20271   4.696   4.072   1.155 -0.1200  0.0589 -0.2841
 4138W        W20272  18.668  14.833  13.171  0.1031  0.3145  0.1808
 4139W        W20273   9.344  14.628  10.452 -0.0373 -0.2911  0.0071
 4140W        W20274  11.321  11.600   5.194  0.0062  0.1217 -0.0051
 4141W        W20275   4.981  17.202   4.502  0.1129 -0.1874 -0.1395
 4142W        W20276   6.317   5.874  12.970 -0.1856  0.1360 -0.2440
 4143W        W20277   6.026  18.973   5.640 -0.1196  0.1224 -0.2329
 4144W        W20278  15.041   5.408   4.237 -0.3027 -0.0820 -0.0568
 4145W        W20279   6.875  18.601  12.858 -0.0397 -0.0117 -0.3589
 4146W        W20280  18.259  16.150  14.660  0.4001 -0.1165 -0.0695
 4147W        W20281  16.566  10.368   2.938  0.2106  0.1027  0.0658
 4148W        W20282   3.151  17.544   9.799 -0.0556  0.0048 -0.1469
 4149W        W20283   9.200  17.759   4.101  0.1355 -0.0909 -0.0629
 4150W        W20284   3.959   3.043   0.278 -0.0126 -0.0190  0.1397
 4151W        W20285  18.816   8.337  12.716  0.3349  0.2542 -0.1432
 4152W        W20286  10.647   7.552   2.761 -0.0579  0.1669  0.2560
 4153W        W20287   4.838   1.228  12.663  0.2572  0.0624  0.4616
 4154W        W20288   0.626  13.137   3.807  0.0164  0.1622  0.0149
 4155W        W20289   6.359  16.900   3.378  0.1075  0.2353  0.1556
 4156W        W20290   7.157   0.727   0.009  0.1431  0.0611 -0.1227
 4157W        W20291  14.543  11.849   4.766 -0.0637 -0.0919  0.0127
 4158W        W20292   7.315  14.448  11.001 -0.0538  0.1020 -0.0301
 4159W        W20293  13.419  10.803  12.849  0.0427 -0.1127 -0.0265
 4160W        W20294  16.290  14.975   3.068 -0.0889 -0.0585  0.1365
 4161W        W20295  17.617   0.306   3.606 -0.0914  0.0063 -0.0887
 4162W        W20296  17.447   5.554  12.174 -0.1518  0.0606 -0.2928
 4163W        W20297   9.529   5.248   5.479 -0.0302 -0.4505 -0.0042
 4164W        W20298   1.316  16.888   0.362  0.0666 -0.0138 -0.2133
 4165W        W20299  16.423  13.638  14.847 -0.2340  0.0802 -0.1451
 4166W        W20300   0.625   0.314   5.211  0.1104 -0.2345 -0.0188
 4167W        W20301  17.016   3.761  12.189  0.2526 -0.1025  0.4718
 4168W        W20302  17.932  17.788   9.393  0.1019  0.2571 -0.1287
 4169W        W20303   4.361   8.074  14.384 -0.0871 -0.0638  0.1032
 4170W        W20304  15.092  17.407  13.059 -0.5215 -0.1574 -0.1207
 4171W        W20305   6.476  12.529  11.180 -0.1716  0.1853  0.1430
 4172W        W20306   3.284  17.984   3.789 -0.0884 -0.0932 -0.2021
 4173W        W20307   0.443  12.613  14.049  0.3653  0.0387  0.3598
 4174W        W20308   0.966  18.788   3.512  0.2707  0.1694 -0.1297
 4175W        W20309   2.221  10.674  13.637  0.0903 -0.3026 -0.1711
 4176W        W20310  12.274   6.706  12.726 -0.1087 -0.1609 -0.1672
 4177W        W20311   6.411  13.697  12.220  0.2277 -0.1293  0.0113
 4178W        W20312   8.396   3.417   2.222  0.0815 -0.1099  0.3512
 4179W        W20313  12.084   9.455   0.263  0.1063 -0.0149  0.0904
 4180W        W20314   0.266   0.575  10.482 -0.1481  0.3771 -0.2061
 4181W        W20315  16.496  14.696   3.797 -0.2058 -0.2173 -0.1730
 4182W        W20316  14.406   7.114   0.420  0.1063 -0.5930 -0.3512
 4183W        W20317  12.395  10.324   2.219 -0.0477 -0.1270 -0.0109
 4184W        W20318  13.460   0.443   0.564 -0.1733  0.2240 -0.1702
 4185W        W20319   4.226   9.635   2.191  0.0909 -0.1819 -0.0172
 4186W        W20320  10.975  18.950  14.981  0.1988 -0.1912  0.0958
 4187W        W20321   7.062   2.882   5.166  0.2726 -0.1310  0.1873
 4188W        W20322  11.206   1.316   4.074 -0.4943  0.2276  0.0389
 4189W        W20323   2.332  16.082  11.106  0.1440 -0.0231 -0.0439
 4190W        W20324  12.442  14.781   1.682 -0.1645 -0.5383 -0.0936
 4191W        W20325  11.243   9.838  14.499 -0.0144  0.0107  0.1231
 4192W        W20326  13.827  15.586   0.297  0.1517  0.3576  0.2335
 4193W        W20327   7.417   5.971   1.873 -0.1084 -0.0112 -0.0454
 4194W        W20328  19.014   4.505  12.958  0.2523  0.2320 -0.3367
 4195W        W20329   0.258   4.942  13.825 -0.1384 -0.1082  0.0736
 4196W        W20330  12.246   0.315  11.100  0.5067  0.0174 -0.3131
 4197W        W20331   2.446   0.433  12.343  0.1622 -0.2116  0.2359
 4198W        W20332   3.275  11.500   3.893  0.0902  0.1061 -0.1678
 4199W        W20333  10.260  11.874   1.081  0.1220  0.0251 -0.4548
 4200W        W20334   9.008   2.647   2.780 -0.3913 -0.1695 -0.1427
 4201W        W20335   9.968   9.118   0.055  0.1677  0.1946 -0.1821
 4202W        W20336  12.754  10.693   2.205 -0.1956  0.0224 -0.1641
 4203W        W20337  11.235   6.830  14.928 -0.1160 -0.2493  0.1822
 4204W        W20338   5.417  11.569  13.347 -0.1690 -0.0043 -0.5092
 4205W        W20339  16.027   1.759   3.222  0.0199 -0.0274 -0.2082
 4206W        W20340  15.553   9.255  13.058 -0.2082 -0.3484  0.0154
 4207W        W20341  19.076   8.406   1.853 -0.0328  0.3423  0.2215
 4208W        W20342   3.363  16.170  10.292  0.0222  0.0143 -0.0513
 4209W        W20343   9.910  10.979  14.477 -0.2127 -0.2202  0.1027
 4210W        W20344  14.956   1.746   0.379 -0.1045 -0.1357 -0.1054
 4211W        W20345  15.941   7.577  10.558 -0.1901  0.3146  0.1885
 4212W        W20346  13.242  10.182  14.259  0.2222  0.2008  0.0305
 4213W        W20347   4.496  17.933   4.975 -0.0740  0.3315 -0.1497
 4214W        W20348  16.772  14.298  10.321  0.0191  0.0381  0.0527
 4215W        W20349   4.910   4.933   1.386  0.1130  0.1065  0.2075
 4216W        W20350   0.029  10.315  11.833  0.2157  0.0727 -0.0260
 4217W        W20351  11.565  18.122  14.731  0.1763 -0.0092  0.3876
 4218W        W20352  14.213  15.472   2.341  0.0872 -0.0477 -0.0454
 4219W        W20353  11.269   1.728   3.784  0.0024 -0.1124  0.3270
 4220W        W20354   0.017  11.739   1.157 -0.2089  0.1289 -0.0593
 4221W        W20355   9.102   4.465   0.385 -0.1647  0.1249  0.2267
 4222W        W20356   2.997   7.962   4.293 -0.2133  0.1812 -0.2759
 4223W        W20357   3.524  14.484  12.577 -0.0262 -0.1140  0.0625
 4224W        W20358   1.057   4.640   3.789  0.1280  0.2101  0.0302
 4225W        W20359  15.877   6.588  14.528  0.2001 -0.1541 -0.3034
 4226W        W20360   0.597   3.194   4.806  0.0759  0.1949  0.1490
 4227W        W20361  14.988   0.926   2.364 -0.1441  0.0288 -0.2269
 4228W        W20362  12.447   8.744   2.068 -0.2157 -0.0212  0.0704
 4229W        W20363  13.505   9.791  10.943 -0.1211  0.0585 -0.2905
 4230W        W20364  12.543   0.953   3.544  0.1231 -0.2445 -0.3919
 4231W        W20365   7.743  17.541  12.780  0.4231  0.0045 -0.3927
 4232W        W20366   6.056  16.191  14.632 -0.0450  0.1109 -0.1522
 4233W        W20367  15.191   5.242   3.454 -0.2976 -0.3557  0.0459
 4234W        W20368   7.308   6.847  13.461  0.5364 -0.1931 -0.0762
 4235W        W20369   8.859   7.726  11.388  0.0767  0.2520  0.2225
 4236W        W20370  14.183   9.594  14.419  0.0358  0.1621 -0.1280
 4237W        W20371  11.543  17.361   1.220 -0.1591 -0.1850  0.0528
 4238W        W20372  14.998  12.142   0.872 -0.2035 -0.1308  0.1254
 4239W        W20373  15.372  13.644  10.397  0.2198  0.2550  0.0243
 4240W        W20374  17.970  10.199  14.300 -0.1522  0.0773 -0.1100
 4241W        W20375  12.876  18.549  12.578 -0.1482  0.2879  0.0246
 4242W        W20376  14.532   7.368   4.413  0.0673 -0.2855  0.2685
 4243W        W20377  14.195   3.560  11.517 -0.1645  0.1338  0.1111
 4244W        W20378   9.981  16.346  13.318  0.0920 -0.2229 -0.1197
 4245W        W20379  13.173   8.922  11.744 -0.0423  0.4187  0.2375
 4246W        W20380   7.376   4.666   5.459  0.1968 -0.0361 -0.0275
 4247W        W20381  13.023   4.157   0.397  0.1060  0.0998 -0.0924
 4248W        W20382   5.548  10.315  13.922  0.0031  0.1477 -0.0734
 4249W        W20383   0.771  16.283   5.011  0.2487 -0.0291  0.3830
 4250W        W20384  18.008   4.066  11.386 -0.1999  0.0161  0.1829
 4251W        W20385  15.375   6.197   1.770  0.3361  0.1493  0.3189
 4252W        W20386  11.271  15.514   0.338  0.0229 -0.2775 -0.2369
 4253W        W20387   0.918  13.039  14.760 -0.1093  0.1926 -0.0050
 4254W        W20388   4.480  15.506   0.126 -0.1724 -0.2036 -0.0859
 4255W        W20389  12.042  10.193  13.134 -0.2010 -0.0561 -0.1276
 4256W        W20390   5.012  18.654   2.022  0.2151 -0.2650 -0.0052
 4257W        W20391  16.026   0.682   1.580  0.0202  0.1414 -0.2050
 4258W        W20392  15.834   2.846  11.886  0.0062 -0.0056  0.0414
 4259W        W20393   1.319  10.570   1.757  0.0620 -0.2313 -0.1867
 4260W        W20394  17.711  16.013   2.039  0.2763  0.0833 -0.3190
 4261W        W20395   1.146  14.731   5.723  0.0148  0.2196  0.1401
 4262W        W20396  14.874  16.993  14.234  0.1779 -0.2171  0.0709
 4263W        W20397  11.854  16.006   0.817 -0.0391 -0.0404  0.2130
 4264W        W20398  15.152  13.861  14.068  0.3763  0.0039  0.0482
 4265W        W20399  18.839   4.958   5.029  0.1971 -0.1895  0.2046
 4266W        W20400  16.081  14.283   3.926  0.0163 -0.2132 -0.0266
 4267W        W20401   4.056   2.379  13.314 -0.2336  0.0569  0.1157
 4268W        W20402   2.517  14.324   0.513 -0.2682 -0.2139 -0.1489
 4269W        W20403  11.452   6.739  11.564 -0.0017 -0.0397 -0.1606
 4270W        W20404  10.863   4.190   3.054  0.2443  0.0653  0.1025
 4271W        W20405  18.465   0.890   0.522  0.2547  0.3162 -0.2211
 4272W        W20406   9.205   4.726   3.951 -0.0238 -0.0160 -0.5453
 4273W        W20407   2.301  13.047  12.004 -0.2608 -0.0144  0.1390
 4274W        W20408   6.012  18.472   2.956 -0.1844  0.0985  0.0738
 4275W        W20409  16.039  11.164  14.825  0.0529  0.0858 -0.0226
 4276W        W20410   9.327   3.830  12.349  0.2483  0.1246 -0.1274
 4277W        W20411  11.492   5.372   2.326  0.0813  0.2766  0.1008
 4278W        W20412   4.572  17.371  15.072  0.0529 -0.1436  0.1075
 4279W        W20413  16.718  17.131  12.722 -0.0676 -0.0130 -0.1873
 4280W        W20414  11.399   6.528  13.617 -0.4074  0.0895 -0.2437
 4281W        W20415  13.748  13.241   0.390  0.2431 -0.1669 -0.2027
 4282W        W20416  13.776   0.214  13.839  0.1612  0.0989  0.2073
 4283W        W20417  13.297   6.074   2.405  0.4086  0.1445  0.0348
 4284W        W20418   5.408  10.697   1.414  0.0021  0.0965 -0.2567
 4285W        W20419  12.680   5.211  12.680  0.2096  0.0008 -0.1287
 4286W        W20420  18.375  13.812  14.229  0.0987 -0.0950  0.0705
 4287W        W20421   9.198  10.975  13.786 -0.0051 -0.0062  0.0061
 4288W        W20422   3.400   4.356  13.634 -0.1616 -0.4222  0.0866
 4289W        W20423   6.278   6.150  11.855  0.1647  0.1042  0.0997
 4290W        W20424  11.600  17.822   2.594  0.1609 -0.0021  0.0835
 4291W        W20425  13.400  10.527   2.204 -0.2411 -0.2246 -0.0868
 4292W        W20426  10.598  17.234   0.601 -0.1068 -0.0464 -0.1151
 4293W        W20427   3.519   7.860   4.206  0.0508  0.2172  0.0328
 4294W        W20428  12.362  11.340  10.619 -0.2663  0.0702 -0.3371
 4295W        W20429  12.067   3.674  11.988 -0.1925 -0.1627 -0.3686
 4296W        W20430  16.563  17.797   2.938  0.2332  0.1703  0.0167
 4297W        W20431   0.680  14.011  12.318  0.1346  0.1211 -0.0386
 4298W        W20432   2.914  13.872   3.928  0.0383 -0.1650  0.1071
 4299W        W20433   1.272   3.361   5.444  0.2734 -0.2302  0.0757
 4300W        W20434  10.582   7.664   4.825 -0.1016  0.2044 -0.0535
 4301W        W20435   5.418   7.927  13.773 -0.0356 -0.0156  0.0267
 4302W        W20436  17.244  13.137  12.401 -0.1038 -0.2058  0.2376
 4303W        W20437   3.886  14.815  13.338  0.0045  0.3124 -0.0010
 4304W        W20438   9.087  15.898   3.553  0.3425 -0.0214  0.0882
 4305W        W20439  13.595   1.017  14.374  0.1664  0.4448  0.2310
 4306W        W20440  13.441  10.792   0.731 -0.0792  0.0739  0.0521
 4307W        W20441   0.472  14.902  14.361  0.0633 -0.0887 -0.5531
 4308W        W20442  17.065  11.538  13.749 -0.0426  0.0551  0.0032
 4309W        W20443  13.318  13.482  11.311 -0.0041 -0.0485  0.0201
 4310W        W20444  11.187   7.030  12.388 -0.1356 -0.2312 -0.2686
 4311W        W20445  13.544   9.099   0.219 -0.0678  0.1251  0.0429
 4312W        W20446  12.075   2.107  13.237  0.2877 -0.2346  0.0005
 4313W        W20447   0.166   1.501  14.919 -0.1423 -0.1079  0.1174
 4314W        W20448   9.482   6.289   0.043 -0.1505  0.3420  0.1787
 4315W        W20449   9.283  16.923   5.342 -0.2516 -0.0756  0.1971
 4316W        W20450   4.831   8.263   5.806  0.1411 -0.1896 -0.0393
 4317W        W20451   1.795   8.499   4.342  0.0655 -0.1652  0.2292
 4318W        W20452  10.883   7.794  11.865 -0.2952  0.2356 -0.1562
 4319W        W20453   3.635   9.848  14.905  0.1802 -0.0305 -0.3449
 4320W        W20454  11.630  17.952   1.258  0.1126 -0.0347 -0.1521
 4321W        W20455  11.404  18.676   3.613 -0.4108 -0.2795 -0.0735
 4322W        W20456   0.851  14.635   2.293 -0.4005 -0.0247 -0.4909
 4323W        W20457   4.734  16.608  14.917  0.1200 -0.0893  0.0430
 4324W        W20458   3.388  17.140   4.195 -0.0181 -0.2100 -0.1172
 4325W        W20459  18.161   8.428   4.470  0.0631  0.0493  0.1950
 4326W        W20460  13.107   7.043  12.314 -0.0475 -0.0251  0.1150
 4327W        W20461   2.027   0.343  12.580 -0.0079 -0.1629 -0.1725
 4328W        W20462   8.823  11.849  12.033  0.1103 -0.3275 -0.2900
 4329W        W20463   8.853   8.896   1.924 -0.3258  0.0616  0.2088
 4330W        W20464   5.048  18.114  12.241 -0.0010 -0.0589  0.0300
 4331W        W20465  12.198  13.534   0.104 -0.3578 -0.0886 -0.1787
 4332W        W20466  19.074  15.089  13.886 -0.0311 -0.0095 -0.0076
 4333W        W20467  16.521  11.920   1.484 -0.0060 -0.1973  0.0391
 4334W        W20468  18.570  15.526   0.001  0.0708 -0.1188 -0.1142
 4335W        W20469   6.982  14.704   0.201  0.0381 -0.1201 -0.1525
 4336W        W20470   0.528   4.372  10.871 -0.0665  0.2119 -0.0222
 4337W        W20471  12.014   7.202   5.214  0.3508 -0.1158 -0.2806
 4338W        W20472  14.049  13.993   4.093 -0.1892 -0.1386 -0.0211
 4339W        W20473   8.587   8.088  11.603  0.1589  0.1350 -0.2372
 4340W        W20474   6.426  13.993  15.048 -0.1256 -0.0876 -0.3340
 4341W        W20475   6.431  12.213  11.836  0.0757 -0.1603  0.0105
 4342W        W20476   1.637   7.001   1.932 -0.0023 -0.1844 -0.2309
 4343W        W20477  12.757   7.913  11.738 -0.1510  0.3446 -0.1293
 4344W        W20478   7.823   4.471  13.778 -0.0756 -0.2638  0.0288
 4345W        W20479  11.562   0.270  13.367  0.1812 -0.2136  0.1112
 4346W        W20480  10.934   1.525  13.294  0.2734 -0.1383  0.3123
 4347W        W20481  15.884   3.680  12.244  0.0580 -0.0518  0.1428
 4348W        W20482   7.610   8.102   4.665  0.2500 -0.0901  0.3789
 4349W        W20483   6.457   3.221   5.183  0.1156 -0.0259  0.3704
 4350W        W20484  16.889   0.683  13.502  0.1097  0.3517 -0.0123
 4351W        W20485   8.601  10.494   1.043 -0.0251  0.1402 -0.1306
 4352W        W20486   5.997  11.113   2.247 -0.1607 -0.2515 -0.2056
 4353W        W20487  18.165  18.412  13.283 -0.0797 -0.0626  0.0636
 4354W        W20488  16.713  12.285   4.542  0.3124  0.3509 -0.0444
 4355W        W20489   8.403   9.551   0.268  0.1065 -0.2258 -0.2989
 4356W        W20490   6.121   9.871   3.548  0.1670 -0.1368  0.2814
 4357W        W20491   1.413   0.667  10.334  0.3335 -0.1415 -0.3152
 4358W        W20492   2.374  16.325   3.572  0.0008 -0.0993 -0.1673
 4359W        W20493   1.362  14.798   0.734 -0.1602  0.2264  0.0927
 4360W        W20494   5.250  10.155   1.021  0.3418 -0.2303  0.0301
 4361W        W20495  15.638   9.477   9.423  0.3905 -0.1252 -0.2138
 4362W        W20496  15.283   2.342   3.188  0.2764  0.4625  0.2520
 4363W        W20497   3.225   5.715   4.419  0.0283  0.2999  0.0570
 4364W        W20498  13.119   5.831   3.717 -0.2454  0.0737 -0.2436
 4365W        W20499  18.850  11.205   3.125  0.3243  0.0716 -0.0023
 4366W        W20500   5.101  11.216   1.428 -0.2823 -0.0927 -0.0253
 4367W        W20501  12.954   1.293   4.328 -0.2441 -0.1431 -0.0807
 4368W        W20502  11.806  14.799   0.929  0.4357 -0.0695  0.1632
 4369W        W20503  10.450  17.636   0.307  0.0577 -0.0096  0.1989
 4370W        W20504   0.864   4.150  13.943 -0.0488  0.0345 -0.1611
 4371W        W20505   5.745   9.094   2.881 -0.0801  0.0444  0.2727
 4372W        W20506   5.354   1.501  15.141  0.4488 -0.0216 -0.2050
 4373W        W20507   6.175  10.790   3.154  0.1524 -0.0703  0.0530
 4374W        W20508   1.309   7.895   1.583 -0.4159 -0.0823  0.3231
 4375W        W20509  14.953  18.209   3.583 -0.3041 -0.0710  0.0047
 4376W        W20510   0.900  10.498  13.715  0.1331  0.3075 -0.1376
 4377W        W20511   1.125  16.596   5.635 -0.2866 -0.2669 -0.1758
 4378W        W20512   2.988   3.633  10.452  0.0566  0.0467  0.0755
 4379W        W20513   2.637   2.130   2.872 -0.0128  0.0752 -0.0473
 4380W        W20514   4.164   6.665   4.492  0.2658 -0.2613  0.0131
 4381W        W20515   9.053   1.159  11.273 -0.1533 -0.3677 -0.1244
 4382W        W20516  10.265   7.444  13.846  0.1830 -0.2197  0.1265
 4383W        W20517   1.966   5.347  11.866  0.1261  0.1587 -0.2015
 4384W        W20518   6.622  12.178   5.987 -0.3913  0.2118 -0.2074
 4385W        W20519  11.912   3.582  12.774  0.1047 -0.0164  0.0766
 4386W        W20520  13.263  13.924  13.565  0.4657 -0.0563  0.0983
 4387W        W20521   4.785  14.681   2.862  0.1798  0.1060 -0.0484
 4388W        W20522   8.895   9.366  13.796  0.0179 -0.2879  0.0298
 4389W        W20523   8.047   0.661   2.269  0.1525 -0.1270 -0.0492
 4390W        W20524   3.265  10.065   3.972  0.0068 -0.1002 -0.2491
 4391W        W20525   4.319   8.278   0.241 -0.2633  0.0494 -0.1205
 4392W        W20526   5.956   2.330  10.188 -0.2032 -0.0184 -0.1166
 4393W        W20527   3.310  13.637   4.804 -0.0595  0.1216  0.0006
 4394W        W20528  11.602   5.061  13.084 -0.0867 -0.1711 -0.0355
 4395W        W20529  17.173  15.592   3.483  0.1596  0.1875  0.5243
 4396W        W20530  16.402   3.309   4.775 -0.1022  0.3663  0.1349
 4397W        W20531  14.959  17.291  10.706  0.0626 -0.1416 -0.0002
 4398W        W20532   6.787  12.204  11.433 -0.0154  0.2558 -0.1489
 4399W        W20533  14.508   3.900  13.737  0.1171 -0.3054 -0.2957
 4400W        W20534  16.458  16.671  10.947  0.2629 -0.0033  0.1073
 4401W        W20535   7.822  10.832  14.008  0.1576 -0.0591 -0.0550
 4402W        W20536  11.445  14.983   3.343 -0.2137 -0.1418  0.1137
 4403W        W20537  10.929   6.875   4.667  0.3103  0.1358  0.0058
 4404W        W20538  12.661   2.978   0.289  0.2373  0.0512 -0.2095
 4405W        W20539   0.736   6.139  10.192 -0.0146  0.4259 -0.1769
 4406W        W20540  11.512  11.855   3.952  0.0875 -0.2953  0.1359
 4407W        W20541   3.953  10.183  13.507  0.0503 -0.2427 -0.0238
 4408W        W20542   7.915   7.987   3.356 -0.0059  0.0589 -0.1249
 4409W        W20543   6.603  17.844   0.264  0.0845 -0.1034 -0.1585
 4410W        W20544  15.919  11.538  12.559  0.3083  0.2308  0.1318
 4411W        W20545   7.191  13.916  13.662  0.1092  0.1319  0.0408
 4412W        W20546  16.150  18.881  10.203  0.1008  0.3097 -0.3797
 4413W        W20547  11.599  10.945   3.953  0.5837 -0.0849 -0.1296
 4414W        W20548   2.526  17.806  12.297  0.1527 -0.0620  0.2156
 4415W        W20549   3.336  17.617  12.612  0.0143 -0.0604  0.0404
 4416W        W20550   4.986   7.083   1.622  0.2211  0.0852 -0.4022
 4417W        W20551  19.101  16.589  12.493  0.0533  0.0441  0.0335
 4418W        W20552   1.264  10.425  12.108  0.0962  0.0518  0.0582
 4419W        W20553  17.787  17.208  12.139 -0.0634 -0.2184 -0.1188
 4420W        W20554   5.136  16.046   4.618 -0.1986 -0.0168  0.0006
 4421W        W20555  13.636   3.594  10.000 -0.0607 -0.0094 -0.0857
 4422W        W20556   6.120   9.858   0.106 -0.1898 -0.0470 -0.0195
 4423W        W20557  16.764   1.010   5.067 -0.0882 -0.2052  0.0978
 4424W        W20558  16.557  14.899  11.271  0.0970  0.1222 -0.2325
 4425W        W20559   2.858   9.799   1.261 -0.2978  0.1594 -0.1783
 4426W        W20560   7.131   8.057   3.916 -0.0307 -0.2995 -0.0278
 4427W        W20561  13.077   7.714   1.606  0.0803  0.2161 -0.2275
 4428W        W20562   9.836  18.294  12.282 -0.3343  0.1109  0.2208
 4429W        W20563   0.317   7.150  13.341 -0.0917  0.0862 -0.1439
 4430W        W20564  13.247   3.358  14.069  0.0328  0.2197 -0.0498
 4431W        W20565  16.549  14.543  13.946  0.1016 -0.1420  0.0324
 4432W        W20566  12.331   6.155  12.675 -0.3571  0.2770 -0.1148
 4433W        W20567   3.282   6.683  14.991 -0.0048  0.1052  0.2926
 4434W        W20568   5.707  15.496  11.874 -0.1895  0.1069 -0.2896
 4435W        W20569  11.658  12.983  11.857  0.4325 -0.1705  0.2424
 4436W        W20570  18.234  13.100   2.329 -0.0886 -0.2690  0.6009
 4437W        W20571  18.184   6.878  13.801 -0.3212  0.0346 -0.2275
 4438W        W20572  18.851   3.729  14.566  0.1289  0.0423 -0.1888
 4439W        W20573  14.469  15.072   0.149  0.3711  0.2179 -0.0068
 4440W        W20574   2.490   0.908  13.694  0.1578 -0.0910 -0.0713
 4441W        W20575   7.084  17.720   0.432 -0.1087 -0.1968 -0.0087
 4442W        W20576   2.846   3.891  12.927 -0.1561  0.0967  0.1042
 4443W        W20577   7.509   0.008   1.776 -0.3469 -0.1813 -0.1745
 4444W        W20578   8.114  11.968  14.886  0.2565  0.0851 -0.2407
 4445W        W20579  15.769   8.161   2.158  0.5048  0.0788  0.2832
 4446W        W20580  18.694   9.266   0.454 -0.1646 -0.2375  0.0648
 4447W        W20581   3.259  16.203  10.928 -0.2086  0.2724  0.1401
 4448W        W20582   6.479   8.441   2.503  0.2776  0.0280 -0.1221
 4449W        W20583   2.857  10.865   2.088 -0.1491 -0.1319 -0.2419
 4450W        W20584   2.386  17.249  11.406  0.2464 -0.2474 -0.0859
 4451W        W20585  10.127   0.638  10.834 -0.2691  0.0904  0.0926
 4452W        W20586   4.813   7.617  12.611  0.0005 -0.0150 -0.0611
 4453W        W20587  17.270  14.656   4.417 -0.1853 -0.1642 -0.0125
 4454W        W20588   3.279   7.697   1.213  0.1635  0.0753  0.3833
 4455W        W20589  12.928  17.449   1.067 -0.2518  0.0109 -0.1914
 4456W        W20590   2.420   0.177  11.899  0.2586  0.0218  0.1632
 4457W        W20591   6.531   6.902   0.525 -0.2121  0.3542  0.0833
 4458W        W20592  16.665   8.129  11.125 -0.2231 -0.2433  0.3532
 4459W        W20593  18.162  10.851   0.998 -0.2147 -0.3282  0.0906
 4460W        W20594   1.331   5.898  14.275  0.1264 -0.1552  0.4650
 4461W        W20595  12.467  11.831   4.660 -0.3261 -0.0763  0.2124
 4462W        W20596   8.161   7.391  12.132 -0.0923 -0.0116  0.0735
 4463W        W20597   5.020   4.938   1.884  0.0721 -0.1948  0.0444
 4464W        W20598   5.496   9.258  13.216  0.1973 -0.1005 -0.0638
 4465W        W20599   1.780   0.233   2.276  0.1486 -0.3029 -0.1439
 4466W        W20600   7.754   5.107  11.999 -0.1216 -0.0253 -0.0219
 4467W        W20601  10.822  12.668   4.008 -0.5767 -0.0099  0.0495
 4468W        W20602  14.695   9.632  13.420  0.0307 -0.0256  0.0954
 4469W        W20603  12.013   7.597   2.073 -0.1050 -0.1009 -0.0470
 4470W        W20604  10.828  14.717   0.226 -0.4184  0.0561  0.3020
 4471W        W20605   7.814  12.171   2.866  0.1786 -0.1766 -0.3835
 4472W        W20606  13.333   8.446  13.963 -0.1536  0.0816 -0.2881
 4473W        W20607   6.197   0.291  10.468  0.2639  0.2958  0.1898
 4474W        W20608  16.051  17.911  14.550 -0.2809  0.2143  0.1987
 4475W        W20609  13.253  12.469  14.046  0.2689 -0.1442 -0.1116
 4476W        W20610   7.264  15.259   2.062  0.0795 -0.0639 -0.4694
 4477W        W20611  13.335   6.695  11.455 -0.2415  0.2376 -0.1281
 4478W        W20612  14.779   6.313   1.615 -0.0279  0.3531 -0.1948
 4479W        W20613  18.453  10.728   1.356 -0.0083 -0.1860  0.0564
 4480W        W20614  16.752   3.883   3.361  0.0447 -0.1574  0.2865
 4481W        W20615  17.828   9.664  10.668  0.0963  0.1752  0.0073
 4482W        W20616  17.387   2.700  10.368 -0.3341 -0.0794  0.2723
 4483W        W20617  16.546  11.305   0.143  0.1003 -0.2209  0.1494
 4484W        W20618   4.443   1.672  13.720 -0.0204  0.1254  0.3035
 4485W        W20619   8.711  18.452  15.053 -0.1293  0.1724 -0.0164
 4486W        W20620  10.238   3.246   3.336  0.0439  0.0082 -0.0783
 4487W        W20621  16.799  15.885  11.486 -0.3418 -0.1269  0.1115
 4488W        W20622  15.443   5.884  11.567  0.1395  0.0880 -0.1140
 4489W        W20623   1.963  10.785   1.979  0.0818  0.0333 -0.0424
 4490W        W20624   3.301  13.007  13.082  0.1006  0.0790 -0.2820
 4491W        W20625   9.136   0.680  11.585  0.4405 -0.1930  0.1176
 4492W        W20626   0.605  11.754  12.857  0.1718 -0.0196 -0.0803
 4493W        W20627   2.644  17.720   4.123  0.1840  0.0049 -0.0927
 4494W        W20628  15.376  16.759   3.714  0.2393 -0.2908  0.0968
 4495W        W20629   9.182  15.074  14.920 -0.1767 -0.1927  0.5325
 4496W        W20630  13.018  10.089   3.476 -0.3995  0.2014 -0.0612
 4497W        W20631   6.543  12.556   1.804 -0.1487  0.2775 -0.1592
 4498W        W20632   1.968   9.923   0.245  0.0680  0.0072  0.1021
 4499W        W20633   8.614   6.562  15.058 -0.1588  0.0604  0.0940
 4500W        W20634  13.797   9.642   3.297 -0.0672 -0.1862  0.0077
 4501W        W20635   0.153  17.495   1.814  0.1314 -0.0524  0.0799
 4502W        W20636  19.069  18.683   2.008  0.1130  0.0001  0.0535
 4503W        W20637  18.979  18.664  11.166 -0.0043  0.0699 -0.2769
 4504W        W20638  18.279   2.632   4.354 -0.0391  0.0315  0.0500
 4505W        W20639   6.708   8.090   1.154  0.1088  0.1381 -0.1455
 4506W        W20640   5.835  10.236   3.283  0.2174 -0.1297  0.2843
 4507W        W20641   9.193   5.411   0.079 -0.0346 -0.1292 -0.3567
 4508W        W20642   8.073   5.670   1.028  0.0740 -0.0400 -0.0005
 4509W        W20643  11.006   6.521  11.445 -0.0856  0.1888 -0.0091
 4510W        W20644  10.238   1.606   1.046 -0.1010  0.0577  0.2466
 4511W        W20645   8.189   2.857   3.630  0.0599  0.2658  0.0731
 4512W        W20646   9.599   8.675   4.840 -0.1961  0.5786  0.1871
 4513W        W20647  14.793  15.472   2.998 -0.0550  0.3567  0.0399
 4514W        W20648   9.832  10.603  11.523 -0.0899 -0.1624  0.0277
 4515W        W20649  13.458  13.665   1.899 -0.1427 -0.0788 -0.0569
 4516W        W20650   0.924   1.776   3.765 -0.1769 -0.2500  0.3750
 4517W        W20651  17.821  16.952  14.890  0.2057  0.1800  0.1006
 4518W        W20652  15.883   8.910   1.461 -0.2324 -0.0567  0.0951
 4519W        W20653  14.740   6.986  10.773 -0.1538 -0.2489  0.1519
 4520W        W20654  14.636  10.117  13.149 -0.2100  0.1141 -0.1813
 4521W        W20655  15.727   0.604  13.954 -0.0114 -0.1621 -0.1699
 4522W        W20656   8.928  11.048   4.340  0.0635  0.1615 -0.0033
 4523W        W20657   0.228  16.824   4.084 -0.1515 -0.1920  0.2899
 4524W        W20658  13.739   6.215   1.108  0.2443  0.1890 -0.1146
 4525W        W20659  15.541  16.140   3.015  0.0500  0.0592  0.0364
 4526W        W20660   9.801   1.059   0.235 -0.1373 -0.0782 -0.1338
 4527W        W20661   4.446   9.380   5.052  0.1920 -0.1393 -0.4157
 4528W        W20662   8.608   6.720   3.083 -0.2905  0.0629  0.0843
 4529W        W20663  14.014   8.126   3.147 -0.1848 -0.2004 -0.2169
 4530W        W20664  14.140  16.475  12.561 -0.1840 -0.1705 -0.4125
 4531W        W20665  15.518   2.487   0.815  0.0986  0.0798  0.0713
 4532W        W20666   8.854  13.191   4.437 -0.0328  0.1599  0.0279
 4533W        W20667   9.680  17.077   3.555  0.1314 -0.0391  0.2616
 4534W        W20668  13.954   5.079   1.731  0.1472  0.1064 -0.2085
 4535W        W20669   0.761  14.562   2.994  0.0620 -0.0135  0.1534
 4536W        W20670   0.975   6.467   2.478  0.2657 -0.0422 -0.2578
 4537W        W20671  17.402   5.188  13.863 -0.1056  0.2082 -0.1799
 4538W        W20672   3.352   1.897  14.820  0.2747 -0.1685  0.0380
 4539W        W20673   7.741   9.402   2.803 -0.3589 -0.3798 -0.0923
 4540W        W20674  18.511   2.046   1.870 -0.2242 -0.1590 -0.2456
 4541W        W20675   1.055  10.916   2.148 -0.2801  0.0886  0.0858
 4542W        W20676  10.785  11.682   3.022 -0.0086  0.0379  0.0016
 4543W        W20677  13.622   9.242  14.534 -0.0354 -0.2743 -0.2757
 4544W        W20678   8.062   3.038   4.527  0.3464 -0.0244 -0.0390
 4545W        W20679   7.218  13.509   5.459  0.1741  0.0580 -0.0413
 4546W        W20680   8.121  18.906  14.437  0.1863  0.0773 -0.0388
 4547W        W20681  17.632  11.424  11.570 -0.1839  0.0240 -0.0492
 4548W        W20682  11.674   8.840   3.702 -0.2736  0.3250  0.0071
 4549W        W20683   5.419  10.167  11.490 -0.2019  0.1063 -0.4486
 4550W        W20684  14.783  13.568   1.205 -0.0717  0.1194 -0.0233
 4551W        W20685   4.910  10.215   3.226 -0.0149  0.1867  0.2055
 4552W        W20686  10.486  15.730   2.659 -0.0303 -0.0088 -0.1510
 4553W        W20687   4.641   2.951  10.594  0.1651 -0.0689 -0.0655
 4554W        W20688  19.133   8.678  14.335  0.2307  0.2244  0.1553
 4555W        W20689   2.733   5.590   2.165 -0.1594 -0.1950 -0.1319
 4556W        W20690  18.459   3.375  12.400 -0.0589 -0.1426 -0.0975
 4557W        W20691   2.491   2.540  12.986  0.2635 -0.0614  0.2028
 4558W        W20692   1.298   3.646   0.511  0.0165  0.0148  0.2503
 4559W        W20693  18.066  14.237  10.961  0.0113  0.0746  0.0486
 4560W        W20694   7.828   3.258   2.086 -0.0466 -0.0411  0.1662
 4561W        W20695  16.938   8.479   2.781 -0.1569 -0.0069 -0.1349
 4562W        W20696   1.078  17.453   5.120 -0.3511  0.0935  0.2652
 4563W        W20697   4.580  14.051   5.100 -0.1098  0.0283  0.0984
 4564W        W20698  10.099   0.013  11.521  0.3280 -0.0859 -0.0551
 4565W        W20699   0.090   2.244   3.899  0.0157  0.2157  0.1337
 4566W        W20700  12.504   7.094   5.064  0.2068 -0.2692 -0.1279
 4567W        W20701   7.806   0.265  11.576 -0.0856  0.1929 -0.1452
 4568W        W20702   1.578  13.334  14.058 -0.1649  0.0782 -0.0447
 4569W        W20703  11.186  13.040  11.005  0.0532  0.1753  0.2820
 4570W        W20704   6.170  14.791  10.072 -0.2536  0.0086  0.0562
 4571W        W20705  14.897   0.152  13.064 -0.4961 -0.1790  0.0001
 4572W        W20706  17.249  10.227  10.458 -0.3513  0.3415  0.1106
 4573W        W20707   0.051   8.881   3.284 -0.1643  0.0134 -0.3742
 4574W        W20708  17.590   4.992  14.779  0.0648  0.1010  0.0560
 4575W        W20709  16.822  19.034  14.256  0.1286 -0.1681 -0.0891
 4576W        W20710  11.784   0.505  11.003 -0.2438 -0.0972 -0.0352
 4577W        W20711  12.009   5.198  10.371  0.3546  0.3097  0.0299
 4578W        W20712  12.958  10.529   3.242 -0.0990  0.5834  0.0154
 4579W        W20713   6.984  14.692   1.057  0.0218  0.1432 -0.0280
 4580W        W20714  16.887  11.854  12.731  0.1335  0.0491 -0.0953
 4581W        W20715   0.927  11.936  13.650 -0.2461 -0.2662 -0.0626
 4582W        W20716   3.447   4.561  15.088  0.0968 -0.3036  0.1218
 4583W        W20717   7.960  18.021  12.877  0.1813  0.1011 -0.1894
 4584W        W20718   2.201   0.409  14.331  0.0346 -0.0636  0.0687
 4585W        W20719  17.299  12.645  10.612 -0.0758  0.2562 -0.0434
 4586W        W20720   7.290  15.237   5.694 -0.0016 -0.3159  0.0965
 4587W        W20721  17.970  12.253   0.749  0.1395  0.1143 -0.0003
 4588W        W20722  17.575   5.886   4.158  0.0492 -0.1620 -0.2680
 4589W        W20723  17.730   3.148   0.699  0.4146  0.0341  0.1719
 4590W        W20724   8.233   6.235  13.813 -0.1546 -0.0667 -0.0950
 4591W        W20725   7.374  10.553  10.492  0.0442 -0.1890 -0.0354
 4592W        W20726   7.073  13.382   2.685 -0.0653  0.1843  0.1972
 4593W        W20727   3.556  17.575  11.828  0.1901  0.2201  0.2478
 4594W        W20728   3.353  14.652   3.899 -0.1961 -0.0471 -0.1380
 4595W        W20729  11.469  17.773   3.786 -0.2360 -0.1088 -0.1161
 4596W        W20730   4.810  10.141  15.049 -0.1696  0.3918  0.1219
 4597W        W20731   8.930  12.640  13.808 -0.2187  0.2138  0.2441
 4598W        W20732  14.351  15.849   2.021  0.0456 -0.3422  0.0768
 4599W        W20733   2.933   2.627   3.793  0.1023 -0.0236  0.3718
 4600W        W20734   5.709   9.515   0.127 -0.3078  0.2708 -0.1005
 4601W        W20735   9.638  11.910   5.041 -0.0086 -0.0947  0.3699
 4602W        W20736   7.637  13.872   4.588 -0.0100 -0.0278  0.0252
 4603W        W20737  10.420   8.635   1.544  0.1614  0.0796 -0.2944
 4604W        W20738   9.201   2.435   3.889 -0.1786 -0.1620 -0.0356
 4605W        W20739   6.122  12.995  12.889 -0.3579 -0.1808  0.2284
 4606W        W20740  17.008   6.246  14.147  0.0448 -0.1081 -0.1776
 4607W        W20741  13.106   9.816   2.449 -0.0254 -0.2916  0.0040
 4608W        W20742  11.577   3.107   0.333  0.1152  0.0884  0.3000
 4609W        W20743  14.308   1.127   4.191 -0.0782 -0.1952 -0.1419
 4610W        W20744   3.762   4.190   4.868 -0.0744 -0.2133 -0.0342
 4611W        W20745  10.170   6.972  11.243  0.0403  0.1950 -0.0447
 4612W        W20746   2.257  12.845   3.512  0.1376 -0.0002  0.0073
 4613W        W20747   3.841   1.459   1.199 -0.2916 -0.3737 -0.0656
 4614W        W20748  16.467   1.503  10.640  0.2227  0.1297 -0.0824
 4615W        W20749   9.294   4.356   3.214 -0.3609  0.2935  0.0202
 4616W        W20750  16.067  13.310  12.068 -0.0953 -0.0056 -0.0266
 4617W        W20751   5.774  15.150   2.572  0.3278 -0.0054  0.0984
 4618W        W20752  13.324  14.044  12.850  0.0393  0.0847  0.1949
 4619W        W20753   9.661   2.019   0.722 -0.0213  0.1156 -0.0657
 4620W        W20754  13.146   3.938   1.417  0.0924  0.0948  0.0895
 4621W        W20755  11.112  14.669  14.048  0.0259  0.1613 -0.1548
 4622W        W20756  10.937  15.807   2.010 -0.1771 -0.0212 -0.3901
 4623W        W20757   9.247   2.059   0.401 -0.1271 -0.0071  0.0291
 4624W        W20758   2.640   1.163   4.836 -0.1928  0.3202 -0.1542
 4625W        W20759   5.951  18.884  13.203 -0.4003 -0.0744  0.3417
 4626W        W20760  17.287   7.663  11.191 -0.1531 -0.4026 -0.1690
 4627W        W20761   5.593   8.337  11.712  0.1544 -0.0043  0.0460
 4628W        W20762  10.270  11.526  12.050  0.1514  0.2294 -0.1026
 4629W        W20763  13.957   7.503   4.000 -0.0108  0.3791 -0.0520
 4630W        W20764  10.757  18.492   1.695  0.0411 -0.0383  0.1288
 4631W        W20765   9.183   6.243   2.360  0.0234  0.0764 -0.0722
 4632W        W20766   6.941   4.532  13.571 -0.0499  0.0800 -0.1138
 4633W        W20767   3.677   8.663  11.796  0.0348 -0.0817  0.3691
 4634W        W20768  15.650  18.956   2.686 -0.2289  0.1405  0.3397
 4635W        W20769   8.336   4.837  13.777 -0.0901 -0.1772 -0.0403
 4636W        W20770  16.449   6.816  10.598 -0.1270  0.1458  0.0255
 4637W        W20771   3.302   7.704   0.667 -0.2380  0.1178 -0.1942
 4638W        W20772  15.997   8.851  12.545  0.1594  0.0302  0.2675
 4639W        W20773  18.040   4.506   5.018 -0.1950  0.1716  0.0715
 4640W        W20774   8.896  14.497   5.620  0.1546  0.0549  0.0971
 4641W        W20775   1.106  14.612  11.512  0.3487  0.0777 -0.1710
 4642W        W20776   9.532  15.799   0.207  0.0532  0.0853  0.0886
 4643W        W20777  18.064   4.963  14.879  0.2513  0.0497 -0.1571
 4644W        W20778  15.019   3.744   4.694 -0.0694 -0.1842 -0.2084
 4645W        W20779   4.608   2.420  15.032  0.3077  0.3145 -0.0820
 4646W        W20780  17.630   8.430   1.028  0.3872 -0.0782 -0.2450
 4647W        W20781  11.269  18.756   0.529 -0.2823 -0.0836 -0.0796
 4648W        W20782  15.815  11.960  14.885 -0.0880  0.0938 -0.0167
 4649W        W20783  11.031  13.715  14.776  0.1993  0.5963  0.0132
 4650W        W20784   4.185  16.108   3.811  0.1530 -0.2388  0.1495
 4651W        W20785   0.656   0.491   4.697  0.0713  0.0173  0.0348
 4652W        W20786   6.952  11.497   0.759 -0.3147 -0.3255 -0.1187
 4653W        W20787  11.417   0.342   1.089 -0.0029 -0.0515 -0.0055
 4654W        W20788  14.887  10.837   4.407  0.0348  0.0549 -0.1440
 4655W        W20789  15.949  14.377   0.531 -0.0353 -0.3242 -0.3625
 4656W        W20790   9.404  13.087  11.144  0.2456  0.2576 -0.0488
 4657W        W20791   5.636   4.938  13.697 -0.0769  0.3509 -0.4496
 4658W        W20792  12.998   8.392  10.957  0.1146  0.0304 -0.0163
 4659W        W20793  13.548  14.831   2.858 -0.1893  0.2461  0.2013
 4660W        W20794   9.153  12.807   4.789 -0.2367  0.0050 -0.0589
 4661W        W20795   8.059   8.717   3.472  0.2416  0.1298  0.1011
 4662W        W20796  18.554   7.818   3.817 -0.0599  0.1127 -0.0394
 4663W        W20797  19.084  16.995   0.098 -0.0776  0.1741  0.2390
 4664W        W20798   2.066  10.656   1.316  0.1388 -0.0341  0.3400
 4665W        W20799   6.665   8.225   2.892 -0.0709 -0.0091  0.1024
 4666W        W20800  11.888  14.789  13.393 -0.0091  0.0959 -0.1604
 4667W        W20801  14.450  14.577   3.123 -0.1190 -0.1505  0.1381
 4668W        W20802   1.066  13.538  14.946  0.0901  0.2286 -0.0778
 4669W        W20803   1.528  17.244   3.066 -0.3535  0.0721  0.0361
 4670W        W20804  11.891   4.105  12.937 -0.0738  0.0289 -0.2060
 4671W        W20805   1.330   6.158   1.279  0.0489 -0.0823 -0.2820
 4672W        W20806   9.817  17.172   2.831  0.0482 -0.2348  0.1044
 4673W        W20807  18.495  12.366   3.348 -0.3037 -0.3542  0.2226
 4674W        W20808   9.250   1.884   5.547 -0.1145 -0.3526  0.0369
 4675W        W20809   3.304  11.415   4.378  0.0358  0.1569  0.3618
 4676W        W20810  18.096   9.924  12.729  0.0244  0.0864 -0.1278
 4677W        W20811  13.029   1.798   0.625  0.1718 -0.2237 -0.0196
 4678W        W20812   8.321  10.236   2.811 -0.1252  0.0094 -0.0086
 4679W        W20813  12.413  15.264   4.348  0.0691  0.1554 -0.0488
 4680W        W20814  12.260  13.368   3.651 -0.2897  0.1039 -0.1299
 4681W        W20815  15.645   8.079  13.738 -0.0872 -0.0581  0.0527
 4682W        W20816   5.339   8.363   0.456  0.2035 -0.1843 -0.4515
 4683W        W20817   4.219   7.436   3.292 -0.3463  0.0507  0.0405
 4684W        W20818  18.432   5.143   4.611 -0.0681  0.2062  0.4307
 4685W        W20819   1.149   5.238  14.143 -0.1513  0.0892 -0.1914
 4686W        W20820   4.326  14.875  14.057 -0.2180 -0.1909  0.3013
 4687W        W20821  13.943   8.818  12.254  0.1477 -0.0624 -0.0268
 4688W        W20822   0.142   1.206   2.069  0.0657 -0.0573  0.0960
 4689W        W20823   2.206   6.971  10.927  0.0566  0.2250 -0.2022
 4690W        W20824  16.327  18.668  12.092  0.0017 -0.0184 -0.1693
 4691W        W20825   6.213  12.120   3.436  0.0984 -0.0665  0.3123
 4692W        W20826  13.468  13.815  15.189  0.0504 -0.2229 -0.0242
 4693W        W20827   1.999  14.035  10.680 -0.1961  0.4889 -0.1034
 4694W        W20828   0.754   2.274   3.898 -0.2518  0.1719  0.0291
 4695W        W20829  12.015   9.278  12.654  0.3773 -0.1517  0.0299
 4696W        W20830  18.224   4.418   0.964 -0.0032 -0.2249  0.0872
 4697W        W20831  18.748  15.028   2.298  0.3039 -0.2359  0.0660
 4698W        W20832  16.385   2.339   4.849  0.0919  0.0441  0.2640
 4699W        W20833   2.452  12.551  10.670 -0.1739  0.1670 -0.1291
 4700W        W20834  11.968  10.020   0.353  0.0087 -0.0391 -0.0913
 4701W        W20835  17.853   6.347   3.325  0.0038  0.0460 -0.2388
 4702W        W20836  10.926  18.663  11.258 -0.1617  0.1084  0.2301
 4703W        W20837   8.447  17.832   2.183  0.1974 -0.2957 -0.2306
 4704W        W20838  15.371   6.561  11.308 -0.0805 -0.0876  0.2892
 4705W        W20839  11.455   8.090   3.210  0.0099 -0.0491 -0.0205
 4706W        W20840   6.480   8.240  12.007  0.0598 -0.0217 -0.2078
 4707W        W20841   0.137  13.330  14.619  0.1738  0.0270  0.0585
 4708W        W20842  10.171  11.658   3.455  0.3155 -0.0940  0.1954
 4709W        W20843   1.417   8.062  11.341  0.1265  0.4071  0.2798
 4710W        W20844  17.436  14.907  13.364 -0.0651  0.3110  0.0239
 4711W        W20845   1.896  17.187  14.268 -0.0306  0.0726 -0.0229
 4712W        W20846  12.337  18.986  11.267  0.1050 -0.1272 -0.1038
 4713W        W20847  15.246   2.323   2.643 -0.0755  0.0017 -0.0104
 4714W        W20848  18.698  11.872   5.311 -0.0179  0.2564 -0.0814
 4715W        W20849  14.057   3.343   2.551  0.1799 -0.2415 -0.0407
 4716W        W20850  16.321  17.532  11.204  0.2104  0.0575  0.2637
 4717W        W20851   4.945   0.713  10.628  0.0591 -0.0164 -0.0260
 4718W        W20852  13.820   7.238   1.690 -0.3160 -0.1178  0.2603
 4719W        W20853  11.940  18.470  10.604  0.1030  0.1285 -0.0118
 4720W        W20854   8.076  17.184  12.059  0.0301 -0.0067  0.3318
 4721W        W20855   9.338  18.704   1.364  0.1148  0.0513  0.1860
 4722W        W20856   3.737  11.928   2.550  0.0693  0.0400 -0.1255
 4723W        W20857  14.214  11.042   2.584  0.0075  0.2063  0.1641
 4724W        W20858  10.397   1.125   1.474  0.1009 -0.1792  0.2092
 4725W        W20859  11.977   8.220  10.830  0.2604  0.0482 -0.2088
 4726W        W20860   9.940  13.507   3.997  0.2658  0.1890  0.3610
 4727W        W20861   3.807   6.315   0.785 -0.4269 -0.2193 -0.0158
 4728W        W20862  17.404  17.734   2.257  0.0859 -0.1689  0.0413
 4729W        W20863  10.476   1.642   3.095  0.4958  0.0914  0.1533
 4730W        W20864  17.974  16.897  13.359 -0.3200 -0.0489 -0.1170
 4731W        W20865  18.851  11.470  10.880  0.0066  0.2610  0.2141
 4732W        W20866   1.060  14.100  13.349 -0.0905  0.2976 -0.0544
 4733W        W20867  11.624   5.339  10.073  0.3079  0.2062 -0.1768
 4734W        W20868   7.418  14.944  14.451  0.0290  0.1297  0.0346
 4735W        W20869   4.072  14.382  12.458 -0.0465  0.0205  0.0212
 4736W        W20870   9.183   5.220  11.800 -0.0625 -0.1047 -0.1143
 4737W        W20871  19.149   0.764  13.321  0.0884  0.0672 -0.2502
 4738W        W20872  17.767   7.619  15.192  0.0105  0.0729  0.2788
 4739W        W20873   1.387  11.670  12.648  0.1293 -0.1878 -0.0971
 4740W        W20874  10.759  13.721   4.502 -0.2381  0.0747 -0.2302
 4741W        W20875   3.671   9.362  12.997 -0.2948 -0.2179  0.0872
 4742W        W20876   9.111   7.642  14.626  0.2317 -0.0916  0.4142
 4743W        W20877   1.499  16.873  11.184 -0.0736  0.1452  0.1201
 4744W        W20878   7.335   6.587  14.359  0.1940 -0.0174 -0.1837
 4745W        W20879   7.654  14.992  13.623 -0.1050 -0.1413  0.0660
 4746W        W20880  13.475   7.175  11.013 -0.2180  0.0589  0.0882
 4747W        W20881  18.896   9.457  14.078  0.0232  0.2878  0.1166
 4748W        W20882   6.940   0.043  12.656  0.4588  0.2500  0.1004
 4749W        W20883   1.648   8.782   0.583  0.1335 -0.0100 -0.0882
 4750W        W20884   5.515   3.847  13.718  0.2964 -0.0245  0.3424
 4751W        W20885   6.188   2.258   4.879  0.1218  0.0306 -0.0221
 4752W        W20886  12.327   3.336   2.210 -0.0583  0.1104 -0.0151
 4753W        W20887   9.509  13.156   9.669 -0.1662  0.1139 -0.1819
 4754W        W20888   4.650   2.417   0.877 -0.1265  0.2168  0.1558
 4755W        W20889  16.091   7.571  13.489  0.0851  0.0581  0.1173
 4756W        W20890  12.752  16.033   4.866 -0.0017  0.1738  0.0856
 4757W        W20891  10.515   4.338  15.011 -0.1851 -0.5095 -0.0248
 4758W        W20892   6.704   2.983   0.627  0.3257 -0.0283  0.1964
 4759W        W20893   4.016   9.185   1.084  0.0719 -0.1190 -0.4137
 4760W        W20894   2.282   1.737  10.363  0.0288 -0.3563 -0.1553
 4761W        W20895   0.241  18.451  14.046 -0.2052 -0.2379 -0.2421
 4762W        W20896   6.602   5.336   1.481 -0.0746 -0.2188  0.1279
 4763W        W20897  14.797   2.517  13.824  0.1233 -0.0345  0.0842
 4764W        W20898   5.325   5.716  12.603  0.0163 -0.2852 -0.0759
 4765W        W20899   8.394   2.928  12.922  0.1236  0.0140 -0.1210
 4766W        W20900  13.258  12.052   0.490  0.0136 -0.1949 -0.0036
 4767W        W20901  14.412   5.424   0.343  0.1063  0.1859  0.2005
 4768W        W20902   9.617   2.404   0.323  0.1950 -0.1726  0.0865
 4769W        W20903  16.224   1.176   3.965 -0.0735  0.0346  0.0890
 4770W        W20904  14.106  14.170  12.786  0.3281 -0.0769 -0.0839
 4771W        W20905   3.567  16.382   4.484 -0.0531 -0.2991 -0.2044
 4772W        W20906   9.456  11.974   3.129  0.1433  0.2186  0.0901
 4773W        W20907  16.250  10.954   1.304  0.0612  0.0279 -0.0613
 4774W        W20908  17.833  15.503   4.935  0.0938  0.1839  0.0480
 4775W        W20909   0.181   4.067   1.977  0.0690 -0.4565 -0.1379
 4776W        W20910   7.783  12.773  14.273  0.1688 -0.1412  0.3904
 4777W        W20911   8.907   3.898  11.552  0.2178  0.0819  0.0495
 4778W        W20912  11.121   5.687   2.051 -0.1350  0.3060  0.2010
 4779W        W20913  12.040   7.669   4.065 -0.3147  0.2902  0.0693
 4780W        W20914   6.685  17.966   1.643 -0.1012 -0.0186 -0.1106
 4781W        W20915  16.592  10.310   4.262  0.1928 -0.0310  0.0821
 4782W        W20916   2.668  18.855  11.321 -0.0538 -0.0452 -0.0006
 4783W        W20917  12.469   9.914  13.992  0.1344  0.5047  0.2027
 4784W        W20918  13.295   9.907  11.649 -0.2999  0.2630  0.0367
 4785W        W20919   7.864  17.735  13.282 -0.3143 -0.1306 -0.1015
 4786W        W20920  17.576  10.499   0.681 -0.0093  0.4745  0.4033
 4787W        W20921   2.494  11.062   3.994  0.0566  0.0323 -0.1390
 4788W        W20922  11.012  10.555  11.623 -0.1035  0.2066  0.3153
 4789W        W20923  17.434   7.167   0.690  0.0479  0.0520  0.2169
 4790W        W20924   5.480  10.187  12.991  0.0318  0.1635 -0.0981
 4791W        W20925  10.592   7.410  13.405 -0.1617  0.2997  0.0871
 4792W        W20926   2.080   7.972   1.150 -0.2515 -0.1111 -0.0462
 4793W        W20927  12.573  18.995   1.310 -0.4338 -0.0635  0.1369
 4794W        W20928  11.747   2.786   4.089  0.0209  0.3142  0.2630
 4795W        W20929   7.717  15.633   3.139 -0.0134 -0.0760 -0.1291
 4796W        W20930  14.382   9.578   2.121 -0.0007  0.3301 -0.1794
 4797W        W20931  11.016  10.124  14.045  0.0329  0.0240 -0.2110
 4798W        W20932   7.870  17.723  12.056  0.1234  0.0939  0.2814
 4799W        W20933   5.304  18.258  14.930  0.1728  0.0009 -0.4409
 4800W        W20934   8.568   6.576  14.079  0.1883 -0.2913 -0.1917
 4801W        W20935  16.185   0.310   3.807  0.0019  0.0922  0.1396
 4802W        W20936  16.179   0.742  14.125 -0.0926 -0.0140 -0.0858
 4803W        W20937   2.167  16.455  11.419 -0.0415  0.1226  0.1591
 4804W        W20938  16.750   9.785   0.684  0.0907  0.0660 -0.0197
 4805W        W20939   2.791   0.785  14.993  0.4967  0.5917  0.0094
 4806W        W20940  14.729  17.425   4.973  0.1733  0.0257  0.0515
 4807W        W20941   6.246   3.855   2.642  0.0505 -0.1629 -0.1196
 4808W        W20942   3.148  10.423  12.143  0.0431  0.0323  0.4817
 4809W        W20943  10.073  19.128  12.761 -0.0344  0.1200 -0.1510
 4810W        W20944  12.321  12.761  13.031  0.0941 -0.0598 -0.0638
 4811W        W20945   5.050   1.572  10.331 -0.0534 -0.1560 -0.1981
 4812W        W20946  15.399  18.639  11.755  0.0592 -0.0710  0.0274
 4813W        W20947  10.366  18.628  10.329  0.1592  0.2838 -0.2535
 4814W        W20948   8.436   9.030   3.433 -0.0203 -0.0720 -0.0829
 4815W        W20949  13.138  13.126   2.710 -0.2323 -0.2535 -0.3100
 4816W        W20950   4.430   8.327   3.565 -0.3099 -0.0495 -0.1191
 4817W        W20951  16.723   5.843   1.913 -0.2402  0.0753  0.1885
 4818W        W20952   2.377   3.921  13.057  0.0329 -0.2158  0.0568
 4819W        W20953  12.322  16.134  14.896  0.1276 -0.2442 -0.1408
 4820W        W20954  12.991   7.472  13.576  0.3154  0.1037 -0.0953
 4821W        W20955   7.004   5.337  12.971 -0.1022 -0.0001 -0.1006
 4822W        W20956  15.145   3.293  13.929 -0.3503  0.0287 -0.2334
 4823W        W20957  13.267  18.117   2.968  0.1130  0.4977  0.1499
 4824W        W20958   3.407   4.603   1.555 -0.2913  0.0361 -0.1363
 4825W        W20959   1.203  15.689  10.860 -0.0904 -0.1131  0.1659
 4826W        W20960  13.250   2.995   1.114  0.0690 -0.3137 -0.0735
 4827W        W20961  14.316  18.459  11.150 -0.1404 -0.0138 -0.1119
 4828W        W20962  13.443  13.198   4.999 -0.2157 -0.0537 -0.0781
 4829W        W20963   4.157   4.101  11.216 -0.0607  0.1912  0.2728
 4830W        W20964   5.282  16.306   5.030 -0.1176  0.4529 -0.1290
 4831W        W20965   0.087   7.023  12.229 -0.1375 -0.2931 -0.1180
 4832W        W20966  14.740  16.375  10.942  0.1048 -0.3248  0.1766
 4833W        W20967   0.734   9.394  14.038 -0.0331 -0.1469  0.2793
 4834W        W20968   8.113   3.601  11.168  0.1334  0.2611 -0.1674
 4835W        W20969   2.728  15.787   0.041 -0.1994 -0.0564  0.1085
 4836W        W20970  12.595  15.846  12.751 -0.0808 -0.0306 -0.1414
 4837W        W20971  12.982   7.362   0.466  0.3535  0.1680  0.1019
 4838W        W20972   9.960   3.136  10.422 -0.1309 -0.2228  0.3201
 4839W        W20973  16.044  18.413  12.394  0.2861  0.3029 -0.3770
 4840W        W20974  17.829  17.941   3.783 -0.0011  0.2065  0.1176
 4841W        W20975  11.945  13.158   5.669 -0.1874  0.1093  0.3022
 4842W        W20976   8.307  17.253  14.141  0.3006  0.1746 -0.2404
 4843W        W20977  17.187   1.164   3.046 -0.0513 -0.2143  0.2284
 4844W        W20978   4.817   8.326   0.386  0.0849  0.0945  0.0141
 4845W        W20979   0.248   1.376   5.513  0.0366 -0.0485  0.0631
 4846W        W20980  13.328  10.295  10.803 -0.0645 -0.0974 -0.1075
 4847W        W20981  17.578   0.860   3.838  0.0286  0.2167 -0.0386
 4848W        W20982  13.544  12.211  10.690  0.1180 -0.1610 -0.1601
 4849W        W20983   2.888  16.932  11.378 -0.1730  0.2776 -0.2034
 4850W        W20984  14.040  18.537  13.890 -0.2211 -0.0511  0.0745
 4851W        W20985  18.653   6.599   5.338  0.4282 -0.0912  0.0701
 4852W        W20986   6.504   8.327  14.919 -0.2815  0.1777  0.1867
 4853W        W20987   2.863  11.241   0.474  0.4093  0.1196  0.2932
 4854W        W20988  17.262   2.392   2.231  0.0628  0.2431  0.2268
 4855W        W20989  17.430   6.547  11.852 -0.1176  0.0134 -0.1755
 4856W        W20990   6.385  13.244  13.213 -0.1576  0.1639 -0.1167
 4857W        W20991   0.551  13.750   2.885  0.1891  0.1867  0.2859
 4858W        W20992   2.174   2.412   3.114  0.0807 -0.0655 -0.2056
 4859W        W20993   3.262   3.133  14.056  0.0523 -0.2333  0.1617
 4860W        W20994   4.845  11.694  11.425 -0.4596 -0.0846  0.0398
 4861W        W20995   6.644   7.105   2.611  0.0391  0.0456 -0.3983
 4862W        W20996  13.772  18.078   2.729  0.2212  0.0166 -0.0566
 4863W        W20997  13.996   0.506  11.980  0.4171 -0.1392  0.1244
 4864W        W20998  12.038   7.311   3.238 -0.2231  0.0559 -0.0124
 4865W        W20999   7.145   6.084   2.322  0.0979 -0.3026  0.1322
 4866W        W21000   4.398   9.879   1.376 -0.3272  0.0467  0.1163
 4867W        W21001  14.427   8.942   0.652  0.0340  0.0955 -0.0026
 4868W        W21002  12.207   3.155   2.680 -0.3434 -0.1284 -0.2088
 4869W        W21003  15.511  15.324   1.629  0.0884 -0.0309 -0.1983
 4870W        W21004  10.925   9.328   1.619 -0.1578 -0.1916  0.2310
 4871W        W21005  12.020  13.985  14.895  0.2427 -0.0404  0.4651
 4872W        W21006   4.078   3.772  10.295 -0.0606  0.0873  0.2555
 4873W        W21007   9.349  16.428  15.177 -0.1406  0.1692 -0.0141
 4874W        W21008  12.863  17.321  15.010 -0.3907 -0.5751 -0.3098
 4875W        W21009  17.952   0.161  14.733  0.0574 -0.0420 -0.0528
 4876W        W21010   6.448  16.581  10.974 -0.0977 -0.4669 -0.0297
 4877W        W21011   7.591   1.876   1.822  0.0761  0.2650 -0.1914
 4878W        W21012  12.310   9.413  11.197  0.2393 -0.1474  0.0691
 4879W        W21013  11.370  17.214   4.609  0.1119  0.1742 -0.0800
 4880W        W21014   1.566   8.963   4.484 -0.2001  0.0010  0.2237
 4881W        W21015   5.718   4.729   1.086 -0.0018  0.2266 -0.2379
 4882W        W21016   1.824  10.619   0.771 -0.1450 -0.1269  0.1166
 4883W        W21017   9.611  17.068  12.935 -0.0164  0.0312 -0.1169
 4884W        W21018  14.472   6.777  11.988  0.2892  0.3350 -0.4508
 4885W        W21019  10.905  15.237   0.036  0.2097 -0.0970  0.2588
 4886W        W21020   8.051   5.845   3.643 -0.1529 -0.0952  0.2980
 4887W        W21021  12.695   5.069  11.928 -0.1969 -0.1282  0.1112
 4888W        W21022   0.815  15.387  10.593 -0.3149  0.1047  0.0066
 4889W        W21023  11.877  11.575   0.424 -0.2385  0.0825  0.0059
 4890W        W21024   6.091   8.864   5.263 -0.1807 -0.2624 -0.3903
 4891W        W21025  15.774   3.810   2.469 -0.3830  0.3512  0.3349
 4892W        W21026  10.543   8.121   1.288  0.1223 -0.3919 -0.1482
 4893W        W21027  10.447   5.358  12.384 -0.2161  0.2565  0.1982
 4894W        W21028  15.410  18.269  13.729 -0.0069  0.0564  0.0933
 4895W        W21029  16.590  10.575  11.005 -0.0905 -0.2468  0.0420
 4896W        W21030  11.586   6.363   6.091  0.0917  0.0224  0.0306
 4897W        W21031  11.579   0.820   0.913 -0.0218  0.2234  0.0382
 4898W        W21032   1.947  14.943  11.134  0.4304  0.1113  0.2484
 4899W        W21033  12.358   2.723   1.314 -0.0015  0.1268  0.0097
 4900W        W21034  15.269  12.170  15.140 -0.0148 -0.3157  0.2972
 4901W        W21035  13.996   2.298   1.903  0.2365 -0.1904  0.2111
 4902W        W21036   7.225   0.803  10.455  0.1465  0.0803  0.0509
 4903W        W21037   3.788   7.297  12.587 -0.1802 -0.0835  0.3117
 4904W        W21038  11.952  19.056   2.498  0.2070  0.2430  0.0065
 4905W        W21039   8.789   7.082   2.566  0.1708 -0.0892  0.2172
 4906W        W21040  17.602  16.392   0.829  0.1156 -0.1002  0.0497
 4907W        W21041   2.126  17.350   1.972  0.0039 -0.2102 -0.0400
 4908W        W21042  12.430   5.775   5.426  0.2152  0.1542  0.2517
 4909W        W21043  18.778  16.506   4.524  0.0153 -0.1136 -0.0685
 4910W        W21044   9.731   5.887   2.980  0.0551 -0.6704 -0.0430
 4911W        W21045   1.652  12.976  12.516  0.0210 -0.2116  0.3073
 4912W        W21046  18.450   9.148   1.210  0.1098 -0.0427  0.1203
 4913W        W21047   8.039   4.474  12.854 -0.2445 -0.0532 -0.3601
 4914W        W21048   1.867   9.845   9.930  0.0735 -0.3928  0.0443
 4915W        W21049   3.002  16.171   1.571 -0.3888  0.3173  0.0451
 4916W        W21050   2.173  14.061   2.275  0.4824  0.1765  0.0589
 4917W        W21051  12.361  12.100   1.130 -0.0756  0.2063 -0.1775
 4918W        W21052  17.062   0.515  14.956 -0.1446  0.1773  0.1671
 4919W        W21053   6.535   0.880   4.249 -0.0060  0.0461  0.1538
 4920W        W21054   7.722  15.799  13.277 -0.2935 -0.2926  0.2116
 4921W        W21055   8.080   6.839   3.182  0.0734  0.3562  0.4396
 4922W        W21056  18.210   3.887   1.092  0.0689 -0.1894  0.2383
 4923W        W21057  17.695   1.950   3.726 -0.0910 -0.3976 -0.2123
 4924W        W21058  18.378  14.922  14.222 -0.0401  0.0927  0.1773
 4925W        W21059   5.173   3.607  12.146  0.2042 -0.0023 -0.1366
 4926W        W21060  13.742  15.786  13.183  0.2881  0.1022  0.0194
 4927W        W21061   0.065  11.489   2.838 -0.0604  0.1083  0.2172
 4928W        W21062   5.629  14.511  11.215 -0.0533  0.2319 -0.0700
 4929W        W21063  16.906  15.688   3.083  0.1106 -0.0122  0.1097
 4930W        W21064   3.072  12.312  11.269  0.0273 -0.2271  0.0668
 4931W        W21065  11.208   1.009   1.140  0.2383 -0.0526 -0.0159
 4932W        W21066  11.389   4.925   2.176  0.1504  0.1982 -0.0754
 4933W        W21067   0.928  12.016   1.224  0.0235  0.1900 -0.1452
 4934W        W21068  11.577   4.814  11.343  0.1942  0.2780  0.0740
 4935W        W21069   8.701   0.768  11.004 -0.1224  0.1739 -0.0965
 4936W        W21070  11.267   9.772  10.956  0.0700  0.0657  0.1467
 4937W        W21071   2.886   8.435   4.187 -0.3128  0.0536 -0.1619
 4938W        W21072   0.631  18.499  13.060  0.0540 -0.0222 -0.0399
 4939W        W21073   5.897  12.113  14.622  0.2147 -0.1179  0.1509
 4940W        W21074   2.770   1.729  10.481 -0.0583 -0.0813  0.0575
 4941W        W21075  10.085  11.091  12.184 -0.1828  0.0572  0.3082
 4942W        W21076  13.474  17.357   2.307  0.0125  0.0451  0.1908
 4943W        W21077  15.247   1.880  11.013  0.0262  0.1832 -0.3625
 4944W        W21078   4.600   8.520   5.025 -0.1459 -0.0446 -0.2262
 4945W        W21079   1.108   6.706   1.460 -0.0211  0.2344  0.0952
 4946W        W21080   7.728  18.503  12.701  0.0193 -0.1013  0.1178
 4947W        W21081   6.127  15.121   1.677  0.2218  0.3198  0.1149
 4948W        W21082  13.522   6.591  10.785 -0.1190 -0.1998  0.3603
 4949W        W21083   4.365  18.009  13.845 -0.1830 -0.0285  0.2854
 4950W        W21084  14.921   3.281  10.920 -0.3426 -0.0667 -0.2584
 4951W        W21085  11.477  18.167  13.258 -0.1102  0.1414 -0.0882
 4952W        W21086  15.256   6.302  13.038  0.0429 -0.3190 -0.2094
 4953W        W21087   0.948  14.684  12.664  0.1329 -0.0369 -0.4201
 4954W        W21088  16.760  14.971   1.779  0.0402 -0.0932  0.0397
 4955W        W21089  12.744  16.392   2.031  0.0710  0.2017  0.1968
 4956W        W21090  18.166  16.115   2.686  0.3861 -0.0354 -0.1957
 4957W        W21091  14.408  10.948   1.864  0.0361  0.1361 -0.1568
 4958W        W21092  14.253   4.017   4.299 -0.1028 -0.2863 -0.3866
 4959W        W21093  17.282  16.191   5.066  0.1492  0.0765  0.1456
 4960W        W21094  16.046  17.523  12.420 -0.0274  0.2141  0.0954
 4961W        W21095   1.650  16.353   4.267 -0.0727  0.1656 -0.1864
 4962W        W21096   9.884  10.429  14.276  0.2326  0.1227  0.0068
 4963W        W21097   4.339   2.711   1.166 -0.0679  0.1294 -0.0594
 4964W        W21098   6.760   4.591   2.208 -0.3028  0.1521 -0.3025
 4965W        W21099   9.152   6.183  14.159  0.0157 -0.2806 -0.0479
 4966W        W21100  13.022   6.509  11.048  0.0393 -0.1149  0.0845
 4967W        W21101   6.792  16.975   1.421  0.3137 -0.0795  0.1136
 4968W        W21102  10.000  16.856   3.118  0.0965 -0.2009 -0.0923
 4969W        W21103  17.368   5.263   2.728  0.0824 -0.2310  0.3059
 4970W        W21104   4.940  11.163   0.785  0.1655  0.0959  0.3936
 4971W        W21105   9.563   7.040  11.545 -0.3448 -0.2904 -0.1508
 4972W        W21106   3.467  11.566  10.932 -0.0060  0.0105 -0.2962
 4973W        W21107   7.331   1.522   1.046  0.2294  0.3474 -0.1555
 4974W        W21108  11.143  18.925  10.832 -0.0869  0.0447  0.0683
 4975W        W21109  16.821  13.812   2.750  0.2994  0.1498 -0.1363
 4976W        W21110  11.203  17.787  13.523 -0.0752 -0.0947 -0.1902
 4977W        W21111  12.436   7.195  11.700  0.0504 -0.2720  0.2690
 4978W        W21112  16.028  19.146  10.620 -0.1260  0.2399  0.1822
 4979W        W21113   4.898  16.724   1.701  0.0143  0.2870 -0.3587
 4980W        W21114   5.150   3.438   3.272  0.0107 -0.0830  0.0427
 4981W        W21115   0.308  15.364  15.105 -0.1108  0.1406  0.2259
 4982W        W21116   0.717   9.808  14.361 -0.4415 -0.1678 -0.2629
 4983W        W21117   0.803   0.971   4.847 -0.1035 -0.1688 -0.0061
 4984W        W21118   8.670  15.513   3.613  0.2555 -0.0262 -0.0056
 4985W        W21119  18.565   1.793   0.649 -0.3990 -0.0909  0.0062
 4986W        W21120  11.537   7.919  12.404 -0.3478 -0.0564  0.1279
 4987W        W21121  11.316   6.081   5.777 -0.1321 -0.0291  0.2963
 4988W        W21122  11.171  15.413  11.596 -0.1181  0.2169 -0.1090
 4989W        W21123   2.076   9.701   0.783  0.1396  0.2334 -0.0520
 4990W        W21124  11.727   7.472   2.434  0.2422  0.0475  0.1397
 4991W        W21125   9.533  16.127  14.057 -0.0124  0.0298 -0.0572
 4992W        W21126  11.930  12.002  11.995  0.0170 -0.1384 -0.2827
 4993W        W21127   0.432  11.987  12.436 -0.0688  0.0021 -0.0981
 4994W        W21128  17.382  15.629  12.790  0.0444 -0.0969  0.2681
 4995W        W21129   4.140  17.569   3.809 -0.1698  0.5841 -0.2798
 4996W        W21130   4.093   5.938   0.515  0.1023 -0.2494  0.1025
 4997W        W21131  17.364   6.649  15.003 -0.0737  0.0139  0.2994
 4998W        W21132  10.096   0.382   9.858  0.2072 -0.0005  0.0965
 4999W        W21133  10.137  11.106  11.689  0.0174 -0.0891  0.0181
 5000W        W21134  11.879   0.126   5.561 -0.1990  0.4363  0.0673
 5001W        W21135   3.813  18.248  12.074 -0.0775 -0.1404  0.1089
 5002W        W21136   6.234  16.219   0.827  0.3349  0.0608  0.0931
 5003W        W21137   2.862   3.207   2.055 -0.0612  0.0013  0.0889
 5004W        W21138  11.295  17.392  11.026  0.0331 -0.2840 -0.0901
 5005W        W21139  12.099   7.412  14.143  0.1338 -0.0551  0.3888
 5006W        W21140   1.720  15.434  10.947 -0.0273  0.2065  0.0757
 5007W        W21141   7.955  17.038  15.134 -0.0417  0.0264 -0.0406
 5008W        W21142   0.131  11.991  14.771 -0.0121  0.4686  0.2112
 5009W        W21143   7.861  14.134  11.819 -0.2597  0.1975 -0.3592
 5010W        W21144  19.011  11.541  14.633 -0.0851 -0.0516 -0.3187
 5011W        W21145   4.015   5.059   1.468 -0.2380 -0.0447 -0.1275
 5012W        W21146  14.366   4.306  12.776 -0.1659 -0.3218 -0.0923
 5013W        W21147  10.341   4.200   3.091 -0.0823 -0.0844 -0.3129
 5014W        W21148   5.277  12.824   1.871  0.2050 -0.3954 -0.0101
 5015W        W21149  15.980   8.606   3.399  0.4189  0.1932  0.1716
 5016W        W21150  15.914  10.270  14.743  0.0269 -0.3159  0.2864
 5017W        W21151   2.154   4.848  11.536  0.0938  0.3699 -0.1255
 5018W        W21152  19.018   5.240  13.545  0.1734 -0.1014 -0.0498
 5019W        W21153   0.890  15.726   5.150 -0.0556  0.0166  0.2805
 5020W        W21154  15.081   3.572  12.609 -0.4279 -0.2079 -0.1235
 5021W        W21155  15.681  13.596   0.906  0.1015 -0.0316 -0.0193
 5022W        W21156   9.546   9.928  11.001 -0.0323  0.2242 -0.0278
 5023W        W21157  12.528   4.609   1.505  0.1997  0.2989 -0.3973
 5024W        W21158   2.421   1.385   2.239 -0.2654 -0.1711  0.1922
 5025W        W21159   4.380   4.501  10.735 -0.1040  0.0073  0.1947
 5026W        W21160  15.524   6.429   0.887  0.1752  0.2610 -0.0204
 5027W        W21161   7.567  14.157   2.295  0.1125 -0.1065  0.0533
 5028W        W21162   7.564  14.895  10.785 -0.0395 -0.1850 -0.1120
 5029W        W21163   4.433   0.473  11.674  0.0395 -0.0848  0.1550
 5030W        W21164  11.214  17.525  12.656 -0.1659  0.2267  0.0759
 5031W        W21165   7.351   4.187   0.960 -0.1107 -0.2656 -0.1990
 5032W        W21166   3.352   6.659  13.606 -0.4152 -0.3682 -0.1872
 5033W        W21167   1.183   6.506   0.966 -0.2806 -0.0166  0.0960
 5034W        W21168   9.820   2.745  10.951  0.0958 -0.1077 -0.2566
 5035W        W21169  12.186  17.171   0.144  0.0391  0.3716 -0.0437
 5036W        W21170   3.503  12.513  12.749 -0.1999  0.0666  0.1169
 5037W        W21171   4.000  18.841   2.318 -0.2517 -0.0013  0.1080
 5038W        W21172   5.642   2.172   2.588 -0.0398  0.0166  0.0192
 5039W        W21173  15.364  10.123  12.808 -0.0212 -0.0447  0.4955
 5040W        W21174  10.505  18.696   2.613  0.0164  0.2028  0.0474
 5041W        W21175   2.619   1.068  14.625 -0.0279 -0.3411  0.0739
 5042W        W21176   0.234   0.133  13.949 -0.1054 -0.1369 -0.0445
 5043W        W21177   9.511  17.764   2.211  0.0743  0.0033  0.0237
 5044W        W21178   3.149  10.456  11.068 -0.3414 -0.0005 -0.0090
 5045W        W21179   4.531   3.737  14.318 -0.1641  0.1979 -0.0578
 5046W        W21180   6.205  16.700  11.561 -0.1490  0.1322  0.0397
 5047W        W21181   3.552  10.672   3.401  0.2025 -0.0233 -0.0120
 5048W        W21182   2.568   5.813   0.051  0.0229  0.1002  0.2101
 5049W        W21183  13.578  12.435   3.967 -0.2099 -0.0944  0.0637
 5050W        W21184  16.833   2.975   3.409 -0.0939  0.0963  0.0260
 5051W        W21185  12.709   8.827   3.936 -0.2145  0.2978  0.2346
 5052W        W21186   6.799  11.700   3.978  0.1388  0.2031 -0.1102
 5053W        W21187   9.897  14.967  13.402 -0.1431 -0.1910  0.0675
 5054W        W21188  12.708  10.598   1.354  0.4199 -0.1724 -0.1645
 5055W        W21189   3.550   7.377  12.159 -0.1443  0.0027 -0.1211
 5056W        W21190   8.010   3.614   2.550  0.1767  0.2082 -0.1412
 5057W        W21191  12.575  15.230   2.786  0.1833  0.4375 -0.0521
 5058W        W21192  12.700   4.242  13.240  0.1008 -0.1394 -0.2090
 5059W        W21193   4.585  14.842  11.685  0.0089 -0.1393  0.1125
 5060W        W21194   3.979   6.892   0.574  0.1683 -0.1260 -0.4551
 5061W        W21195  16.029  13.139  10.193  0.1805 -0.0051  0.0448
 5062W        W21196   9.045  16.893  14.383  0.0450  0.2022  0.0268
 5063W        W21197   8.560  10.730   5.983  0.0320  0.0452  0.3304
 5064W        W21198   6.348  18.529  13.651 -0.1585  0.1167 -0.0696
 5065W        W21199  18.596   5.464  13.749 -0.0884  0.1086 -0.1993
 5066W        W21200  14.825   1.514  13.516 -0.2034  0.0904  0.2223
 5067W        W21201  13.594  16.712   2.999  0.3062  0.0681 -0.1843
 5068W        W21202   1.286   6.701   2.178  0.2166  0.2626  0.0196
 5069W        W21203  17.751  16.341   0.308 -0.0564 -0.0210 -0.1104
 5070W        W21204   9.126  13.151   3.589  0.0086 -0.0307 -0.2138
 5071W        W21205   4.965  17.837  12.639  0.0161  0.0764  0.1639
 5072W        W21206   2.317  13.476  10.790  0.2254 -0.3439  0.0869
 5073W        W21207   3.943  14.464   1.281 -0.4229 -0.2460  0.1626
 5074W        W21208   4.251  14.528  11.065  0.2242 -0.2273  0.0118
 5075W        W21209   2.345   7.561   4.497  0.1723 -0.1481 -0.2087
 5076W        W21210  17.094  15.341   1.034  0.0489 -0.0820 -0.1613
 5077W        W21211  17.398   9.286  10.559 -0.1186  0.0592  0.1548
 5078W        W21212  15.082  10.755  14.427 -0.2042 -0.2011 -0.5789
 5079W        W21213   4.521   8.015   0.615  0.0508 -0.0077  0.0824
 5080W        W21214  17.034   0.058  15.135  0.1938  0.0377  0.1880
 5081W        W21215  15.168   2.424  14.726  0.2359 -0.3987  0.0609
 5082W        W21216  13.121   1.749   2.274 -0.0208  0.1723  0.4315
 5083W        W21217   4.323  13.883   3.863  0.0941 -0.1287 -0.0384
 5084W        W21218  12.842   2.548  14.759  0.0413  0.0068  0.2586
 5085W        W21219  16.376  11.789  14.977  0.2133  0.2099 -0.1679
 5086W        W21220   4.732   1.280  11.279  0.0024  0.1805  0.2251
 5087W        W21221   3.226   0.129   1.522  0.2836  0.0657 -0.2438
 5088W        W21222   0.251  16.690  13.817  0.1166 -0.2658  0.3548
 5089W        W21223   8.598   0.521  14.963 -0.0635  0.1555 -0.0685
 5090W        W21224  19.097   4.881  15.145  0.0697  0.0037  0.0334
 5091W        W21225   7.392  18.859  12.608 -0.1314 -0.0283  0.3517
 5092W        W21226   3.030  14.636  13.829  0.2166  0.2326  0.0298
 5093W        W21227   4.060   7.259  13.042  0.4506  0.0297  0.0227
 5094W        W21228   7.362   7.777  13.954 -0.1450  0.1811 -0.0666
 5095W        W21229  10.846  14.707   0.793 -0.0729  0.0024  0.0292
 5096W        W21230  13.886   5.142   2.223 -0.1415  0.1761 -0.0115
 5097W        W21231  15.245   4.986   0.352 -0.1511 -0.2021  0.2412
 5098W        W21232  17.046  16.774   2.093  0.4027 -0.2619  0.0268
 5099W        W21233  16.221   4.103  11.474 -0.3480  0.0226 -0.0436
 5100W        W21234   6.624   6.243  13.132 -0.0971 -0.1437 -0.0595
 5101W        W21235  11.357   5.096  12.630  0.1093 -0.0935  0.0314
 5102W        W21236   0.408   9.511   2.451 -0.1190 -0.1557 -0.0241
 5103W        W21237  12.584  17.162   4.186  0.2061 -0.0944  0.1352
 5104W        W21238   8.514  17.945   0.625  0.1325 -0.1163 -0.1944
 5105W        W21239  11.419  17.650  15.097  0.0585 -0.3209  0.1326
 5106W        W21240   7.635  12.291  14.130 -0.0872 -0.0469 -0.0419
 5107W        W21241   7.154  16.302   5.936  0.2096 -0.1496  0.2318
 5108W        W21242  11.570  11.909   3.057 -0.0097 -0.1385 -0.4521
 5109W        W21243   4.045   6.500  13.437  0.1627 -0.1991 -0.0334
 5110W        W21244  14.806  15.108   4.755 -0.0300 -0.0839  0.1034
 5111W        W21245   1.613  12.979   1.942  0.0872  0.2195 -0.1205
 5112W        W21246   8.884  13.967  11.631  0.1784 -0.1144 -0.0281
 5113W        W21247   6.052  16.676   1.588 -0.2454  0.0967  0.0736
 5114W        W21248   1.947   3.620   2.881  0.1427  0.3021  0.1810
 5115W        W21249   3.941   6.899  10.063 -0.0216 -0.1424  0.1365
 5116W        W21250   9.635   4.911  14.022  0.1048  0.2568  0.0287
 5117W        W21251   6.523  14.045   4.990  0.2584  0.0199 -0.0893
 5118W        W21252   3.204   6.116  12.009  0.3773  0.2592  0.0748
 5119W        W21253   7.280   0.449   1.107 -0.1730  0.0288 -0.1444
 5120W        W21254  11.872   2.006   0.621 -0.2089 -0.1163 -0.1191
 5121W        W21255   1.192  12.387  13.502 -0.0989  0.3939 -0.0279
 5122W        W21256   8.027   7.918   2.673  0.1140  0.1683 -0.2148
 5123W        W21257   5.151  10.123  11.946 -0.1716  0.1968  0.0924
 5124W        W21258   1.617  18.481   1.255 -0.2250 -0.3348  0.0747
 5125W        W21259  18.130  11.723  14.002  0.0092  0.1452 -0.0426
 5126W        W21260   1.955  14.451   2.540  0.1303  0.4497  0.3982
 5127W        W21261  14.006  17.304   3.478  0.0039 -0.2855  0.6130
 5128W        W21262   8.744   4.000   1.468  0.0490 -0.0272 -0.0021
 5129W        W21263   2.264   2.842   3.749 -0.0005 -0.1297 -0.1567
 5130W        W21264   5.221   4.943  13.351  0.1813 -0.1578  0.0472
 5131W        W21265   7.019  17.509   1.718  0.2244  0.1700 -0.1069
 5132W        W21266   7.568  11.347  14.233 -0.2502 -0.4991  0.5724
 5133W        W21267  18.017  13.946   2.103 -0.0663 -0.1222  0.1142
 5134W        W21268   5.499   9.263  14.141  0.0975 -0.1116  0.0777
 5135W        W21269  15.943  17.274  11.969  0.0902  0.2323 -0.0742
 5136W        W21270   3.816   8.782   0.799 -0.0816  0.0309 -0.0090
 5137W        W21271  15.067   6.078  14.573 -0.0732 -0.1641  0.3997
 5138W        W21272  13.911  11.146   0.081  0.0806  0.1076  0.1630
 5139W        W21273   5.644  19.088  15.005 -0.0320 -0.0291  0.1342
 5140W        W21274   5.928  11.221  14.132  0.0353  0.1900 -0.2134
 5141W        W21275  16.767   9.257   1.410  0.2402  0.3161 -0.1080
 5142W        W21276  13.282  10.467  14.970 -0.0630  0.1630  0.1289
 5143W        W21277  13.485   7.472  13.821  0.2857 -0.2335 -0.2358
 5144W        W21278   7.066  16.193   0.697 -0.0334 -0.2822 -0.4033
 5145W        W21279   6.592  10.514  12.312 -0.0069 -0.0319 -0.4089
 5146W        W21280  10.901  16.224  14.456 -0.4060  0.2693  0.0092
 5147W        W21281   0.490   8.306   2.715  0.0085 -0.1580 -0.0463
 5148W        W21282   0.982  16.084  10.641 -0.2225  0.0505 -0.2363
 5149W        W21283  15.402  15.618   2.042  0.0880  0.0691 -0.0713
 5150W        W21284  13.493  16.291   1.520 -0.0863 -0.1118  0.4599
 5151W        W21285  11.706  10.512  11.162 -0.2306  0.1552 -0.1324
 5152W        W21286   6.991  12.256   4.465  0.1418 -0.1195  0.0734
 5153W        W21287  16.453  15.235   3.833 -0.0056 -0.1143  0.3775
 5154W        W21288  13.935   3.907  12.734 -0.1063 -0.1146 -0.2707
 5155W        W21289   6.884   6.308  12.293  0.1291  0.2906 -0.1390
 5156W        W21290  16.081   8.371  13.380  0.0512  0.0677  0.3328
 5157W        W21291   3.104   8.717   4.628  0.1490  0.0382 -0.2429
 5158W        W21292   7.061   0.042   4.228 -0.1007 -0.2589 -0.2188
 5159W        W21293  12.141   9.741  10.890  0.0264 -0.1617  0.0722
 5160W        W21294  15.483  12.885  14.530 -0.0585  0.2617 -0.1689
 5161W        W21295  17.513   5.647   3.066  0.3037  0.0499  0.0700
 5162W        W21296  12.508  16.958  14.933 -0.1011 -0.0011 -0.0245
 5163W        W21297   0.680  19.048   2.555 -0.2108  0.2966 -0.1071
 5164W        W21298  18.239  17.759   2.416  0.2169 -0.0764 -0.0330
 5165W        W21299   2.560  18.551   1.238 -0.1257  0.1109 -0.0679
 5166W        W21300   6.805   7.562   2.742 -0.1213  0.2101  0.2130
 5167W        W21301   7.846   3.731   0.090 -0.0050 -0.4712  0.0655
 5168W        W21302   9.148  12.999   3.086 -0.0706 -0.0827  0.0056
 5169W        W21303   8.261   6.402  10.710  0.3192 -0.0629  0.1721
 5170W        W21304  12.956  15.865  13.780  0.0807  0.0462  0.1079
 5171W        W21305  15.871  16.903   2.378 -0.1118 -0.2525 -0.0740
 5172W        W21306   2.493   9.384   0.760 -0.0534  0.3894 -0.1060
 5173W        W21307   6.297  17.424   5.777 -0.3511 -0.0218 -0.2858
 5174W        W21308   4.144   1.940  11.325 -0.3269 -0.0686 -0.0998
 5175W        W21309   8.652  15.863  11.490  0.1878 -0.3163  0.4966
 5176W        W21310   2.623   2.880   4.667  0.1001 -0.0343  0.4423
 5177W        W21311  18.649  11.947   4.848 -0.0033  0.1137  0.1368
 5178W        W21312  15.915  18.278  13.853  0.2259 -0.1260  0.4757
 5179W        W21313  14.175  16.392   2.873 -0.0183 -0.0160 -0.2234
 5180W        W21314   8.553   3.589  13.628 -0.1193 -0.1482  0.2858
 5181W        W21315  18.959   9.366   3.199 -0.3303  0.2080  0.4028
 5182W        W21316  18.372   2.928  12.022  0.1526 -0.5019 -0.0793
 5183W        W21317  10.805   1.158   0.303 -0.1150 -0.0702  0.0318
 5184W        W21318   6.088  10.608   0.804  0.0310  0.1979 -0.1932
 5185W        W21319  13.859  10.162   0.064 -0.1493 -0.4209  0.0771
 5186W        W21320   1.373  10.548  14.678  0.2311  0.0942 -0.2184
 5187W        W21321  12.322  12.378  14.494  0.2303 -0.0542  0.0068
 5188W        W21322  10.456  18.901  14.196  0.2455  0.0892 -0.0094
 5189W        W21323   6.489   9.355   4.115 -0.1272 -0.1865 -0.1157
 5190W        W21324  18.487  19.105  12.546  0.0339  0.0424 -0.2727
 5191W        W21325   6.893  13.075   0.227 -0.3152 -0.3613  0.3603
 5192W        W21326  14.610  18.073  14.847 -0.0958  0.3368 -0.0624
 5193W        W21327   2.082   6.497   1.109  0.1777 -0.0969  0.0731
 5194W        W21328  13.982  16.130   1.418  0.3334 -0.0365  0.0655
 5195W        W21329  17.498   3.933   2.139 -0.4978 -0.0931 -0.0587
 5196W        W21330  15.776  12.458   3.240  0.4261 -0.2449  0.1869
 5197W        W21331   7.507  15.241   3.376  0.2416  0.0279  0.3464
 5198W        W21332   8.383   3.860   4.016  0.1586 -0.1992 -0.1194
 5199W        W21333  18.666   4.499  11.212 -0.0872 -0.0467  0.2968
 5200W        W21334   1.914   2.989  14.933 -0.2249 -0.3604 -0.1642
 5201W        W21335   5.707  15.094  12.410  0.2388 -0.2111 -0.0493
 5202W        W21336   3.505  18.991   2.602  0.5247  0.1565 -0.0548
 5203W        W21337  11.852  15.598   0.540 -0.0792  0.3685  0.5172
 5204W        W21338   3.647  14.957  12.853  0.0142  0.2689 -0.0234
 5205W        W21339   4.731   7.202   3.552 -0.2585 -0.1437  0.0001
 5206W        W21340  18.226   2.726   4.853 -0.0894 -0.2062  0.1556
 5207W        W21341  16.651   6.973   4.719 -0.3470  0.1095  0.3250
 5208W        W21342   4.315  16.249   2.894 -0.0542 -0.0582 -0.1946
 5209W        W21343  12.312  12.624  10.446  0.0766 -0.0480  0.2307
 5210W        W21344  13.763  10.761  11.427  0.0808 -0.2208  0.0546
 5211W        W21345  11.078  19.039   4.320 -0.0333 -0.2562  0.0708
 5212W        W21346   6.652  14.828   2.476 -0.2495 -0.3998 -0.0576
 5213W        W21347   8.883   4.682   3.096 -0.0654 -0.0568 -0.1046
 5214W        W21348   0.305  17.940   1.990  0.0975 -0.2667  0.1403
 5215W        W21349  16.509   0.065   2.213 -0.0998  0.0663  0.0112
 5216W        W21350  13.207  15.528   4.177 -0.0961 -0.0239  0.0234
 5217W        W21351   8.241  17.133   0.585  0.0221  0.0113 -0.1785
 5218W        W21352   1.337  11.803   3.372  0.0898  0.2781 -0.0524
 5219W        W21353   8.287   2.053   2.539 -0.0444  0.1156  0.3833
 5220W        W21354   0.167   4.569   1.792  0.1182 -0.1139 -0.2544
 5221W        W21355   8.769  12.225  11.393 -0.2473  0.1774 -0.0203
 5222W        W21356   9.888   0.091   9.367 -0.0151 -0.0731 -0.0021
 5223W        W21357  13.886   8.324  10.939 -0.2493 -0.0525 -0.0298
 5224W        W21358   6.248  18.365   3.536 -0.1112  0.1277  0.2172
 5225W        W21359   8.833   1.600  14.388 -0.2032  0.1675  0.0902
 5226W        W21360   6.369   0.977   1.850  0.4673 -0.0413  0.1010
 5227W        W21361  12.236   0.933  14.832  0.1011 -0.1520 -0.2418
 5228W        W21362   1.429   1.834  12.475 -0.1528  0.2027 -0.2932
 5229W        W21363   1.075  18.845  13.118  0.0410  0.2236  0.0054
 5230W        W21364  15.623   0.947  14.687  0.2716 -0.2547 -0.0905
 5231W        W21365   6.010   8.065   3.047 -0.0561  0.0837  0.0195
 5232W        W21366  14.020  12.820   1.701  0.2641 -0.4230  0.1891
 5233W        W21367   4.338  18.598   0.533 -0.1633  0.2751  0.0876
 5234W        W21368   0.823  10.601   2.931 -0.0861 -0.1441  0.2926
 5235W        W21369   7.094   2.695   0.696 -0.3755 -0.1090 -0.1389
 5236W        W21370  10.018   4.209  14.264 -0.1001  0.2790 -0.0819
 5237W        W21371   1.990  15.983   3.540 -0.0172 -0.0288  0.2660
 5238W        W21372  10.405   0.363  12.591  0.1972  0.3900  0.2185
 5239W        W21373  18.786   5.934   4.602  0.2620 -0.6045 -0.2156
 5240W        W21374  17.281   1.967  12.204 -0.1803 -0.3078  0.1952
 5241W        W21375   6.781   6.499   3.316 -0.4039  0.3403  0.2954
 5242W        W21376  14.838  12.551  11.143 -0.1770  0.0402  0.1864
 5243W        W21377  10.572   0.547   0.697  0.0373  0.2248  0.0381
 5244W        W21378   7.760  16.191   3.117 -0.0880 -0.0329 -0.1306
 5245W        W21379  16.374   5.252   1.787  0.1459 -0.1194  0.2078
 5246W        W21380   3.872   8.226   4.527 -0.1409  0.4228  0.0418
 5247W        W21381   4.417   0.384   4.794 -0.1401  0.3009 -0.3377
 5248W        W21382   0.233  16.619   0.117  0.0804  0.1451 -0.4411
 5249W        W21383   4.244  10.589   0.222 -0.1210 -0.1552 -0.2426
 5250W        W21384  19.085   7.442   1.026 -0.0589  0.4181 -0.0404
 5251W        W21385   7.466  13.063   4.105  0.3764  0.2163  0.1551
 5252W        W21386  15.276  11.397   1.464 -0.1453 -0.0100  0.2329
 5253W        W21387  18.793   9.981  13.765  0.2631 -0.2815 -0.1953
 5254W        W21388   5.909   2.103  13.055  0.1336 -0.0101  0.1328
 5255W        W21389  11.707  10.445   1.704 -0.0827 -0.0051 -0.2175
 5256W        W21390   9.490   5.401   0.514 -0.0351  0.0426 -0.0690
 5257W        W21391  12.764  17.746  10.520  0.1299  0.1128 -0.1497
 5258W        W21392   7.156  19.041  14.383 -0.0969 -0.0384  0.3644
 5259W        W21393  17.531   5.575   4.692  0.1097 -0.1467 -0.1040
 5260W        W21394   0.442   9.460  14.548  0.0333  0.1027 -0.1697
 5261W        W21395   0.258   5.108  14.374 -0.3205 -0.2777 -0.2165
 5262W        W21396  16.049  12.184  13.185 -0.0440 -0.0271 -0.1045
 5263W        W21397   8.223  10.228  11.585  0.0501  0.1128  0.3523
 5264W        W21398  14.780  15.318  13.037  0.1030  0.1664  0.1397
 5265W        W21399  10.868  12.081  14.917 -0.1116 -0.2887 -0.0290
 5266W        W21400   1.174  14.496   0.379 -0.0396  0.1599 -0.1593
 5267W        W21401  16.740   2.062   4.573 -0.0259 -0.3086  0.0118
 5268W        W21402   6.780  14.373  10.818  0.1197  0.1406  0.0081
 5269W        W21403   8.475   6.850   4.612 -0.1186  0.2088  0.2050
 5270W        W21404   7.787  17.036   0.434  0.1746 -0.2686  0.2246
 5271W        W21405  14.053  18.816   2.753  0.0523  0.3366  0.0352
 5272W        W21406   0.063  15.118  13.216  0.2753  0.2926 -0.0563
 5273W        W21407   3.757   8.138  13.046  0.3059  0.3465  0.0217
 5274W        W21408  15.247   1.305  13.484  0.0410 -0.1064 -0.2917
 5275W        W21409   3.294   5.590  11.975 -0.2607 -0.1803 -0.0690
 5276W        W21410   0.239  11.240  14.513 -0.2160  0.0546  0.1216
 5277W        W21411  14.669   4.419   4.110  0.1233  0.0955 -0.2474
 5278W        W21412   4.916   1.641  12.973 -0.4489  0.2326  0.1410
 5279W        W21413   5.423  10.390   2.572 -0.1958  0.0719 -0.0895
 5280W        W21414  17.798   6.278  12.500  0.2768  0.1028 -0.0554
 5281W        W21415   1.603   8.811   3.135 -0.0388  0.1957  0.1003
 5282W        W21416  16.087  10.861   3.566  0.0952  0.0311 -0.0792
 5283W        W21417  10.702  17.772   0.700  0.1885 -0.0398 -0.3459
 5284W        W21418   4.855   5.926   4.839  0.3807 -0.2285  0.0192
 5285W        W21419   3.760  16.878   4.423  0.0221  0.2511 -0.1646
 5286W        W21420   6.466  11.435   1.737  0.3420  0.1626 -0.0650
 5287W        W21421  10.757   2.431  14.332  0.2514  0.0640  0.1722
 5288W        W21422   0.839  15.290  14.278 -0.1352 -0.1199  0.0229
 5289W        W21423   0.916   0.225   9.769  0.0644 -0.1357 -0.0120
 5290W        W21424  13.426   5.888  14.206 -0.1735 -0.0156 -0.2313
 5291W        W21425   7.090  13.040   5.485  0.0572  0.0669  0.1486
 5292W        W21426   4.605  13.430  13.106 -0.0619  0.2389 -0.1429
 5293W        W21427   9.494   2.410  12.199  0.2197 -0.4873  0.5455
 5294W        W21428   1.015  17.437  11.871 -0.0554  0.0614  0.3022
 5295W        W21429   0.891  10.228  11.761  0.2058 -0.0075  0.2664
 5296W        W21430  14.790   0.025  14.993  0.1758 -0.2671 -0.1290
 5297W        W21431   1.329  13.089   0.590 -0.0709 -0.0489 -0.1444
 5298W        W21432  10.764   4.952   3.216  0.0217  0.1701 -0.0974
 5299W        W21433  16.040  12.995  14.254 -0.3369  0.5287  0.1356
 5300W        W21434   1.186   4.967  11.768  0.0323 -0.0466  0.3591
 5301W        W21435  11.827   0.980  11.655  0.2572 -0.3585  0.1218
 5302W        W21436  18.423   2.015  10.957 -0.6222  0.0936  0.1731
 5303W        W21437  10.058   7.504   2.917 -0.2998  0.0274  0.0947
 5304W        W21438   1.543   5.566  11.997  0.1197  0.1788  0.0047
 5305W        W21439  18.883  12.020  13.054 -0.0064 -0.2044  0.2512
 5306W        W21440   7.713  10.105  11.430  0.0053 -0.0236 -0.0960
 5307W        W21441  10.385   7.696   0.948  0.1190 -0.2454  0.4010
 5308W        W21442   7.512   9.675   3.999  0.2777  0.0358 -0.1502
 5309W        W21443   4.572  16.641   3.853  0.1559 -0.0338 -0.3676
 5310W        W21444  14.988  14.152   5.282 -0.0298  0.1359  0.0182
 5311W        W21445  18.435   1.579   2.069  0.0844  0.0207  0.4422
 5312W        W21446   5.153  18.733  12.995  0.0027 -0.1979  0.1285
 5313W        W21447  13.421   2.758  14.125 -0.0331 -0.1022 -0.0235
 5314W        W21448  18.726   3.833  13.632  0.2182  0.1229  0.0227
 5315W        W21449  18.190   4.020   0.525 -0.0242  0.1966 -0.1418
 5316W        W21450   9.339   6.090   3.835 -0.2690  0.2075 -0.2436
 5317W        W21451   8.898   4.734   1.502 -0.0263 -0.1746  0.3731
 5318W        W21452   7.300   7.539  14.778 -0.2294 -0.1437  0.2629
 5319W        W21453  18.504   4.226  15.115 -0.0431  0.0328  0.0238
 5320W        W21454  10.843   3.423   4.635 -0.0132 -0.0440 -0.0613
 5321W        W21455  13.961   0.943  11.492  0.0797  0.0041 -0.1667
 5322W        W21456  13.411  13.990   2.451 -0.3480 -0.2255  0.1596
 5323W        W21457   2.738  14.178   3.269  0.2101  0.2192  0.0414
 5324W        W21458   4.851  10.798  15.131  0.1322 -0.1291  0.0284
 5325W        W21459   3.567   5.589   5.009 -0.1984  0.0429 -0.3446
 5326W        W21460   6.807  17.067  10.113  0.1039  0.2538  0.1211
 5327W        W21461   3.097   9.292   1.480 -0.1421 -0.2465 -0.1420
 5328W        W21462   1.539  11.537   0.421 -0.0958 -0.0973  0.1075
 5329W        W21463  13.643  17.452   0.347 -0.1894 -0.0386 -0.1512
 5330W        W21464  15.921   7.581   0.056  0.1144  0.2628 -0.0531
 5331W        W21465   6.261  11.839  13.862  0.2433  0.2268 -0.1373
 5332W        W21466  10.774  13.368   2.787 -0.2763 -0.0805  0.3220
 5333W        W21467   4.342  16.165  13.447 -0.0099 -0.2233  0.0696
 5334W        W21468  14.802  17.778  12.413 -0.0369 -0.0603  0.4245
 5335W        W21469   0.763  14.680  11.112  0.0544 -0.2085 -0.0329
 5336W        W21470  13.897   0.157  12.839  0.2537  0.1054 -0.0241
 5337W        W21471  17.229   0.345   1.141  0.2355  0.1445  0.0620
 5338W        W21472  13.360  12.880  12.170 -0.3955 -0.0330 -0.1220
 5339W        W21473   2.479   9.871  13.763 -0.1204  0.0774 -0.1908
 5340W        W21474  11.176  13.184  12.790 -0.1157  0.0327 -0.0398
 5341W        W21475   2.906  17.135   4.408  0.0264 -0.1719 -0.2363
 5342W        W21476   6.744   0.028   3.201 -0.0570  0.0199  0.2275
 5343W        W21477  16.969   9.673  13.113  0.1374  0.4191  0.1531
 5344W        W21478   5.719   5.235   5.277 -0.3564  0.2303 -0.3047
 5345W        W21479  11.846  14.422   2.561  0.1120  0.1132 -0.0106
 5346W        W21480  13.185   4.025   2.007  0.3796  0.0237 -0.2649
 5347W        W21481  18.710  10.366  10.917  0.1006  0.0222 -0.4026
 5348W        W21482  14.487   2.847   5.600 -0.2506 -0.0542 -0.0165
 5349W        W21483  19.129  10.351  14.469  0.2706  0.4099  0.1340
 5350W        W21484   1.128  19.098   2.007 -0.3429  0.0235 -0.2663
 5351W        W21485   6.072   7.898   1.761  0.1290  0.1719 -0.0979
 5352W        W21486   1.384   2.153  13.713  0.2478 -0.3917 -0.0155
 5353W        W21487   8.071   1.513   4.245  0.1862  0.1360  0.3835
 5354W        W21488   4.789   2.511  13.580 -0.1500 -0.4032 -0.0184
 5355W        W21489  18.473  15.118   0.627  0.1619  0.0075 -0.0458
 5356W        W21490   4.561  18.414  14.226 -0.0455 -0.2033 -0.1499
 5357W        W21491  18.327  12.728   9.298 -0.2978  0.0012 -0.1420
 5358W        W21492  14.691  16.555  12.849 -0.1819  0.3275 -0.2534
 5359W        W21493   4.651   1.295   1.438 -0.0182 -0.0402  0.2425
 5360W        W21494  12.923   3.700   0.514 -0.2519  0.3619 -0.0170
 5361W        W21495   7.248  11.238   4.595  0.0493 -0.2347 -0.0621
 5362W        W21496   9.105   3.259  12.907  0.1315 -0.1887 -0.3998
 5363W        W21497   5.217  16.400  14.473  0.1386  0.1124  0.0338
 5364W        W21498  18.544   0.087   4.246  0.1931 -0.0645 -0.0690
 5365W        W21499   8.341   6.589   1.338 -0.0182  0.1129 -0.0222
 5366W        W21500  15.602  13.868   0.501 -0.1647  0.0531  0.0110
 5367W        W21501  18.629  14.551   5.445 -0.0660  0.2824  0.0777
 5368W        W21502  12.541   5.208   3.996  0.0180 -0.3177 -0.1911
 5369W        W21503  15.488   9.081  13.703  0.0495 -0.0032  0.2620
 5370W        W21504   6.051   4.775   3.365 -0.2468 -0.1539  0.0667
 5371W        W21505   3.944  15.566   0.091 -0.4151  0.2709  0.1605
 5372W        W21506   8.851  12.960   3.944  0.2375 -0.1669 -0.2597
 5373W        W21507  16.002   2.502   4.524  0.0461  0.1115 -0.0344
 5374W        W21508   6.727  10.280  13.432  0.1136  0.2327  0.3161
 5375W        W21509   3.346   6.730   9.524 -0.2291 -0.0340 -0.1417
 5376W        W21510   4.948  14.258  14.130  0.0697  0.2029  0.1693
 5377W        W21511   5.402   9.172  12.665 -0.4365  0.0852  0.1711
 5378W        W21512  18.257  10.881  12.649  0.0075 -0.1895 -0.0204
 5379W        W21513  14.674   0.304   1.001  0.0433 -0.2297 -0.0942
 5380W        W21514   0.306  11.849   3.066 -0.1671  0.2309 -0.1019
 5381W        W21515   8.519   1.151   2.442 -0.0530  0.1153  0.1183
 5382W        W21516   2.235   0.734  11.967 -0.0771  0.2495 -0.4478
 5383W        W21517   1.254   9.071  10.992 -0.0999  0.1000 -0.3678
 5384W        W21518  18.125   7.888  12.577 -0.1382  0.0027  0.3733
 5385W        W21519  10.723  18.328   3.896  0.0247  0.3180  0.0985
 5386W        W21520   0.390   5.707  14.223 -0.0140 -0.0707 -0.1025
 5387W        W21521  15.254  15.316  12.297 -0.0078 -0.0178 -0.0915
 5388W        W21522   5.985  10.817  14.526 -0.0110 -0.0234  0.0266
 5389W        W21523   6.787  15.351   2.353 -0.4586  0.1209  0.0867
 5390W        W21524  18.969   5.160  10.838 -0.0697  0.1917 -0.2030
 5391W        W21525   8.181  17.859  10.983  0.1451 -0.2209 -0.1858
 5392W        W21526   4.633   9.993   5.292  0.0251  0.1481  0.0191
 5393W        W21527   1.394   0.478  14.882 -0.1540 -0.0119 -0.2581
 5394W        W21528  12.840   6.889   0.741  0.0116  0.2538  0.1581
 5395W        W21529  14.396   0.638  10.961  0.0965 -0.0263  0.1252
 5396W        W21530  18.514   8.143  11.349  0.2245  0.1411  0.0958
 5397W        W21531   0.170   1.215  11.574  0.2040  0.5000 -0.2929
 5398W        W21532   3.746  18.548  11.681 -0.1276  0.1086  0.0202
 5399W        W21533   3.209   7.345   3.558 -0.1004 -0.0749  0.3976
 5400W        W21534   7.623  11.577   4.593 -0.2107 -0.1522  0.0856
 5401W        W21535  13.120  12.475  10.559  0.1161  0.1175 -0.1184
 5402W        W21536   8.672  13.574   3.539 -0.1119 -0.2418 -0.2732
 5403W        W21537   8.363   2.782   3.144 -0.0416 -0.2818  0.2364
 5404W        W21538   0.320  16.897  10.513 -0.1584 -0.1796 -0.1827
 5405W        W21539   4.078  12.181  11.329 -0.1158  0.0605  0.2917
 5406W        W21540   7.820  17.186   3.012  0.0646  0.0478  0.2088
 5407W        W21541  12.202   9.817  14.995  0.2153  0.1453 -0.1646
 5408W        W21542   8.552  13.201  13.013 -0.0457 -0.2501 -0.0340
 5409W        W21543   0.572   1.692  13.935  0.0693 -0.2298 -0.4427
 5410W        W21544  12.944  13.866   3.894 -0.0765  0.4429  0.1820
 5411W        W21545  17.448  12.203  12.197 -0.1203 -0.0619  0.1161
 5412W        W21546   4.482   5.998  13.883 -0.0162 -0.1601 -0.1113
 5413W        W21547  16.933  11.921  14.923  0.0104  0.0532  0.5106
 5414W        W21548  16.226   8.541  14.377 -0.1123  0.3340  0.2760
 5415W        W21549   9.775   3.554   2.063  0.0338  0.0221 -0.0338
 5416W        W21550  15.741  11.785   2.108 -0.1257 -0.0987 -0.2484
 5417W        W21551  13.395  16.893   3.957  0.1437 -0.0876  0.3031
 5418W        W21552  11.198   4.611  10.889  0.1384 -0.1241  0.1981
 5419W        W21553  18.732  18.313   0.817 -0.3060 -0.0343  0.0271
 5420W        W21554  10.696   4.252   1.891  0.6576 -0.1398 -0.0744
 5421W        W21555  14.258   9.094  10.825 -0.0803 -0.0860 -0.0142
 5422W        W21556   6.116  16.798  14.643  0.1129  0.0681 -0.0846
 5423W        W21557   0.090   4.953   2.823 -0.1407  0.1312  0.3716
 5424W        W21558   2.184   5.017   5.088 -0.3685  0.0024 -0.0053
 5425W        W21559   6.246   7.186  11.400 -0.0486  0.0743 -0.0587
 5426W        W21560  13.262   6.582   2.261 -0.2418  0.0936 -0.0117
 5427W        W21561   2.074   2.534  14.707 -0.0608  0.0248  0.1433
 5428W        W21562   4.380   9.113  12.434  0.2157 -0.1574  0.0227
 5429W        W21563  18.488  10.443  13.607  0.1663 -0.1143 -0.0616
 5430W        W21564  10.741  15.019  12.965  0.2625  0.1292  0.0587
 5431W        W21565   9.740  13.535   5.190 -0.4127 -0.1384 -0.2274
 5432W        W21566   6.038   5.339  12.829 -0.2286  0.0052  0.3489
 5433W        W21567  14.262   8.861  10.364 -0.1962  0.0389  0.0721
 5434W        W21568  12.011  10.611   0.876  0.0236  0.0069  0.2474
 5435W        W21569  16.323   4.257   0.683 -0.1866  0.2467  0.2309
 5436W        W21570  12.251  13.025  15.126  0.0547  0.2068  0.1107
 5437W        W21571   5.703   3.651   3.513  0.4644  0.0019 -0.1930
 5438W        W21572  10.119  13.891  12.380 -0.0353  0.3551  0.1184
 5439W        W21573   8.087   1.450  14.059  0.2222  0.1249  0.0594
 5440W        W21574   6.739   4.476  14.888 -0.4700 -0.0439  0.0007
 5441W        W21575   5.773   2.014   1.154  0.0559  0.2310 -0.3095
 5442W        W21576   9.220  15.820  13.714  0.0414  0.3503 -0.1050
 5443W        W21577  14.563  14.492  14.578  0.0235  0.1622 -0.0365
 5444W        W21578   1.278   5.597  13.759  0.1038  0.3215 -0.0948
 5445W        W21579  16.016  19.109   2.099 -0.2276 -0.3540 -0.2282
 5446W        W21580  17.041  14.711  10.443 -0.1621 -0.2787  0.0793
 5447W        W21581  17.332  11.976  13.557 -0.0801  0.0840  0.1287
 5448W        W21582  14.201   7.720   9.643  0.3769  0.2960  0.2860
 5449W        W21583   3.893  14.602  13.932  0.1377 -0.3103  0.0918
 5450W        W21584   1.460  18.235   0.900 -0.2292 -0.4297 -0.0210
 5451W        W21585  12.596  14.460  15.119 -0.0742  0.1542 -0.0501
 5452W        W21586  16.933  14.631   0.350  0.0549 -0.1296  0.0961
 5453W        W21587  15.882   1.469   1.283 -0.0018  0.0703  0.2004
 5454W        W21588   8.048   5.649  10.550  0.1385 -0.0017 -0.2289
 5455W        W21589   2.484   1.088  12.936 -0.0306  0.2875  0.2459
 5456W        W21590   0.965   5.017   0.703 -0.2169 -0.1861 -0.0743
 5457W        W21591   4.908   4.066   4.501  0.0785 -0.2901  0.3527
 5458W        W21592   9.984  14.701  12.675 -0.1456  0.1601 -0.1404
 5459W        W21593   4.496   0.655   0.736 -0.2313  0.1163 -0.0082
 5460W        W21594   0.716  16.834   3.013 -0.1060  0.2990  0.1130
 5461W        W21595  17.592   9.689  11.451  0.3481  0.0497  0.0378
 5462W        W21596  12.896  19.092  14.302 -0.1537  0.2285 -0.1680
 5463W        W21597  16.343   9.894   2.953  0.0404 -0.3344 -0.0832
 5464W        W21598   8.426   1.689  10.760 -0.3823 -0.1512  0.1951
 5465W        W21599   7.660   5.437   1.055 -0.2148  0.3551 -0.0553
 5466W        W21600   8.071  12.833  11.993  0.0495 -0.0848  0.1311
 5467W        W21601   0.502  13.124   1.105  0.0461 -0.0508 -0.0187
 5468W        W21602   3.560   7.835  12.282 -0.2494 -0.3588  0.3274
 5469W        W21603   1.659   7.213  14.320  0.2685 -0.1239 -0.1447
 5470W        W21604   9.493   1.104   4.032  0.0079 -0.2324 -0.1191
 5471W        W21605  18.854   0.773  12.241  0.0002 -0.0168 -0.2292
 5472W        W21606   1.589   4.152  11.959  0.0198  0.4427 -0.1166
 5473W        W21607   3.389   6.733  14.114  0.1615 -0.0952 -0.4198
 5474W        W21608   5.258   1.496  12.650  0.2160  0.2273  0.2241
 5475W        W21609  17.398   8.878   2.753  0.0880  0.2599  0.1647
 5476W        W21610   0.478  18.846  13.867  0.1455 -0.1948 -0.2698
 5477W        W21611   7.014  16.268   1.177  0.0127 -0.0837 -0.1954
 5478W        W21612   7.189   6.708   4.980 -0.4533  0.2103 -0.0088
 5479W        W21613  17.716   8.543  13.214  0.0157 -0.2429  0.1569
 5480W        W21614  12.048   0.369  14.146 -0.1373  0.3418  0.0454
 5481W        W21615   0.860  12.538  10.216  0.1825 -0.1056 -0.0095
 5482W        W21616   9.403   2.741   4.873 -0.0249 -0.0058  0.0941
 5483W        W21617   1.449  18.023   1.824  0.0838 -0.1050  0.2793
 5484W        W21618  17.532  15.085   4.613 -0.2795 -0.0158 -0.4752
 5485W        W21619  12.048  10.732  14.271  0.4686  0.2843 -0.0112
 5486W        W21620   4.581  12.388   3.082 -0.1885  0.4285  0.1573
 5487W        W21621  17.392   3.475   2.672  0.1543  0.0813 -0.2348
 5488W        W21622   4.794  16.247   4.921  0.1444 -0.1153 -0.2845
 5489W        W21623   4.658   9.116   2.811  0.2475 -0.0687  0.2206
 5490W        W21624  17.981  18.792  11.131  0.0808 -0.0805  0.0328
 5491W        W21625   4.106   1.970   2.429  0.3404 -0.2273 -0.1157
 5492W        W21626  12.718  13.256  14.975 -0.5017  0.1570  0.1260
 5493W        W21627   9.080  15.163   4.737 -0.0425 -0.0292 -0.1631
 5494W        W21628  13.461   1.578   1.664 -0.0845 -0.3887  0.0220
 5495W        W21629   1.773   0.306   0.561 -0.0435 -0.0626  0.1426
 5496W        W21630   9.692   8.111   1.512 -0.2381 -0.1842  0.1282
 5497W        W21631   1.982  11.712  14.162  0.0146  0.1215  0.2818
 5498W        W21632   4.345  11.113  11.866 -0.0078  0.1595 -0.2433
 5499W        W21633  17.990  16.176  12.602  0.1368 -0.3143  0.1633
 5500W        W21634  15.345   5.991   0.298 -0.0748 -0.1778 -0.1244
 5501W        W21635   9.604   1.807   1.567  0.0400 -0.1365 -0.1541
 5502W        W21636   8.813  10.150   5.552 -0.1790  0.3351 -0.4620
 5503W        W21637  16.452  17.685  11.987 -0.3849 -0.2110  0.1917
 5504W        W21638  12.752  12.314   0.160  0.2004 -0.0886  0.1071
 5505W        W21639   7.643  16.378   3.688 -0.1099 -0.1981  0.1498
 5506W        W21640   9.801  15.473  12.803 -0.1876  0.2614 -0.3930
 5507W        W21641   6.119   8.678  10.970  0.0814 -0.0061  0.0084
 5508W        W21642  13.038  12.943  14.635 -0.1808 -0.0223 -0.2654
 5509W        W21643   4.929   1.964  10.874  0.2087  0.0894  0.3512
 5510W        W21644   1.195  18.920   2.509 -0.3296  0.0093 -0.3816
 5511W        W21645  16.381  13.862  10.569 -0.0149  0.0742 -0.4834
 5512W        W21646   1.786  13.731   2.221  0.0927 -0.3329  0.0620
 5513W        W21647  12.850   9.811  14.257 -0.2439  0.2762 -0.3559
 5514W        W21648   7.428   4.436   0.512  0.0935 -0.0519  0.0694
 5515W        W21649   3.944  11.490   4.524 -0.1318  0.0835  0.0483
 5516W        W21650   0.526   0.725   1.878 -0.1301 -0.1409  0.3659
 5517W        W21651  18.197  12.799   9.783 -0.0466 -0.5627  0.3269
 5518W        W21652   6.483  16.672   4.286  0.0680  0.0027  0.1914
 5519W        W21653  10.373   9.705  13.410 -0.0231  0.4585 -0.3104
 5520W        W21654  16.047   6.541  10.503 -0.2250 -0.0763  0.0660
 5521W        W21655   4.356  18.885  11.094  0.1493  0.4664 -0.0165
 5522W        W21656  11.971  18.521  14.697 -0.2968 -0.0323  0.3554
 5523W        W21657   2.435  18.800   0.845 -0.3905 -0.3609  0.1896
 5524W        W21658   6.029   3.445  14.477  0.0779  0.2161 -0.2436
 5525W        W21659  11.588   9.851   3.854 -0.1639 -0.0912  0.4475
 5526W        W21660   7.570   9.169  14.683 -0.0169 -0.0880 -0.4183
 5527W        W21661  12.131   4.145  10.286  0.0141 -0.2255  0.1280
 5528W        W21662  16.205  12.029  11.144 -0.1806 -0.0332 -0.0865
 5529W        W21663   8.643   7.902  14.612  0.3257 -0.0249 -0.3359
 5530W        W21664  10.735  16.857   5.722  0.1320  0.1400  0.2733
 5531W        W21665   3.262   6.385   2.061  0.2901  0.1142 -0.2118
 5532W        W21666   1.122  10.289   2.138 -0.0438 -0.3149 -0.4114
 5533W        W21667   3.854   0.189   2.620 -0.4644  0.0980 -0.0955
 5534W        W21668  10.776   6.999   2.837 -0.1009 -0.0196 -0.1617
 5535W        W21669   3.697   4.053   0.944 -0.1674 -0.1633  0.0296
 5536W        W21670   5.086  10.606   1.013  0.1710  0.3765 -0.0883
 5537W        W21671   2.152   0.883   2.882  0.3034  0.1048 -0.0002
 5538W        W21672   2.178   2.098   4.889 -0.4003  0.3450 -0.1076
 5539W        W21673  11.579  18.962   1.014 -0.1239 -0.1385 -0.0551
 5540W        W21674   7.562  10.738   4.970  0.1435 -0.0578 -0.0887
 5541W        W21675  12.539  15.086  12.576  0.0569 -0.1202 -0.3703
 5542W        W21676   0.880   6.273   3.909  0.1091 -0.2099  0.1535
 5543W        W21677   9.559   8.608   1.419 -0.0293 -0.1789 -0.3223
 5544W        W21678   2.809  12.322   9.805  0.0408 -0.0720  0.2641
 5545W        W21679   7.661   0.133   3.106 -0.2933 -0.1245 -0.1535
 5546W        W21680   3.953  13.205   4.419  0.2384  0.1575  0.2347
 5547W        W21681  16.816   4.608   4.494 -0.2042 -0.0225  0.0690
 5548W        W21682  15.362   3.763   4.338 -0.0200 -0.0220  0.1532
 5549W        W21683   0.002   1.612   1.409  0.0265  0.1871  0.3111
 5550W        W21684  14.200  17.147  14.834  0.3396  0.1428  0.0653
 5551W        W21685   8.803   4.067  13.132  0.3395 -0.2139  0.0664
 5552W        W21686   1.457   0.553  11.781  0.3289  0.0224  0.0132
 5553W        W21687  11.781   9.292  13.086 -0.1145  0.0066  0.2051
 5554W        W21688  10.599   5.975   2.397 -0.2632  0.0704 -0.1371
 5555W        W21689  10.340   6.050  12.834 -0.2562 -0.2683  0.0614
 5556W        W21690  11.749   6.334   1.134 -0.0380 -0.2626  0.0955
 5557W        W21691  15.719   8.236  11.448 -0.0269 -0.1569 -0.1605
 5558W        W21692  16.950  16.985   0.233  0.0313 -0.0472  0.0695
 5559W        W21693  14.965   1.266  13.940  0.0939  0.1225 -0.0368
 5560W        W21694  12.407   2.489   2.611  0.2481 -0.0702 -0.1853
 5561W        W21695  17.157   2.154  10.916 -0.3092 -0.0895  0.0240
 5562W        W21696  13.941   5.640   4.425 -0.1758  0.4766 -0.2141
 5563W        W21697   4.167  12.320  13.790  0.0029 -0.1055 -0.3017
 5564W        W21698  12.266   8.447  13.036  0.1991 -0.2706  0.0216
 5565W        W21699  10.417   7.509   3.934 -0.1247  0.0898  0.1422
 5566W        W21700  17.732  16.370  12.020  0.4041 -0.3383  0.0956
 5567W        W21701   6.584   7.314   1.884  0.2784 -0.0287 -0.0763
 5568W        W21702  10.308  16.983  12.287  0.0364 -0.0566  0.3515
 5569W        W21703   8.991   2.397   4.712 -0.3180  0.0543 -0.0504
 5570W        W21704   5.936   3.572   4.496  0.0044 -0.2905  0.1844
 5571W        W21705   5.845  13.920   1.996 -0.2061 -0.0746 -0.0664
 5572W        W21706   5.715   2.661  12.786  0.1477 -0.3083 -0.2252
 5573W        W21707  16.304   3.676  15.199  0.0268  0.1964  0.0835
 5574W        W21708   0.633  13.943  13.568  0.0165 -0.0691  0.2856
 5575W        W21709   6.539   4.735  14.441 -0.1285 -0.0695  0.1680
 5576W        W21710   7.293   2.846  10.338  0.2776 -0.3405  0.0275
 5577W        W21711  10.963  16.211   0.570 -0.1673  0.1044  0.1820
 5578W        W21712  17.294   2.874  13.210 -0.0935  0.0239 -0.1266
 5579W        W21713   2.732   8.331   4.658  0.1178 -0.1552 -0.0858
 5580W        W21714  17.864  14.091   3.144  0.0194 -0.0826 -0.1240
 5581W        W21715  15.613  10.499   2.188  0.1125  0.1179  0.0291
 5582W        W21716  14.054  16.142   2.358  0.0038 -0.3241  0.2208
 5583W        W21717  14.415  10.790   4.326 -0.2353 -0.1721  0.0684
 5584W        W21718   2.750   0.966   0.535 -0.1619  0.1192  0.1695
 5585W        W21719  17.819  17.858  14.146  0.1241 -0.0305 -0.1496
 5586W        W21720  14.102   7.290  12.811 -0.1402 -0.2206  0.0063
 5587W        W21721   9.998  18.361   4.546 -0.2175 -0.1007 -0.0971
 5588W        W21722  14.775   9.769   2.378 -0.0089 -0.1698 -0.2278
 5589W        W21723   9.615  15.902  14.974  0.0190 -0.1576  0.0627
 5590W        W21724   9.131  11.401  14.135 -0.0559  0.0596 -0.0800
 5591W        W21725   1.475   7.030   1.497  0.1576  0.2807 -0.0275
 5592W        W21726  15.461  10.434   4.102  0.1559  0.1381  0.0646
 5593W        W21727   2.510   1.148  15.083 -0.1166 -0.1437 -0.0570
 5594W        W21728   1.785  12.155  14.061 -0.0385 -0.1715  0.1714
 5595W        W21729  15.675   8.865   3.751 -0.0515  0.0050  0.1985
 5596W        W21730  16.919   6.507  10.570 -0.1397 -0.2852  0.2859
 5597W        W21731   6.354  13.928  11.197  0.0666  0.0494 -0.1046
 5598W        W21732  14.897  15.991  11.812  0.0955  0.2625 -0.0252
 5599W        W21733   6.170  14.263  12.746  0.1416  0.0281 -0.0018
 5600W        W21734  14.305  13.863   2.853  0.0711 -0.1461  0.0802
 5601W        W21735  18.929   0.896  12.785 -0.1273  0.2565 -0.2882
 5602W        W21736   0.528   3.717   1.756 -0.2708 -0.0259 -0.3275
 5603W        W21737  13.914   6.448   3.720 -0.1761 -0.1369 -0.0735
 5604W        W21738   8.669  11.421   2.285  0.1440  0.2277  0.0182
 5605W        W21739   8.887  11.521   4.179 -0.0453 -0.2813  0.0791
 5606W        W21740   7.877   4.969  14.833 -0.1248 -0.1100  0.0566
 5607W        W21741   5.927   2.878   2.794 -0.1756 -0.2613  0.0758
 5608W        W21742   5.126   4.712  14.342 -0.0436  0.0216  0.0018
 5609W        W21743   2.346   4.207   3.990 -0.0725  0.0132  0.1758
 5610W        W21744   5.677   8.162   3.700  0.0203  0.0619  0.1411
 5611W        W21745   7.047  12.783   4.500  0.0907 -0.1149 -0.2204
 5612W        W21746   2.614  10.033  10.082  0.0443 -0.0011 -0.2350
 5613W        W21747  18.608   6.421   4.306  0.0227  0.0594 -0.2456
 5614W        W21748  18.142   7.651   3.972 -0.0671  0.1985 -0.0265
 5615W        W21749   2.868   4.253  14.565 -0.0813 -0.0339  0.1824
 5616W        W21750  18.543  10.260  12.654  0.1282  0.0991  0.1436
 5617W        W21751  18.121  13.058  13.594 -0.1778 -0.1884 -0.1722
 5618W        W21752   0.485   7.884   2.411 -0.0780 -0.1071 -0.3251
 5619W        W21753  18.311  18.072  14.130  0.0535 -0.2958  0.0804
 5620W        W21754  10.821  11.892  13.428  0.1888  0.0450  0.0537
 5621W        W21755  18.884   3.877   2.729 -0.2205  0.2273 -0.1681
 5622W        W21756   5.484  14.861   5.066  0.0023  0.1882 -0.1272
 5623W        W21757  10.725   2.733  10.815  0.1574  0.0341  0.2054
 5624W        W21758   8.579   4.506  12.960  0.0750  0.0626 -0.2168
 5625W        W21759  12.455  17.535  14.709  0.0049 -0.0134  0.1706
 5626W        W21760  13.874  17.731  12.150  0.0070 -0.4415  0.1457
 5627W        W21761  17.027  18.979   2.940 -0.1271 -0.3282  0.0719
 5628W        W21762   7.462   1.298   1.467 -0.1258 -0.0785 -0.0445
 5629W        W21763   0.105   9.941   3.378 -0.3259  0.0920 -0.0865
 5630W        W21764   1.581  15.427   4.110 -0.3253 -0.1526  0.0533
 5631W        W21765   2.846   9.204  12.679 -0.1866  0.2848  0.2160
 5632W        W21766   6.368  10.927  14.140 -0.0361 -0.2284  0.3221
 5633W        W21767  10.264  17.903   0.978  0.0427 -0.1282 -0.0727
 5634W        W21768  16.268  11.743  13.554  0.2690 -0.2686  0.1200
 5635W        W21769   7.791  11.820   0.705  0.2427 -0.6266  0.2033
 5636W        W21770   9.293  17.256  12.109  0.0812 -0.2259 -0.3452
 5637W        W21771  14.214   4.901  11.029  0.0863  0.2351 -0.2057
 5638W        W21772  15.753  10.131  11.587  0.0788  0.0308  0.0039
 5639W        W21773  13.145   1.017  11.776  0.3974  0.0970 -0.0277
 5640W        W21774   2.086  13.238  15.174 -0.0893  0.2472  0.0453
 5641W        W21775   7.055  11.514  14.141  0.1551  0.0077 -0.1700
 5642W        W21776   5.960   7.651   2.666 -0.2306  0.2059 -0.0260
 5643W        W21777   4.171   3.067   3.144 -0.2940  0.1634  0.0413
 5644W        W21778   2.966  14.388   3.665  0.0383 -0.2554 -0.0909
 5645W        W21779  12.529   0.510   4.527  0.0028  0.1582  0.1628
 5646W        W21780  13.874  10.249   2.313  0.3182  0.2417  0.0092
 5647W        W21781   4.169   0.844  12.150 -0.1407 -0.1459  0.0347
 5648W        W21782   1.473  11.713   2.023  0.1151  0.1945  0.1405
 5649W        W21783   7.287   4.562  14.950 -0.2909 -0.2265 -0.3279
 5650W        W21784  17.553   2.950   3.644  0.3149 -0.3618  0.0813
 5651W        W21785   0.988   1.566   5.546  0.2059  0.1809  0.2136
 5652W        W21786   4.299  14.486   4.832 -0.0165 -0.1896  0.0298
 5653W        W21787   2.142   5.840   5.493  0.1676 -0.2383 -0.3826
 5654W        W21788   7.621   0.517   1.957  0.2286 -0.0283 -0.3137
 5655W        W21789   1.452   6.092   2.772 -0.0705  0.5595 -0.1407
 5656W        W21790   2.029  18.902  11.786  0.0365 -0.3604  0.0581
 5657W        W21791  12.121   4.482  14.061 -0.1176 -0.1996  0.1564
 5658W        W21792  15.120  12.388   0.478 -0.2366  0.1635 -0.0989
 5659W        W21793  13.554  11.251  10.322 -0.0256 -0.2774 -0.2943
 5660W        W21794   7.939  15.154   2.644  0.2382  0.3319  0.2146
 5661W        W21795   3.099  14.925  11.210 -0.0693 -0.2914  0.3576
 5662W        W21796   5.659  15.823  12.908  0.0860 -0.3100  0.4980
 5663W        W21797  14.145  11.560  13.472 -0.3453  0.0965  0.0478
 5664W        W21798  10.761   4.533  13.549 -0.0491 -0.0822  0.2744
 5665W        W21799  12.407  15.169  11.125 -0.0541 -0.0244  0.2760
 5666W        W21800   0.242   0.682   3.737 -0.0260  0.0665 -0.2192
 5667W        W21801  10.411  11.299  10.816 -0.0488 -0.2191 -0.2935
 5668W        W21802  14.829  11.050   0.171  0.0808  0.0662  0.0915
 5669W        W21803   6.319   8.804   4.106 -0.0419 -0.1636  0.1794
 5670W        W21804  14.225  11.840   1.480  0.4626 -0.1910 -0.2553
 5671W        W21805  17.287   0.626   0.214 -0.1298  0.1673  0.3106
 5672W        W21806   0.333   7.063   2.540 -0.2971  0.3684  0.1998
 5673W        W21807  13.707   0.528   5.623  0.1530  0.0219  0.1751
 5674W        W21808   9.121   5.174   0.787  0.0456  0.2975 -0.0174
 5675W        W21809  13.603  11.141   1.177 -0.2541  0.3475 -0.0053
 5676W        W21810  13.378  17.173   1.248 -0.3063 -0.0859 -0.3338
 5677W        W21811  11.181  12.948  12.373  0.0188 -0.3186 -0.0114
 5678W        W21812  18.412   2.930   5.242 -0.2232  0.0214  0.1732
 5679W        W21813   1.819  18.652  12.423 -0.2145 -0.1420  0.1912
 5680W        W21814   0.320  10.604  13.880  0.0969  0.1091 -0.0141
 5681W        W21815  16.640   5.680   0.573  0.0543  0.2717  0.1755
 5682W        W21816   5.774   7.329   4.318 -0.3193  0.3923  0.3065
 5683W        W21817  12.230  17.908   0.502 -0.1152 -0.1645 -0.1433
 5684W        W21818   5.940  13.677  10.134 -0.0870 -0.2516 -0.2820
 5685W        W21819   8.245   9.028  10.794  0.1058  0.0186  0.1482
 5686W        W21820   8.679   6.696  10.632 -0.0482  0.1813 -0.3651
 5687W        W21821  11.006   7.066  14.550  0.0743 -0.0727 -0.1868
 5688W        W21822  18.785   0.399  11.550 -0.3096  0.2744 -0.1384
 5689W        W21823   9.745  17.321   0.248  0.1842  0.3810  0.2720
 5690W        W21824   7.376  12.626   5.335 -0.0294  0.1782  0.1645
 5691W        W21825  12.660   6.314   4.473 -0.5801 -0.1422 -0.3136
 5692W        W21826   8.954   4.049   2.816  0.0141  0.2430  0.0657
 5693W        W21827   8.895  10.214  12.277 -0.1188  0.1956 -0.2021
 5694W        W21828   4.269   7.522  14.296 -0.4608 -0.2668 -0.0191
 5695W        W21829   2.501   8.532  15.023  0.2074  0.5062 -0.4339
 5696W        W21830  11.085  17.494  11.461  0.1096  0.2705 -0.0775
 5697W        W21831  10.061   4.379   0.408  0.0609  0.2274 -0.1356
 5698W        W21832  13.425  16.926  10.843 -0.1055 -0.3703 -0.2018
 5699W        W21833   6.727   8.315  10.651  0.1608 -0.1403  0.1464
 5700W        W21834   0.625   2.257   4.903 -0.0630 -0.0837  0.2211
 5701W        W21835   2.509  18.263   0.820  0.0554 -0.0234 -0.4912
 5702W        W21836   7.410   6.025   2.811 -0.0251 -0.0689 -0.1005
 5703W        W21837   2.400   8.855  14.653 -0.0001  0.1699  0.1186
 5704W        W21838   8.943   7.916  12.413  0.2096  0.0765 -0.2238
 5705W        W21839  15.107  18.193  12.397  0.2269  0.0926 -0.1584
 5706W        W21840   3.414  10.974   2.583  0.0026 -0.0494 -0.1225
 5707W        W21841  10.921   9.921  12.309  0.0568  0.0775  0.0997
 5708W        W21842  13.326  11.689  12.771  0.1195 -0.3321 -0.2407
 5709W        W21843  16.207  11.140  11.027 -0.1045 -0.0438  0.2361
 5710W        W21844   0.075   8.797   4.452  0.0379 -0.0965  0.0325
 5711W        W21845  11.584   5.462   2.872  0.0944  0.0966  0.1841
 5712W        W21846   8.070   7.847  12.378 -0.3784  0.1574  0.1642
 5713W        W21847   1.649   1.670   4.471 -0.1559 -0.1865  0.1751
 5714W        W21848  16.945  15.393   3.965 -0.3500 -0.0963  0.0154
 5715W        W21849   7.378   6.445  12.059 -0.0189  0.0019  0.1502
 5716W        W21850   0.208  16.583  12.914  0.2117  0.3091  0.2405
 5717W        W21851  12.760   4.765  14.997 -0.3146 -0.0406  0.2026
 5718W        W21852   3.377  18.022  11.078 -0.1403 -0.0832 -0.2047
 5719W        W21853  17.131   2.954  14.502 -0.1036  0.1886 -0.1862
 5720W        W21854   9.430  15.829   2.968  0.1639 -0.0243 -0.0557
 5721W        W21855   0.150  13.557  10.400 -0.2223  0.4248  0.0236
 5722W        W21856   7.493   3.537   2.379 -0.0946  0.2856 -0.0309
 5723W        W21857   3.877  18.925  11.302 -0.1594  0.0696 -0.4114
 5724W        W21858  18.413   4.553   4.647 -0.3027  0.0883 -0.0936
 5725W        W21859  18.667   3.784   1.361  0.1218 -0.2512 -0.3199
 5726W        W21860   7.343   3.140  15.091  0.0003  0.1274  0.0692
 5727W        W21861  19.103   8.978  11.103  0.2794  0.0422  0.0102
 5728W        W21862  11.554   7.686  11.087  0.2225  0.1345 -0.0195
 5729W        W21863   8.389  14.320   0.561  0.1752  0.1322 -0.1489
 5730W        W21864  10.268  11.670   2.271  0.1281  0.1137  0.2061
 5731W        W21865  18.195   7.708  11.532 -0.0530 -0.0324  0.0436
 5732W        W21866  10.305   9.353   0.842  0.1617 -0.5306 -0.3460
 5733W        W21867  14.366   7.326   2.492 -0.0898 -0.3393  0.0727
 5734W        W21868   1.209  11.043   5.334 -0.2011 -0.2285  0.2714
 5735W        W21869   4.885  18.672   1.269 -0.0709  0.1340 -0.2295
 5736W        W21870   4.194   9.175   2.984 -0.1579  0.3743  0.3552
 5737W        W21871   3.681  11.156   4.845 -0.1646  0.0298  0.0351
 5738W        W21872   9.548  13.023   2.840 -0.1974 -0.3031 -0.1920
 5739W        W21873  12.032   4.758   4.252 -0.0394 -0.1043  0.0931
 5740W        W21874   6.692   7.264   1.036 -0.1851  0.0132 -0.4184
 5741W        W21875   2.832   2.374   1.299 -0.0558 -0.1200 -0.2474
 5742W        W21876  16.982  14.026   5.228 -0.0594  0.0410  0.1608
 5743W        W21877   1.964   8.097  13.556 -0.1111  0.2881 -0.2741
 5744W        W21878   4.344   9.893  12.095  0.3592 -0.1014  0.1735
 5745W        W21879   6.003  14.805  11.538 -0.2505 -0.3185  0.1341
 5746W        W21880   0.958  11.788  14.665  0.0437  0.3089 -0.0345
 5747W        W21881  11.360  14.262   0.997 -0.1971  0.1141 -0.1005
 5748W        W21882  15.918   8.552   1.848  0.0746 -0.0383  0.2131
 5749W        W21883   0.642  12.183  14.609  0.2271  0.0839  0.0743
 5750W        W21884  18.947  17.530  15.198  0.0072  0.0184  0.1087
 5751W        W21885   6.539   4.158   3.932 -0.1422 -0.0693  0.0406
 5752W        W21886   6.489   8.587  11.657 -0.0799 -0.1657  0.1981
 5753W        W21887   3.619   1.966   2.101 -0.0392 -0.1440 -0.1298
 5754W        W21888   5.257   8.784  11.654  0.1093 -0.2146 -0.1589
 5755W        W21889   7.394   8.160   3.300 -0.0354 -0.2639 -0.2774
 5756W        W21890  11.437  12.923   4.910  0.0840 -0.0871 -0.3287
 5757W        W21891   6.603  11.893  12.161  0.3088 -0.0663 -0.2488
 5758W        W21892  17.850   4.168   9.527  0.1433 -0.0112 -0.0637
 5759W        W21893  15.647  15.180  14.047  0.1307  0.1286  0.0378
 5760W        W21894   1.857   4.266   4.036 -0.1939 -0.0295 -0.1321
 5761W        W21895   0.843   7.659  14.137  0.0026  0.1510  0.0039
 5762W        W21896   3.807  10.227  14.051 -0.0932  0.1313  0.2845
 5763W        W21897   9.107  11.118   1.846  0.0272  0.2741  0.1907
 5764W        W21898   2.046   2.697   1.243 -0.2104 -0.1219  0.1093
 5765W        W21899   3.497   3.497  11.642  0.1389  0.1119  0.0586
 5766W        W21900   1.570  10.943   2.758 -0.0312 -0.1102  0.0068
 5767W        W21901  15.848  14.474  14.811 -0.2555  0.1136  0.2981
 5768W        W21902   7.787  10.882   2.218  0.2316 -0.1733 -0.0877
 5769W        W21903  13.009   8.127  14.587 -0.0278 -0.2921  0.2456
 5770W        W21904   0.275  18.826   3.981  0.1919 -0.2328 -0.0011
 5771W        W21905   6.606  13.116   0.601  0.1784  0.0101  0.0590
 5772W        W21906   2.002   7.608  12.716 -0.2413  0.0847 -0.0652
 5773W        W21907   3.120  16.820   0.224 -0.2168  0.0824  0.0552
 5774W        W21908  14.698   9.464   4.846  0.2460  0.0604  0.3151
 5775W        W21909  12.212  15.779   1.928 -0.0020  0.1313 -0.1840
 5776W        W21910   1.807  15.411   5.184 -0.0957  0.2225 -0.2504
 5777W        W21911   2.782  12.866  13.078 -0.0274  0.1297  0.3724
 5778W        W21912  13.950   6.846  13.578 -0.1301  0.1792  0.2890
 5779W        W21913   3.735  18.316  15.203  0.1643  0.0964 -0.0093
 5780W        W21914   4.186   9.304  13.670  0.2540 -0.2009 -0.0930
 5781W        W21915   4.610  18.843   0.055  0.2496 -0.4009 -0.0345
 5782W        W21916  15.573  16.596   2.615  0.0531  0.2621 -0.0920
 5783W        W21917   3.936  12.086  10.830  0.2714  0.1939 -0.0305
 5784W        W21918   1.868   1.396  13.246 -0.0035  0.1558 -0.0359
 5785W        W21919   6.697  13.347   2.114 -0.2366 -0.1165  0.3267
 5786W        W21920  17.593  11.279  10.265  0.0797 -0.0146  0.1968
 5787W        W21921   9.178  11.314  12.251 -0.2414 -0.0376  0.1915
 5788W        W21922   5.933   8.276   4.581  0.1718 -0.1821 -0.0854
 5789W        W21923  14.028  14.378   1.923 -0.0967  0.1482 -0.1098
 5790W        W21924   3.021  14.853  14.292  0.2746  0.2431  0.1951
 5791W        W21925  18.215  14.437  13.083  0.2827 -0.0743 -0.1546
 5792W        W21926   6.009   0.262   1.162 -0.1144  0.1009  0.2399
 5793W        W21927   2.753   8.655  10.318 -0.2222 -0.2663 -0.1569
 5794W        W21928  10.390   8.915   2.463 -0.3374 -0.2266  0.1705
 5795W        W21929  13.563   0.544  12.893 -0.1130  0.1418 -0.0286
 5796W        W21930   6.193   6.549   1.535  0.0262 -0.2539  0.3634
 5797W        W21931   0.452  11.188  10.336  0.2185 -0.0280 -0.1093
 5798W        W21932   3.299   0.276   3.384 -0.0016  0.0713 -0.3054
 5799W        W21933   2.832   3.233   3.086 -0.3292  0.0307 -0.0823
 5800W        W21934   3.528  13.066  14.798  0.2256  0.0565  0.0101
 5801W        W21935  16.297  12.140   0.461 -0.2006 -0.2563  0.0843
 5802W        W21936   9.754   6.171   0.472  0.1062  0.0423 -0.0327
 5803W        W21937   0.095  14.196   3.578 -0.0856  0.0242  0.3123
 5804W        W21938   3.286   6.214   1.537 -0.2640  0.1112  0.1587
 5805W        W21939   7.037   8.965   1.229  0.2670  0.1015 -0.3556
 5806W        W21940   9.159   3.946   0.238 -0.0463 -0.0316  0.1323
 5807W        W21941   7.867   8.506   4.797 -0.3428 -0.3238  0.2366
 5808W        W21942   2.000  17.981  15.174 -0.3700 -0.0378 -0.1210
 5809W        W21943   9.388  18.463  14.350  0.2231  0.1945  0.4251
 5810W        W21944  10.752  15.767  11.427 -0.3635 -0.1775 -0.2888
 5811W        W21945  16.979  16.022  14.364  0.2046 -0.0253  0.1717
 5812W        W21946  16.882   0.622  10.904 -0.0972 -0.1455  0.0183
 5813W        W21947  12.298   8.553  14.351  0.0398 -0.1993  0.1661
 5814W        W21948  10.787   1.339   4.547 -0.0391 -0.1743  0.2205
 5815W        W21949   6.195  11.364   1.331 -0.0060  0.0636 -0.3102
 5816W        W21950   9.316  14.754   5.070 -0.0946 -0.0232  0.1140
 5817W        W21951  13.596   5.773   3.402  0.0705  0.2391  0.0806
 5818W        W21952   6.964  17.898   5.326 -0.3504 -0.2071  0.0310
 5819W        W21953  13.627  12.244  13.675 -0.0657 -0.1803  0.1046
 5820W        W21954  14.781  15.350  11.127  0.3884 -0.2469  0.2653
 5821W        W21955   1.916  13.037   3.762  0.2648 -0.2228 -0.0524
 5822W        W21956   3.660  16.453   1.604  0.0385 -0.2834 -0.3672
 5823W        W21957  18.615  16.208  12.044 -0.1430 -0.2479 -0.3379
 5824W        W21958   6.772  10.211   2.821 -0.0998  0.1112  0.2040
 5825W        W21959  12.753   1.378   2.587 -0.1582 -0.2281 -0.0416
 5826W        W21960   0.971  14.760  14.428  0.0931  0.0683 -0.1803
 5827W        W21961  13.995   5.271   2.781 -0.0045 -0.1894  0.0522
 5828W        W21962  17.273   3.822  13.286  0.2036 -0.1953 -0.1627
 5829W        W21963  16.529  16.703  12.846  0.1116  0.1889  0.0102
 5830W        W21964   7.361   5.283   4.352 -0.1067 -0.4397 -0.0709
 5831W        W21965  13.708   1.458  14.269 -0.0681 -0.0944  0.3489
 5832W        W21966  17.610  13.114  12.013 -0.0801  0.2914  0.2285
 5833W        W21967  13.621   7.734   1.454  0.0183 -0.1102 -0.0194
 5834W        W21968   8.676  13.754   2.907 -0.2254 -0.0335  0.5294
 5835W        W21969   5.644   7.233   0.733 -0.1620  0.1139 -0.1552
 5836W        W21970   9.622  11.888  11.590 -0.0496 -0.0458 -0.0285
 5837W        W21971   3.049  11.828  13.752  0.1487 -0.1392  0.1758
 5838W        W21972  16.057  10.320   2.012  0.1558  0.1410 -0.0947
 5839W        W21973   0.805   4.805  11.120  0.0819 -0.0962 -0.1379
 5840W        W21974   3.381  15.106   4.117  0.2309  0.0809 -0.3500
 5841W        W21975  10.741  13.056  11.219  0.2000 -0.0388  0.0692
 5842W        W21976  14.139   0.267  13.418 -0.1719  0.0186 -0.1287
 5843W        W21977   7.151  11.515  11.420  0.1299  0.1496  0.0379
 5844W        W21978   4.424   9.601  12.590 -0.2527  0.0914 -0.2731
 5845W        W21979   3.348  17.494   3.252  0.0413  0.0860  0.3302
 5846W        W21980   8.302  11.536   6.043  0.0445 -0.0967 -0.2710
 5847W        W21981   5.118  10.525  14.137  0.0607  0.1681  0.1217
 5848W        W21982  15.836   7.555  14.424  0.0322 -0.0286  0.0979
 5849W        W21983   3.223  14.058  10.979  0.2395  0.2200  0.1412
 5850W        W21984  14.955   2.886   3.118  0.2735  0.2434  0.1131
 5851W        W21985   8.300  13.868  13.515 -0.1637 -0.2312  0.1472
 5852W        W21986  11.562  17.550   4.246  0.0071  0.0351 -0.3391
 5853W        W21987   2.045  18.081   9.993 -0.3472  0.1426 -0.2438
 5854W        W21988   1.698   1.059   3.912  0.3448  0.0985 -0.0307
 5855W        W21989   2.297   8.913  13.058 -0.1483 -0.0388  0.0392
 5856W        W21990   0.789   4.702  13.129 -0.0217 -0.0758 -0.2396
 5857W        W21991  11.794   9.528  11.883 -0.1462  0.2534  0.2425
 5858W        W21992   9.721  16.050   4.779 -0.1578  0.0401 -0.1760
 5859W        W21993   6.869   1.473  15.065 -0.3592 -0.1706 -0.1267
 5860W        W21994  12.868  11.684   2.779 -0.0757 -0.4433  0.0154
 5861W        W21995   5.638   7.177  12.563  0.5795  0.7288  0.0509
 5862W        W21996   3.089  17.966  14.417 -0.0290 -0.0696  0.1993
 5863W        W21997  16.316   2.494  13.316 -0.0495  0.3514  0.0613
 5864W        W21998   9.441  18.787  11.137  0.2442 -0.0134 -0.0021
 5865W        W21999  11.710   2.398   0.172  0.1292  0.1252 -0.2080
 5866W        W22000  15.032   7.278  13.911 -0.4297 -0.1222 -0.1260
 5867W        W22001  16.115   5.837  15.179  0.1186  0.0478 -0.3099
 5868W        W22002  17.657  17.342   1.331 -0.0668 -0.1588 -0.3882
 5869W        W22003  14.568  17.282   0.022  0.4857 -0.0117  0.0263
 5870W        W22004   9.588   7.326   1.213 -0.1307 -0.1327  0.1538
 5871W        W22005  15.403  18.639  11.128 -0.1752 -0.0682 -0.0795
 5872W        W22006   2.786  19.048  14.403 -0.4077 -0.1054 -0.0152
 5873W        W22007   8.904  16.750   1.722  0.0271 -0.2826  0.0450
 5874W        W22008   9.082  17.022   4.891  0.3179  0.1500  0.0252
 5875W        W22009  15.115  17.289   4.465  0.1534 -0.3634  0.1371
 5876W        W22010  10.513   9.828   0.961  0.2140  0.1474  0.3600
 5877W        W22011  16.628  15.116  11.792 -0.0013 -0.3841 -0.1029
 5878W        W22012   5.773   3.412  11.312 -0.0342  0.3531  0.2284
 5879W        W22013   6.603  12.091   0.064 -0.0513 -0.1259 -0.0449
 5880W        W22014   9.477  17.069  15.142  0.0068 -0.0574 -0.3882
 5881W        W22015  18.187  17.008   1.280  0.0056 -0.0607 -0.0698
 5882W        W22016  12.779  10.577   4.702  0.1302 -0.1468 -0.1452
 5883W        W22017   4.744  10.374   4.179 -0.0758 -0.4270 -0.2135
 5884W        W22018   7.249  12.852  13.725  0.0309  0.1301 -0.3225
 5885W        W22019   9.721  17.706   4.226  0.0301 -0.1090 -0.1642
 5886W        W22020   3.896   1.349  14.930 -0.0995 -0.4298  0.0158
 5887W        W22021  10.256   3.088  10.959  0.1560  0.2797  0.2904
 5888W        W22022  18.992   1.367  12.572  0.0720 -0.0078  0.0657
 5889W        W22023  13.273   0.212   2.361 -0.1297  0.0996  0.1089
 5890W        W22024  12.226  10.686   4.505 -0.0187 -0.3472 -0.1988
 5891W        W22025  17.525   1.730   0.847 -0.0264  0.5232 -0.1325
 5892W        W22026   2.260   2.666   2.121 -0.3301  0.1860 -0.3965
 5893W        W22027   8.782   1.504   3.572  0.2335  0.1014  0.3880
 5894W        W22028   6.041   1.075  14.631  0.0506  0.3109  0.2224
 5895W        W22029  15.015   9.425  11.358  0.1586  0.0378  0.0160
 5896W        W22030   1.899   8.172  14.029  0.1330 -0.3155 -0.2242
 5897W        W22031  17.956  17.908   1.887 -0.0645  0.2839 -0.2385
 5898W        W22032   7.894  11.096  14.540 -0.3197  0.1097  0.1762
 5899W        W22033   2.160  10.916  12.821  0.4677 -0.0337 -0.2649
 5900W        W22034   6.859  15.729  11.251 -0.1170  0.2420 -0.0479
 5901W        W22035   2.310  15.108  14.443  0.1699 -0.0932  0.2833
 5902W        W22036   6.356   0.781  10.405  0.4759  0.0168 -0.2008
 5903W        W22037   6.763  15.440  13.919  0.3710 -0.0086  0.0959
 5904W        W22038   6.692  15.375  13.409  0.1116  0.1647 -0.0159
 5905W        W22039  12.466  10.498   3.990  0.0967 -0.1504 -0.0803
 5906W        W22040  13.851   6.377  13.577 -0.1493  0.1646  0.2072
 5907W        W22041  10.240   6.234   2.809  0.2492  0.3210  0.3188
 5908W        W22042   5.997  15.211   5.262  0.0245  0.1884 -0.0364
 5909W        W22043   6.943  12.547   6.194 -0.0634  0.0126 -0.0405
 5910W        W22044   7.094   1.597  14.664 -0.0042 -0.1583  0.0177
 5911W        W22045   0.462   3.307   2.457 -0.0526 -0.1980  0.1197
 5912W        W22046   5.326  15.716   3.078  0.1964  0.0487 -0.0327
 5913W        W22047   2.465   1.654   4.821 -0.0582  0.2067  0.0589
 5914W        W22048  10.612  12.883  14.980  0.1352 -0.1651 -0.3026
 5915W        W22049  11.966  10.021   1.777  0.1036 -0.1360 -0.0562
 5916W        W22050  17.905  12.994   1.074 -0.5475  0.2603  0.1224
 5917W        W22051   8.623  19.113  13.305  0.0513 -0.3330  0.2058
 5918W        W22052   0.505   7.400   2.173  0.0116 -0.1002 -0.1015
 5919W        W22053   5.170   3.313   1.063 -0.0816  0.0697 -0.1419
 5920W        W22054   8.523   2.874  11.651  0.0899  0.0515  0.0598
 5921W        W22055  14.303   5.467  13.758  0.0954  0.1854  0.0734
 5922W        W22056   9.191   6.710   3.171 -0.1814 -0.0209  0.1841
 5923W        W22057  12.967   6.886  14.984 -0.0986 -0.0683 -0.4519
 5924W        W22058   6.634  17.586   1.291 -0.0779 -0.0914 -0.0597
 5925W        W22059   8.387  13.871   1.626  0.1712 -0.2061 -0.0656
 5926W        W22060  12.724  12.602   3.282  0.0434 -0.4119  0.1287
 5927W        W22061  11.816   7.725  10.672 -0.1590 -0.0560  0.0416
 5928W        W22062  13.323  16.027  13.407 -0.1105 -0.2829  0.0561
 5929W        W22063  11.983  14.094  13.018 -0.0414  0.0439  0.1751
 5930W        W22064  13.646  12.588   3.423 -0.0543  0.0108 -0.2735
 5931W        W22065  15.444  16.289  10.080 -0.1024  0.1100 -0.0926
 5932W        W22066  18.633   8.640   1.828  0.4033 -0.1920 -0.0564
 5933W        W22067  15.571  11.752   0.146  0.1919  0.1931 -0.0528
 5934W        W22068  12.864   0.210   1.515  0.3221  0.4339 -0.1783
 5935W        W22069  16.525  18.033   4.336  0.2453  0.3488 -0.2239
 5936W        W22070   1.921  17.556   0.263  0.1473  0.1355 -0.1325
 5937W        W22071   7.579  17.674   4.869  0.1641  0.0522 -0.2874
 5938W        W22072  13.339   9.477  10.593  0.3099 -0.0549 -0.0579
 5939W        W22073  14.207  17.070  13.471  0.1380  0.2481 -0.1200
 5940W        W22074   2.440   1.215  14.108 -0.2337 -0.0273  0.1752
 5941W        W22075  17.991   7.857  14.308  0.1366 -0.2674 -0.0134
 5942W        W22076   9.165   9.601  10.697  0.1307 -0.0238 -0.1216
 5943W        W22077  12.838  11.509   3.796 -0.1036 -0.0823  0.3362
 5944W        W22078   6.602  15.548  11.608  0.1556  0.1862 -0.3648
 5945W        W22079  13.330  17.727   2.570  0.1794 -0.1063 -0.0327
 5946W        W22080  10.657  17.201   1.795 -0.0663  0.2054  0.0069
 5947W        W22081   9.915   8.631  11.865  0.0113  0.0019 -0.0390
 5948W        W22082  14.291   6.276   0.168 -0.4499  0.1386 -0.0739
 5949W        W22083  11.966  11.281   2.299  0.3093 -0.4055  0.3443
 5950W        W22084  16.250   5.563  12.636 -0.1995  0.0082  0.2284
 5951W        W22085   0.598   7.466   0.398  0.1245  0.1844  0.0715
 5952W        W22086  13.260   1.104  13.415 -0.0361 -0.3188  0.0288
 5953W        W22087   3.197  10.524   1.236 -0.3365  0.0427 -0.0236
 5954W        W22088  15.198  18.224   0.585 -0.1952  0.1980 -0.2622
 5955W        W22089  18.995   9.575   4.514  0.0435 -0.2603 -0.0596
 5956W        W22090  14.170   3.994  13.349 -0.0353 -0.1501  0.1371
 5957W        W22091  16.866   5.324   0.023 -0.1363 -0.1091 -0.0592
 5958W        W22092   3.697   5.779   0.882  0.1371  0.1050 -0.2734
 5959W        W22093   3.263   3.151   3.762 -0.2786 -0.0034  0.3745
 5960W        W22094   5.282  13.229   5.971 -0.0047 -0.1464  0.1797
 5961W        W22095  13.352  14.554   1.269  0.3318 -0.0817  0.2723
 5962W        W22096   8.421   2.150   1.115 -0.1149 -0.2321 -0.0423
 5963W        W22097   2.138  10.068  12.414 -0.1012  0.1167  0.1746
 5964W        W22098   3.428  18.079   2.152 -0.2001  0.0086  0.2557
 5965W        W22099   5.056  13.127   5.445 -0.2747  0.0735 -0.0136
 5966W        W22100  13.956  10.995  10.429  0.0062  0.1778  0.0756
 5967W        W22101  10.440   9.164  14.194 -0.0789  0.3749  0.2332
 5968W        W22102   9.689   5.927  14.888  0.1061  0.1540  0.1215
 5969W        W22103   7.210   6.250   4.653 -0.0582  0.0053 -0.2497
 5970W        W22104   5.207   0.522   1.859  0.0643 -0.1547 -0.2800
 5971W        W22105  16.143  16.554   0.303  0.1738  0.0299 -0.0752
 5972W        W22106  12.694  10.137  11.676 -0.0065 -0.2242 -0.2154
 5973W        W22107  18.169   4.577   0.027  0.0094  0.0650 -0.4530
 5974W        W22108  11.680  11.790  14.587  0.1411  0.0867 -0.2807
 5975W        W22109  16.704  17.236   4.253 -0.0518  0.0918  0.2825
 5976W        W22110  18.392  16.993   2.098 -0.0435  0.2568 -0.1644
 5977W        W22111  16.864   9.927  11.395 -0.0936 -0.0018  0.1920
 5978W        W22112   9.793   8.166   4.818  0.4279 -0.0232  0.1641
 5979W        W22113   2.868   4.786  11.022 -0.1767  0.1534  0.0581
 5980W        W22114   0.265  12.705   3.655 -0.0208  0.1238 -0.0442
 5981W        W22115  13.674  11.288  11.727 -0.0673  0.2073  0.2036
 5982W        W22116  14.355  16.591   2.411 -0.0301 -0.0871  0.4649
 5983W        W22117  10.956   3.325  14.585  0.3454  0.1113 -0.3299
 5984W        W22118   6.119   6.542   5.064 -0.1935 -0.1580  0.5395
 5985W        W22119  10.203  17.584   4.226  0.0234 -0.0064  0.1589
 5986W        W22120  16.367   1.451  11.995 -0.2284  0.1208  0.1336
 5987W        W22121   3.878   2.435  14.053 -0.0220  0.0829  0.0234
 5988W        W22122   1.950  17.050  13.359  0.0455  0.1603 -0.0431
 5989W        W22123  16.028  13.679   2.137 -0.1437 -0.4365  0.2070
 5990W        W22124  18.843   3.645   5.306  0.1642 -0.0518 -0.4011
 5991W        W22125   8.462  13.079  11.702  0.0202 -0.1003  0.2804
 5992W        W22126  13.711  17.156   0.831  0.0764 -0.0968  0.3515
 5993W        W22127   7.238   8.129   1.508  0.2803  0.2909 -0.2326
 5994W        W22128  17.911  16.504   1.191  0.0460  0.2842  0.1489
 5995W        W22129  19.062  14.987  12.749 -0.2010 -0.0518  0.2364
 5996W        W22130   7.960  15.277  10.904  0.4983  0.0615 -0.1916
 5997W        W22131  12.961  18.452   2.772  0.0690  0.0141 -0.1639
 5998W        W22132  12.095  13.543  14.176 -0.0333 -0.1856 -0.0255
 5999W        W22133  13.289   9.972   4.097  0.3294 -0.1979 -0.0949
 6000W        W22134  12.962   3.371   0.883  0.2770 -0.4055  0.2160
 6001W        W22135   0.014  17.860   1.435  0.1661  0.1898 -0.2954
 6002W        W22136   6.569   5.576   3.526  0.0006 -0.0635  0.2307
 6003W        W22137   2.769  11.617   1.218 -0.0972  0.3328  0.1795
 6004W        W22138   0.360  18.727  12.590 -0.1699 -0.0375  0.0716
 6005W        W22139   7.134  15.796  10.849 -0.2189 -0.0953 -0.0635
 6006W        W22140  13.146   1.259   2.299  0.1010 -0.1474  0.0356
 6007W        W22141   1.608  14.874  10.766  0.2071 -0.0554  0.3177
 6008W        W22142   8.476  15.651   1.863 -0.0319  0.0134  0.1677
 6009W        W22143   8.206   2.405  11.623 -0.1977 -0.0582 -0.2115
 6010W        W22144   2.254  12.324  13.822  0.0199  0.0906  0.0968
 6011W        W22145  10.664   5.908   2.885 -0.1666 -0.0183  0.0330
 6012W        W22146   9.042   2.817   1.168 -0.2932 -0.0587  0.2223
 6013W        W22147  10.311  13.492   3.481  0.3238 -0.0541 -0.0899
 6014W        W22148  15.080   2.011   5.053 -0.0123 -0.1205 -0.0917
 6015W        W22149   9.134   7.775   4.706  0.1043  0.0853 -0.1183
 6016W        W22150  15.950   1.862   1.561  0.4452  0.0544 -0.2696
 6017W        W22151  16.204  17.040  12.629  0.2896 -0.0700 -0.2733
 6018W        W22152   3.661  18.410   3.352 -0.1946  0.1736  0.1152
 6019W        W22153  18.044   9.674  11.148  0.2708 -0.1059 -0.0368
 6020W        W22154  10.377  14.828   3.221 -0.1853  0.1045 -0.1200
 6021W        W22155  17.775   6.950  14.203 -0.1311 -0.0679  0.0758
 6022W        W22156  15.903  10.857  13.969 -0.2367  0.2444 -0.0229
 6023W        W22157  16.988   3.128  10.610 -0.0113  0.0856 -0.3518
 6024W        W22158  10.758   2.288  10.558 -0.0201 -0.0421 -0.1067
 6025W        W22159   0.365   3.406   0.620  0.0167  0.1881 -0.3674
 6026W        W22160   8.980  16.588   5.085  0.0210 -0.1938  0.5589
 6027W        W22161   6.943  17.577   4.373 -0.3187  0.3291 -0.0621
 6028W        W22162   8.372  16.715  13.165  0.1085 -0.0739  0.2815
 6029W        W22163  11.025  12.584  14.964  0.1777  0.0211 -0.1260
 6030W        W22164  14.610  12.251  11.508  0.1083 -0.4545  0.1383
 6031W        W22165   0.875   0.762   4.350 -0.2225 -0.0574  0.4665
 6032W        W22166   2.177   4.391   1.752  0.3920 -0.2238  0.0623
 6033W        W22167   2.782  13.363  10.218 -0.1948  0.1310 -0.1496
 6034W        W22168  16.298   8.898  13.876  0.1226  0.0908 -0.0198
 6035W        W22169   1.343   2.833   5.384  0.0846 -0.0460 -0.0034
 6036W        W22170  17.060   1.910  12.704 -0.0279  0.1643  0.4875
 6037W        W22171   5.243   3.736  10.607 -0.3753  0.1850  0.3979
 6038W        W22172  10.239   6.548  14.892  0.1159  0.1673  0.1274
 6039W        W22173  17.609   1.917  11.121 -0.0900  0.0844  0.4632
 6040W        W22174  19.059  17.376  13.724 -0.1892 -0.0275  0.0188
 6041W        W22175   2.031   9.645  12.710  0.0709  0.0364 -0.0832
 6042W        W22176   5.624   8.014   5.496  0.1333  0.0215 -0.1082
 6043W        W22177  13.716   0.776  13.314 -0.0114  0.0522 -0.2717
 6044W        W22178  17.013   8.542  12.430 -0.0418 -0.1599 -0.0077
 6045W        W22179  15.658  15.057   3.788  0.1375  0.2015  0.0294
 6046W        W22180  10.059  17.347  13.008  0.1022 -0.0779 -0.1860
 6047W        W22181   8.139  15.587   0.007 -0.1112 -0.2024 -0.2403
 6048W        W22182  16.865  11.668   2.799  0.0547  0.4051  0.1493
 6049W        W22183  18.341   8.942  13.837  0.2341  0.0705 -0.0428
 6050W        W22184  17.510  11.685   1.980  0.1306 -0.0987 -0.1347
 6051W        W22185   6.133   0.168  12.994 -0.0416 -0.4105 -0.4705
 6052W        W22186  15.297   9.425   3.684  0.0850  0.2924 -0.0229
 6053W        W22187  13.449   3.754  12.915  0.1299  0.1449  0.1002
 6054W        W22188   0.533   6.866   3.837 -0.3427 -0.2490 -0.1229
 6055W        W22189   7.142   3.175   0.805  0.0596 -0.1798  0.4228
 6056W        W22190  12.458   8.778   1.169  0.1606 -0.1157  0.2338
 6057W        W22191  13.770   1.638   4.771  0.1122  0.0093 -0.0762
 6058W        W22192   5.142   4.469   3.743  0.0306  0.1389  0.2189
 6059W        W22193   7.986   7.003   3.891  0.0071  0.2696  0.0965
 6060W        W22194  16.970  16.480  12.191  0.0839 -0.0855 -0.1005
 6061W        W22195   0.931  19.137   1.548 -0.0508  0.4510  0.2021
 6062W        W22196   4.728   6.706   3.424 -0.3446  0.0404 -0.0760
 6063W        W22197   2.821  15.625  14.745  0.1043 -0.2966 -0.2036
 6064W        W22198   1.120   9.771  13.789 -0.1067 -0.0451 -0.1783
 6065W        W22199   7.244  19.011  13.895 -0.1435 -0.0457 -0.2411
 6066W        W22200   5.665  10.656  11.299  0.2468  0.0765  0.1492
 6067W        W22201  17.300   3.972   0.413 -0.1629  0.0235  0.2705
 6068W        W22202   7.692   0.523  10.555  0.2321 -0.2893 -0.0125
 6069W        W22203  11.363   5.251   4.333 -0.0376  0.1100 -0.1794
 6070W        W22204  17.864   2.429  14.136  0.0178  0.1006  0.0420
 6071W        W22205   1.095   1.852  10.902 -0.0638  0.0983  0.0282
 6072W        W22206   6.648   6.450   4.267 -0.2635 -0.0846  0.0870
 6073W        W22207  14.237  14.919   5.492 -0.4941  0.0569 -0.1529
 6074W        W22208   1.851   9.677  12.236 -0.2684 -0.3337  0.1929
 6075W        W22209   7.492  14.586   5.325 -0.0352  0.1541 -0.4560
 6076W        W22210   6.947  16.499   2.886  0.2573  0.0682 -0.1900
 6077W        W22211  12.731   3.761   1.028 -0.0261  0.0086  0.1191
 6078W        W22212  17.091  16.701   5.013 -0.3605 -0.0439 -0.1424
 6079W        W22213  18.562   7.374   4.101 -0.3618 -0.0960 -0.0331
 6080W        W22214  13.131   6.527  12.395  0.0706 -0.2368  0.1554
 6081W        W22215  15.624   0.911   1.320 -0.5392 -0.2255  0.3276
 6082W        W22216   7.912  14.585   5.027  0.2055 -0.0353  0.2793
 6083W        W22217   0.531   6.758  15.148  0.3156 -0.0946  0.0463
 6084W        W22218  17.805   9.303  14.587  0.0695 -0.2335  0.2779
 6085W        W22219   3.842   4.952  11.896 -0.5083 -0.0070  0.2078
 6086W        W22220   4.575  18.969   4.311  0.2218  0.1040 -0.2848
 6087W        W22221  14.510   7.437   3.839 -0.4298 -0.0902 -0.0163
 6088W        W22222  15.458   7.372  12.758  0.2777 -0.1489  0.1458
 6089W        W22223  10.409   3.208   4.344  0.0238 -0.2098  0.2566
 6090W        W22224   1.350  11.981   5.047  0.0668  0.0036  0.1730
 6091W        W22225   3.884   5.220  10.891  0.1462 -0.1056 -0.1753
 6092W        W22226   3.299   6.388   2.620  0.1321  0.2150  0.0678
 6093W        W22227   4.527   6.908   1.352  0.0387  0.3449 -0.0317
 6094W        W22228  17.593  12.008   2.372  0.1043  0.2529 -0.0953
 6095W        W22229   4.509   2.231   0.461  0.1823 -0.2162  0.0214
 6096W        W22230   1.267   9.459   0.966  0.4565  0.0439 -0.1458
 6097W        W22231  10.847  15.829   0.197  0.1852 -0.0142  0.0435
 6098W        W22232   2.588   6.075   5.484  0.1214  0.2842 -0.1100
 6099W        W22233  12.050   3.071   4.896  0.0617  0.1023 -0.0638
 6100W        W22234   3.337   6.789  12.946  0.1617 -0.1322  0.1188
 6101W        W22235   0.476  15.011   2.844 -0.2978  0.4727  0.1066
 6102W        W22236   9.254   1.992  10.696  0.3973  0.2021 -0.1413
 6103W        W22237  13.593   9.122  14.040  0.0231 -0.0365  0.0192
 6104W        W22238  10.871  10.639   0.769 -0.0138  0.1334  0.2344
 6105W        W22239   5.254  18.574  12.035  0.2028  0.3032 -0.1480
 6106W        W22240   5.743   3.589  12.273 -0.1819 -0.3738  0.2219
 6107W        W22241  18.219   6.181  13.948  0.2556 -0.0855  0.4471
 6108W        W22242  11.315   8.720  11.887 -0.0335  0.0520  0.0532
 6109W        W22243   5.863   4.510   4.802 -0.2035 -0.4090 -0.1710
 6110W        W22244   6.621  13.420  11.138 -0.2836  0.1859 -0.0362
 6111W        W22245   3.947  15.262   1.772 -0.0979 -0.2194 -0.1170
 6112W        W22246   0.905   6.532  11.046  0.1015 -0.2432 -0.1441
 6113W        W22247   3.224  15.134   0.331  0.0103  0.4305  0.2540
 6114W        W22248   3.429   8.311  13.943  0.3857 -0.0642 -0.0366
 6115W        W22249  15.513   5.168   3.016  0.2789 -0.2138  0.4237
 6116W        W22250   0.280   5.186  10.656 -0.0780  0.0171 -0.1068
 6117W        W22251  15.095   6.970   1.006  0.1211 -0.1338  0.0335
 6118W        W22252  12.711   8.171   4.367  0.0018 -0.0380 -0.1430
 6119W        W22253  19.108  12.927  14.940 -0.2205  0.1658  0.1447
 6120W        W22254  13.981   4.242   0.119  0.0462 -0.2156 -0.0902
 6121W        W22255   3.076  16.635   5.811  0.0720  0.0662  0.1516
 6122W        W22256  10.838  18.820   1.305  0.0638  0.0580  0.2925
 6123W        W22257   2.157   5.116   4.023  0.0600 -0.0895  0.0033
 6124W        W22258  16.456   3.594  14.232  0.1473  0.0562  0.0764
 6125W        W22259  12.549   5.651   5.871 -0.1231 -0.0387  0.2337
 6126W        W22260   1.012  12.823   4.014  0.1777  0.3106  0.1930
 6127W        W22261  10.476  12.690   4.439 -0.1720 -0.3291 -0.0358
 6128W        W22262   1.321  11.315  12.294  0.0580 -0.3115  0.0367
 6129W        W22263  12.822   2.852  12.864  0.0005  0.1383 -0.0714
 6130W        W22264  11.555   3.014   2.723 -0.1291 -0.1245  0.0627
 6131W        W22265  13.391  16.034  14.112 -0.2026 -0.3339  0.1244
 6132W        W22266   8.829   5.063   4.760 -0.3722  0.2502 -0.0347
 6133W        W22267  17.156   2.398   4.549  0.1685  0.3599  0.1929
 6134W        W22268   4.341   5.038   1.096  0.3461 -0.2708 -0.0662
 6135W        W22269  16.687   4.937   4.833 -0.0211 -0.0343  0.0223
 6136W        W22270  15.868  11.243  14.299 -0.1069  0.0453 -0.1605
 6137W        W22271   6.806  14.048   3.876  0.0154  0.0343  0.1965
 6138W        W22272   9.554   2.250  14.568  0.2474  0.2464 -0.0591
 6139W        W22273   4.913   7.840   1.125 -0.2849  0.1354  0.2347
 6140W        W22274  14.580   1.912   0.066  0.0029 -0.1196 -0.1280
 6141W        W22275  14.677  16.471  10.248  0.0966 -0.2947  0.2457
 6142W        W22276   8.265   6.306   3.239  0.1850 -0.1179  0.2953
 6143W        W22277   3.535   8.599   2.585 -0.2820 -0.0597  0.1554
 6144W        W22278  18.633  14.568  14.585 -0.1282 -0.0282 -0.0166
 6145W        W22279  15.599   4.317  14.664 -0.1218 -0.2302  0.1210
 6146W        W22280  15.299   5.080   1.598 -0.1649  0.2033  0.3071
 6147W        W22281   0.183  16.054   0.985  0.0861 -0.2899  0.2347
 6148W        W22282  18.280   2.543  10.100 -0.0826  0.0133  0.0629
 6149W        W22283  10.272  18.967  13.708 -0.2592 -0.2224  0.1348
 6150W        W22284  12.889   3.875  13.798 -0.1560  0.0793 -0.1689
 6151W        W22285  17.133   1.013  15.000  0.2952  0.0417 -0.0937
 6152W        W22286  18.055  13.734  13.774 -0.0768 -0.0842 -0.2587
 6153W        W22287  12.561  10.159  14.823  0.3902  0.0760 -0.3579
 6154W        W22288  17.125  13.952  11.036  0.1173  0.0673 -0.0288
 6155W        W22289  11.931  10.544   3.881 -0.1113  0.0682 -0.2191
 6156W        W22290  13.878   4.673   3.735 -0.2427 -0.1766 -0.0874
 6157W        W22291  16.800   1.767  12.135  0.1827 -0.0032  0.1113
 6158W        W22292   4.318   9.934  13.003 -0.4114 -0.1822  0.0759
 6159W        W22293   7.497  16.853  15.183 -0.2675  0.0525 -0.1610
 6160W        W22294   5.402   3.214  10.409 -0.1099 -0.0650  0.2575
 6161W        W22295   3.962   7.319   2.883 -0.0986  0.2015  0.0087
 6162W        W22296  18.905   6.654  11.110 -0.1585  0.2008  0.2553
 6163W        W22297   0.483   5.155  11.127 -0.0552 -0.0172  0.0316
 6164W        W22298   1.663  17.595   1.813 -0.1576  0.0725  0.0008
 6165W        W22299   4.898  15.617  11.021  0.0887 -0.0814  0.1847
 6166W        W22300  12.875   1.039   5.117 -0.2041 -0.0108 -0.0438
 6167W        W22301  18.562  16.465  13.783 -0.0008 -0.2716 -0.1019
 6168W        W22302   1.118  14.068   5.562 -0.1657  0.0121  0.1166
 6169W        W22303  15.713   4.321  12.285 -0.1685  0.1640  0.3410
 6170W        W22304  11.481  13.044   2.129 -0.0306  0.1214  0.1126
 6171W        W22305   1.064  13.973   0.489  0.3314  0.1370  0.3769
 6172W        W22306   6.958  12.937   1.709  0.1776 -0.1000  0.1951
 6173W        W22307   2.615  10.867  14.479  0.0090  0.0964  0.0028
 6174W        W22308  10.966   9.744  12.809  0.1800 -0.1135 -0.2033
 6175W        W22309  18.876  10.538  14.933 -0.0248  0.3078 -0.2759
 6176W        W22310  15.203  10.401  14.905  0.1308 -0.4912 -0.3513
 6177W        W22311   6.667   6.012   2.308 -0.3429 -0.1369 -0.2741
 6178W        W22312  13.308   1.783   4.687  0.1747  0.1192  0.1763
 6179W        W22313   0.773   9.596   1.156  0.1447 -0.2860 -0.0260
 6180W        W22314  16.859  11.586   1.333 -0.2315 -0.2679  0.2186
 6181W        W22315   5.891   8.419  13.279  0.1800  0.0498  0.0893
 6182W        W22316  13.560   0.940  10.211  0.0430  0.0638  0.0378
 6183W        W22317   6.070   3.676   1.294 -0.0283  0.0141 -0.1485
 6184W        W22318  13.332  16.748   1.466  0.0317 -0.1968 -0.1680
 6185W        W22319  11.009   8.475   1.439  0.0707  0.1455 -0.1748
 6186W        W22320  18.495  13.698   1.912 -0.0863 -0.0792 -0.2803
 6187W        W22321   7.000  13.760  11.389  0.2371 -0.0878 -0.2398
 6188W        W22322   9.477   2.215   2.778 -0.1521  0.2108  0.1120
 6189W        W22323   7.676   9.276  11.064  0.2829 -0.2689 -0.1609
 6190W        W22324  15.736   4.223  11.399  0.3196  0.1292  0.0511
 6191W        W22325   5.482   0.960  13.527 -0.0620  0.0246  0.0826
 6192W        W22326   1.381  13.202   3.046 -0.2697 -0.0028  0.1510
 6193W        W22327  16.500  12.496   4.063 -0.1651  0.1570 -0.0343
 6194W        W22328  18.055   0.172  12.580  0.1643 -0.1941 -0.0443
 6195W        W22329  12.306  17.878  11.849  0.4458 -0.2528  0.2985
 6196W        W22330  11.636  11.539  10.658  0.1558  0.0481  0.0738
 6197W        W22331   3.127  14.172   2.002  0.3591  0.2679 -0.0801
 6198W        W22332   8.479  13.719   1.168  0.3759  0.0709 -0.1867
 6199W        W22333  13.057   4.822   0.259  0.1854  0.0007  0.0120
 6200W        W22334  13.126   7.076   2.794  0.3665  0.0472  0.1131
 6201W        W22335   6.494  10.670   3.793 -0.1313 -0.3745 -0.1451
 6202W        W22336   7.465   2.368  10.316 -0.1033 -0.1798 -0.1115
 6203W        W22337   4.297   8.083   2.334  0.1726 -0.0084  0.0886
 6204W        W22338   3.382   5.245  12.837  0.3267 -0.0871 -0.1896
 6205W        W22339   4.354  15.624   1.784  0.0525  0.5612  0.2948
 6206W        W22340   8.089  10.986  13.151 -0.0518 -0.0128 -0.1439
 6207W        W22341   6.242   3.285   1.836 -0.1192  0.2143 -0.2241
 6208W        W22342   9.341  11.528   1.657  0.0296  0.0676  0.0366
 6209W        W22343  14.037  18.631  10.384  0.0278  0.5341 -0.1107
 6210W        W22344   8.232  12.158   4.010 -0.0329 -0.1090  0.0062
 6211W        W22345  13.421  13.445   2.373 -0.2182 -0.2901  0.1589
 6212W        W22346   9.938  16.033   1.584 -0.2039  0.3112  0.2495
 6213W        W22347  16.670  15.507   0.437 -0.0825 -0.3383  0.0651
 6214W        W22348   1.320  13.768  13.072  0.0543 -0.0939  0.3027
 6215W        W22349  14.028  10.461  10.140  0.0136  0.0222 -0.4405
 6216W        W22350   9.805   7.934   3.325  0.0471 -0.3562 -0.1148
 6217W        W22351   7.245   6.567  11.005  0.2820  0.1667  0.1666
 6218W        W22352   0.303   5.707   0.687 -0.2813  0.1133 -0.1129
 6219W        W22353   2.503  12.336  13.377 -0.1792 -0.0003 -0.1221
 6220W        W22354   5.947   7.756  15.087 -0.1880  0.2264  0.3101
 6221W        W22355  12.205   6.532   3.615 -0.2319  0.0584 -0.1023
 6222W        W22356   7.621  12.594   0.148 -0.0231 -0.1273  0.0709
 6223W        W22357  15.050  10.804  11.846  0.1969 -0.0331 -0.0521
 6224W        W22358  14.020  15.605  11.077  0.1047  0.1826 -0.0145
 6225W        W22359   9.416   1.153   2.226  0.0239  0.2182 -0.1060
 6226W        W22360  17.471  11.229   4.307  0.0841 -0.0783 -0.2534
 6227W        W22361   9.478   1.408  14.423 -0.4617 -0.0015 -0.3425
 6228W        W22362  12.889  15.600   1.468 -0.1947  0.0543 -0.0357
 6229W        W22363   5.393  16.333  12.196 -0.0773 -0.2872 -0.5046
 6230W        W22364  17.382  16.732   4.170 -0.1835 -0.0299 -0.1631
 6231W        W22365   7.897   9.308  11.684 -0.0871  0.0434 -0.0181
 6232W        W22366   4.553   9.757   0.414  0.0586 -0.0009 -0.2555
 6233W        W22367   1.112  10.630   2.550  0.1587  0.2567 -0.1100
 6234W        W22368  11.155   7.931  15.006  0.2138 -0.0395  0.3149
 6235W        W22369   7.682   4.318   2.651 -0.1225  0.1418  0.1844
 6236W        W22370  18.153  12.199   4.587 -0.2941  0.2256  0.3972
 6237W        W22371   6.389  10.163  11.141  0.0199  0.3411  0.3482
 6238W        W22372   3.371   9.078   2.628 -0.3839  0.1629  0.0303
 6239W        W22373  17.579  16.331   3.979 -0.1829 -0.0742  0.1896
 6240W        W22374   6.781   6.131  11.668  0.0884 -0.1980  0.2293
 6241W        W22375  12.707   2.210   2.156  0.3274 -0.2107  0.4059
 6242W        W22376  18.568  10.514  11.427 -0.0376  0.0219 -0.0895
 6243W        W22377   9.229   2.731  13.154 -0.0552  0.0293 -0.1399
 6244W        W22378   8.396  16.124  12.285 -0.1106 -0.2018 -0.1066
 6245W        W22379   0.200  14.182  12.293  0.1832 -0.1656  0.1229
 6246W        W22380  11.866  10.169   0.921 -0.1017 -0.1245 -0.0658
 6247W        W22381   4.483  13.008   0.456  0.0096  0.1236 -0.1864
 6248W        W22382  10.139  13.059   4.610  0.2222 -0.0055 -0.0921
 6249W        W22383  13.513  18.619   0.157 -0.0610 -0.2088  0.3909
 6250W        W22384  14.385   8.845  11.774  0.2233  0.0261 -0.0946
 6251W        W22385   3.867  12.481   4.416  0.0376  0.0978  0.0410
 6252W        W22386  16.310   9.538  14.727  0.2023 -0.1009 -0.0269
 6253W        W22387   5.110   7.881   4.735  0.0724 -0.0179 -0.1008
 6254W        W22388  15.147  10.408   0.364 -0.1550 -0.2803 -0.1210
 6255W        W22389  10.812   4.259   3.873 -0.0244 -0.2987 -0.0035
 6256W        W22390   3.564  16.521   4.961  0.1172  0.2011 -0.0443
 6257W        W22391   2.322   1.450   1.763  0.0101 -0.1907  0.1380
 6258W        W22392   1.955   4.159   2.585 -0.0395  0.1302 -0.3761
 6259W        W22393   5.479  17.459  13.417 -0.0118 -0.1569  0.0599
 6260W        W22394   7.824  12.510  11.442  0.0804  0.0318  0.1245
 6261W        W22395   3.884  15.923  14.892 -0.0093 -0.1022 -0.0907
 6262W        W22396   2.494   2.748   5.440  0.0324  0.0877  0.1135
 6263W        W22397  11.296   8.488  13.495  0.0595  0.0322  0.0052
 6264W        W22398   3.668   2.082  11.900 -0.2292 -0.2311 -0.1233
 6265W        W22399   8.911   6.652  12.166 -0.0942 -0.0489  0.3355
 6266W        W22400  11.366   4.800   0.856  0.1128  0.1093  0.1390
 6267W        W22401   3.201   9.212  13.654 -0.1600  0.3327  0.1303
 6268W        W22402  17.003   2.327  13.704 -0.1920  0.0214  0.2223
 6269W        W22403   3.084  18.410   1.909  0.0691 -0.3218  0.0427
 6270W        W22404  12.504   1.066  10.522 -0.0202 -0.0714  0.0087
 6271W        W22405   7.796   3.931   2.206 -0.1456 -0.2685  0.3377
 6272W        W22406  11.309  11.015  12.649 -0.1094  0.1606  0.4539
 6273W        W22407   4.759   8.383   0.930 -0.1017  0.0344  0.1050
 6274W        W22408  13.810   3.455   2.943 -0.1250  0.0627 -0.0481
 6275W        W22409  18.020   9.103   4.834 -0.3501 -0.0547  0.2428
 6276W        W22410   4.329   3.942   3.730  0.0882  0.1439 -0.0011
 6277W        W22411  11.778  11.968   1.124  0.0440  0.0712 -0.0208
 6278W        W22412  13.454   7.159  11.484  0.0186  0.0856  0.2665
 6279W        W22413   8.453   0.894   1.041 -0.3024 -0.3080 -0.1621
 6280W        W22414   6.583   7.702   0.255 -0.2009 -0.4929  0.5201
 6281W        W22415  16.921   6.839   5.204 -0.0675  0.0444 -0.0067
 6282W        W22416   2.360  11.542  14.473  0.0138 -0.4083 -0.3485
 6283W        W22417   7.389  11.900  12.731 -0.1815 -0.2154  0.0508
 6284W        W22418  10.234  12.566  10.601 -0.0484 -0.0714  0.2003
 6285W        W22419  15.804   1.211  12.796 -0.0428  0.1952  0.5178
 6286W        W22420  16.718  11.685  12.273 -0.0710  0.0642  0.2005
 6287W        W22421  18.170  17.521   1.154  0.2129  0.2097 -0.0668
 6288W        W22422  15.846  17.436   2.332 -0.0139  0.2128 -0.1572
 6289W        W22423   4.442  14.052   3.429  0.1383 -0.0767  0.0419
 6290W        W22424  15.082   6.310  10.375 -0.3044  0.2986  0.1696
 6291W        W22425  11.128   6.949  13.702 -0.3784  0.1587  0.1791
 6292W        W22426  14.385  12.617  13.045 -0.0338  0.1665 -0.0023
 6293W        W22427   6.043   9.708   2.432 -0.3016 -0.0155  0.2083
 6294W        W22428  17.718  14.411   3.466  0.2328  0.0335  0.1003
 6295W        W22429   5.201   0.428   4.672  0.3631  0.0664 -0.1735
 6296W        W22430   8.343   1.064  11.789  0.0958 -0.0856  0.0914
 6297W        W22431  10.750  12.380   0.161 -0.0730  0.2477 -0.1749
 6298W        W22432  15.614   5.037  14.300  0.1870 -0.0416  0.0585
 6299W        W22433  15.775   1.526   0.239 -0.0885 -0.0618 -0.2273
 6300W        W22434  13.093  16.495  13.416 -0.4151  0.4578 -0.0709
 6301W        W22435   8.862  15.960   1.051  0.3082  0.0970  0.1617
 6302W        W22436  10.398   6.172   3.378 -0.1433  0.1560 -0.1297
 6303W        W22437  18.653   6.318  14.277  0.1355 -0.4070 -0.0649
 6304W        W22438  13.073   0.865  12.858  0.0122  0.1852 -0.0790
 6305W        W22439   9.345  15.137  12.348 -0.2615 -0.0541  0.3411
 6306W        W22440   3.898   1.619  12.457  0.2652 -0.2939  0.0052
 6307W        W22441   4.293  14.655   1.626  0.1113  0.1492  0.0159
 6308W        W22442   4.816  17.321  14.320  0.1517 -0.0132 -0.0364
 6309W        W22443  12.323   9.940  10.493 -0.1849  0.0624  0.1885
 6310W        W22444   2.232  13.437   9.821 -0.2853 -0.3830  0.1406
 6311W        W22445  16.415   5.756   1.061  0.0862  0.4648 -0.2839
 6312W        W22446   6.074   1.714   5.335 -0.0486 -0.0016 -0.0277
 6313W        W22447  11.839  18.478   1.113  0.1540 -0.1319 -0.0486
 6314W        W22448  18.349   4.498   2.926 -0.0514  0.1327 -0.2838
 6315W        W22449  14.236  18.997   4.485 -0.0430 -0.2758 -0.1168
 6316W        W22450  17.440   5.704  11.059  0.0764 -0.1439  0.2039
 6317W        W22451   3.494   6.477   3.060 -0.1421  0.1382 -0.0888
 6318W        W22452   1.344  19.033  11.307 -0.1441  0.0076  0.0821
 6319W        W22453  16.637   6.355  11.784  0.1806 -0.1405  0.0377
 6320W        W22454   9.646   4.217  12.696  0.0553  0.0609 -0.0449
 6321W        W22455  10.887   7.614   1.039 -0.0850 -0.2214 -0.0663
 6322W        W22456   5.273  13.880   2.463 -0.1104  0.0959  0.0551
 6323W        W22457   1.334  10.247  12.585  0.3946 -0.4680  0.1088
 6324W        W22458   3.411   1.793  12.297 -0.3319  0.0808 -0.0017
 6325W        W22459  10.462   5.345   1.212 -0.0921  0.0823 -0.1635
 6326W        W22460   7.601   0.190  14.033 -0.3401  0.2980 -0.1169
 6327W        W22461  16.904  17.568   4.977  0.1866  0.1258 -0.0532
 6328W        W22462   1.134  17.780   1.514  0.5471  0.1380  0.0943
 6329W        W22463   8.093  12.520   3.164 -0.0045  0.0506  0.2954
 6330W        W22464  17.619   6.684   9.609 -0.0458  0.0286 -0.0178
 6331W        W22465   4.733  13.316   5.793  0.2589  0.1898 -0.1509
 6332W        W22466  12.455  12.255  13.527  0.0711 -0.1124 -0.1126
 6333W        W22467   5.233  12.871  12.937 -0.0256  0.2732  0.2391
 6334W        W22468  15.581   7.013  10.433 -0.1901 -0.0933 -0.1088
 6335W        W22469   6.152  11.269  13.711 -0.1504 -0.4090  0.2354
 6336W        W22470  18.874   3.961   0.236 -0.0127 -0.2922  0.1250
 6337W        W22471   5.632   3.433   3.038 -0.2462  0.2721 -0.1031
 6338W        W22472  12.675  19.019  14.800  0.0519  0.1354  0.3571
 6339W        W22473  16.111   7.467  12.081  0.0701 -0.1150  0.2612
 6340W        W22474  18.251  10.508  11.052  0.1240 -0.3357 -0.4105
 6341W        W22475   2.356   5.812  11.803 -0.3298 -0.0537  0.0432
 6342W        W22476   3.648  17.316  11.320  0.1439 -0.4134  0.2979
 6343W        W22477   1.865  18.480  11.619  0.0033  0.0039  0.0001
 6344W        W22478  16.445  10.487  13.095 -0.3622  0.1251 -0.0990
 6345W        W22479   0.707   4.822  14.650 -0.0995 -0.0264  0.3560
 6346W        W22480  12.582   7.364   2.182 -0.0135 -0.0335  0.1962
 6347W        W22481   6.346   6.539  12.207 -0.2146 -0.3060  0.0696
 6348W        W22482  14.388   0.172   2.025  0.2780  0.2819  0.0857
 6349W        W22483   7.522   3.222  13.143 -0.0944 -0.1426  0.1287
 6350W        W22484  18.714   1.085  10.869 -0.1746  0.0949 -0.1737
 6351W        W22485  13.236  19.064  15.069  0.1444  0.0010  0.2157
 6352W        W22486  15.618  17.714   1.918  0.1917  0.0613 -0.4246
 6353W        W22487  13.964  16.562  11.561  0.3375  0.3718 -0.3217
 6354W        W22488  11.135   4.160   3.477 -0.1892  0.1061  0.5325
 6355W        W22489  17.901  14.388   3.956 -0.0409 -0.0178 -0.1347
 6356W        W22490  11.928  14.665  14.747  0.6165  0.2660 -0.0898
 6357W        W22491  11.025   3.326   1.391  0.0084 -0.2671 -0.1860
 6358W        W22492   8.224  17.488   4.902 -0.1192 -0.1649  0.2133
 6359W        W22493   2.062   0.321   2.766  0.1615 -0.0162  0.0851
 6360W        W22494   0.259   5.900   1.858 -0.0216  0.1030 -0.0422
 6361W        W22495  13.611  14.739   0.565  0.0420 -0.2495  0.2398
 6362W        W22496   6.011  14.839   3.141 -0.0046 -0.0581  0.0356
 6363W        W22497  15.124  16.823   0.058  0.0524  0.0479  0.1371
 6364W        W22498   3.983  18.183   0.467 -0.1975 -0.0283 -0.0647
 6365W        W22499   9.291  15.252  12.842  0.3988  0.1551 -0.1957
 6366W        W22500   7.118  11.477  10.587  0.0763 -0.3116 -0.1264
 6367W        W22501   2.336   9.846  11.573  0.2408 -0.1226  0.2724
 6368W        W22502  17.004  14.745  12.536  0.1091 -0.4310  0.0508
 6369W        W22503  10.817   3.407   0.877 -0.0749 -0.0772 -0.2378
 6370W        W22504  13.517  14.174  14.615  0.1298  0.1712 -0.3487
 6371W        W22505   0.601  16.229  15.104  0.1015  0.5528  0.0890
 6372W        W22506   3.946  13.252  13.904 -0.0374  0.0335  0.2058
 6373W        W22507   3.387   0.853   4.456 -0.1121 -0.1687 -0.1561
 6374W        W22508  14.295   8.007   0.511  0.0204  0.2616  0.2439
 6375W        W22509   3.750   5.562   4.467 -0.2816  0.0181 -0.2038
 6376W        W22510   1.486  11.409   3.766 -0.2489 -0.0313  0.4000
 6377W        W22511  16.020   6.737  14.087  0.0946  0.1003  0.3112
 6378W        W22512   1.880  11.107   0.068  0.0390 -0.0972  0.2124
 6379W        W22513  10.093   7.367   4.681  0.1586 -0.2537  0.0179
 6380W        W22514  15.584  10.816   3.598  0.3247  0.1214  0.1216
 6381W        W22515   3.964   9.267   5.374 -0.1520 -0.0345  0.3818
 6382W        W22516   6.687   2.134  13.359 -0.0970  0.1465 -0.1467
 6383W        W22517  13.000   9.600  12.848 -0.1368  0.0675 -0.2116
 6384W        W22518   3.576   1.321   0.371 -0.1187 -0.0140 -0.1810
 6385W        W22519  17.404  15.360  11.571  0.3677 -0.1329  0.1431
 6386W        W22520   2.540  15.013   3.761  0.1364  0.2424 -0.1615
 6387W        W22521   2.134   8.119   3.219  0.3427 -0.0142  0.3304
 6388W        W22522  16.743   3.206  11.139 -0.3958  0.1819 -0.0144
 6389W        W22523   2.663  18.022  11.255  0.1947 -0.2677 -0.0815
 6390W        W22524  13.259   3.024   0.577  0.1804 -0.0307  0.1193
 6391W        W22525   5.720   7.317  11.258  0.1603 -0.2216 -0.2534
 6392W        W22526  16.937   4.157   3.746  0.3051 -0.1185  0.0034
 6393W        W22527   9.300   8.792   2.172 -0.0687 -0.0073 -0.0113
 6394W        W22528   2.406  17.609  10.981  0.2865  0.4243 -0.0589
 6395W        W22529   7.489  15.926  14.611  0.1063 -0.0821 -0.0224
 6396W        W22530  15.407   3.378  14.749  0.1144  0.3122  0.2722
 6397W        W22531  10.625   5.717  11.436  0.2705 -0.2436 -0.0593
 6398W        W22532   0.670  17.137  14.163  0.2109 -0.1668 -0.0764
 6399W        W22533  15.741  11.867  11.346  0.0277 -0.1237 -0.0996
 6400W        W22534   8.388   3.150  11.181  0.0304  0.0442  0.0643
 6401W        W22535  16.348   2.914  12.284 -0.0227 -0.0135 -0.3700
 6402W        W22536   5.079   7.974  12.086 -0.0588  0.1167  0.0856
 6403W        W22537  16.573  13.661   3.825  0.2499  0.2278 -0.1622
 6404W        W22538   1.094  13.309   4.173 -0.2582 -0.1484 -0.0967
 6405W        W22539   3.075   9.221  11.615 -0.2694  0.1293  0.1113
 6406W        W22540   5.781  14.298   1.115  0.1015  0.0108 -0.0159
 6407W        W22541  15.813   1.043  14.244  0.2817 -0.0905  0.2960
 6408W        W22542  10.375  18.682   4.985  0.0477 -0.1368  0.0776
 6409W        W22543  17.802   3.831  14.604 -0.3593  0.0658 -0.1833
 6410W        W22544  18.978   2.171  12.509 -0.2297 -0.0684 -0.0643
 6411W        W22545  17.095  13.747   4.748 -0.3086 -0.0162 -0.0147
 6412W        W22546  14.196   2.368   2.548  0.2448  0.0041  0.1616
 6413W        W22547   2.334   8.031  14.247  0.1689  0.1152 -0.5012
 6414W        W22548   7.104   4.397  12.214 -0.1885  0.3912 -0.1466
 6415W        W22549   6.924  17.081   2.641 -0.0938  0.1701 -0.3393
 6416W        W22550   8.588  18.457   0.397 -0.0357  0.2748  0.2744
 6417W        W22551  15.662   1.005   5.802  0.1526  0.2765 -0.2038
 6418W        W22552  17.792   8.166   1.909  0.2170 -0.0513  0.1505
 6419W        W22553   1.554  18.895   2.181 -0.0081 -0.1105 -0.3883
 6420W        W22554  11.225   7.573   2.262 -0.0879 -0.0510  0.1074
 6421W        W22555  15.868  11.100  13.469  0.1059  0.1243 -0.2686
 6422W        W22556   8.728  16.256  11.867  0.0097 -0.0776  0.0525
 6423W        W22557   7.841   7.291  11.391  0.0605 -0.0205 -0.1701
 6424W        W22558  12.993   3.250  10.889  0.2070  0.1789  0.0063
 6425W        W22559   7.725  14.119   4.133  0.2450 -0.0711  0.1780
 6426W        W22560  12.096   6.557  14.877 -0.3026 -0.3567 -0.1119
 6427W        W22561  16.182   0.067  11.886 -0.1363 -0.0210 -0.1389
 6428W        W22562   3.325   8.951  14.814 -0.0402 -0.1109 -0.0724
 6429W        W22563  10.750  10.523   3.263 -0.1449 -0.2267 -0.0406
 6430W        W22564   2.430  17.165  12.613 -0.3510 -0.2174 -0.0451
 6431W        W22565  17.646   9.298   5.273  0.1441 -0.0878 -0.0197
 6432W        W22566   3.472   3.243   0.359 -0.1665  0.2028 -0.0912
 6433W        W22567   9.737  10.422   5.302  0.0009  0.4287  0.1464
 6434W        W22568  15.823   6.160  10.729  0.1098 -0.2237 -0.1372
 6435W        W22569   3.262  18.489   2.425  0.1554  0.1724  0.6512
 6436W        W22570  11.311  14.144  12.185 -0.2592  0.0460  0.0262
 6437W        W22571   1.541  13.024   4.117 -0.0595 -0.2218 -0.0668
 6438W        W22572   1.004   1.034  10.436 -0.1509  0.0252  0.1104
 6439W        W22573   2.155   7.191   2.137 -0.1738  0.1594 -0.2540
 6440W        W22574   7.761  11.047   0.783 -0.2509 -0.1759  0.0675
 6441W        W22575   6.404  17.599   4.500 -0.1132 -0.3179  0.1301
 6442W        W22576  16.961  15.495  11.847 -0.2208  0.0928 -0.0177
 6443W        W22577  14.882  12.713   2.009  0.0356 -0.1021  0.0485
 6444W        W22578  10.269   8.928   1.078  0.0192 -0.5474 -0.0347
 6445W        W22579  14.685   6.489  14.583 -0.1902  0.1333 -0.1725
 6446W        W22580   5.467   9.541   2.767  0.1786  0.0108 -0.0754
 6447W        W22581   9.224   7.934   5.526 -0.3398 -0.0657  0.0870
 6448W        W22582   7.642   0.339  13.478 -0.3964 -0.0104 -0.2286
 6449W        W22583  17.073  12.467  14.860  0.1791  0.0210  0.0386
 6450W        W22584  14.012   4.540   0.497 -0.0636  0.0375  0.1291
 6451W        W22585  14.575   0.157  11.350 -0.2645 -0.4141  0.0633
 6452W        W22586   5.811  12.694  13.559 -0.0871  0.2085 -0.1727
 6453W        W22587  14.450  10.048   0.734  0.1496 -0.1207  0.2023
 6454W        W22588   8.613  10.396  10.911  0.0040 -0.0154  0.0290
 6455W        W22589  10.282  10.257  13.317  0.1211 -0.1383 -0.1915
 6456W        W22590   0.789  16.626   2.114  0.2555 -0.3411 -0.2071
 6457W        W22591  14.977  18.632   4.968 -0.0984  0.2583  0.0954
 6458W        W22592   9.872  14.968   2.370 -0.0180 -0.0978 -0.0525
 6459W        W22593   7.119  13.274  11.224  0.1771 -0.0871 -0.2778
 6460W        W22594  16.805  13.291  14.594 -0.3293 -0.1644 -0.2334
 6461W        W22595   2.995   7.998  13.151  0.1394  0.0520  0.4542
 6462W        W22596   3.958   9.260  11.713  0.3591  0.0127  0.0089
 6463W        W22597   0.302   7.447  12.499  0.1328  0.0515  0.0120
 6464W        W22598  16.627  11.733  11.227 -0.1378 -0.0936 -0.0643
 6465W        W22599   1.400  14.871   3.116  0.0564  0.0305  0.3336
 6466W        W22600   2.046   2.219  15.108 -0.3605  0.0890  0.3860
 6467W        W22601   9.281  12.773  14.581 -0.0473 -0.1823 -0.1835
 6468W        W22602  18.762  13.360   1.474 -0.2359 -0.0107  0.2150
 6469W        W22603  16.029  12.000   0.100  0.2748  0.3405  0.0661
 6470W        W22604  17.485   1.233   2.203  0.0658  0.1827 -0.1928
 6471W        W22605   2.616  12.317  12.886 -0.1746  0.1240 -0.0881
 6472W        W22606   2.551   4.300   4.566 -0.1693 -0.1813 -0.0920
 6473W        W22607   1.358   8.603  10.709  0.1755 -0.0820  0.2156
 6474W        W22608   1.508  12.698   1.529 -0.1679  0.2784  0.1304
 6475W        W22609  16.452   0.843   1.302  0.0346  0.2586 -0.0686
 6476W        W22610  14.159  13.477   2.449 -0.2556 -0.0883 -0.2611
 6477W        W22611  10.650  16.330   3.343  0.4008  0.2282 -0.2154
 6478W        W22612   6.931  12.066   1.737  0.1982 -0.0068  0.0359
 6479W        W22613  17.539  12.893  13.318 -0.0102  0.0113  0.1217
 6480W        W22614   6.277  17.053  12.832  0.0358 -0.0463 -0.3069
 6481W        W22615  15.438  12.675  15.138 -0.1921  0.1558  0.0823
 6482W        W22616  18.802   2.538   3.081  0.2210  0.4929 -0.0455
 6483W        W22617  18.444  17.775  12.612  0.1519  0.1431 -0.0058
 6484W        W22618   0.799   4.169   3.884  0.0817  0.0424  0.2403
 6485W        W22619  16.164  13.709   3.550  0.0062 -0.0455  0.2574
 6486W        W22620   6.300  13.825  14.074 -0.0752 -0.3175  0.0845
 6487W        W22621  11.425   1.830   1.714  0.0602  0.1248  0.2503
 6488W        W22622  11.400  10.821  12.110  0.2101 -0.4302  0.0375
 6489W        W22623   3.559   8.519   3.074  0.1855  0.1972 -0.0526
 6490W        W22624   1.725  11.809   1.101  0.0190  0.3356  0.1492
 6491W        W22625  18.594   7.911  12.367 -0.0122 -0.0053  0.1113
 6492W        W22626   1.636  14.601   0.270 -0.4525  0.0072 -0.2245
 6493W        W22627   2.397  11.034   1.935 -0.0783  0.1804 -0.1838
 6494W        W22628   9.934  11.970   9.930  0.0803  0.4360  0.0782
 6495W        W22629   6.116   9.180  10.941  0.0703 -0.0756  0.0982
 6496W        W22630  17.695  12.100   2.838 -0.1568  0.0993  0.2977
 6497W        W22631   6.898  16.842  12.186  0.2177  0.1047 -0.0241
 6498W        W22632   9.089  14.780  14.106 -0.2170 -0.0210 -0.0428
 6499W        W22633   7.353   2.875   2.060 -0.1619  0.3339  0.2626
 6500W        W22634  10.390   3.136  13.502 -0.0174  0.0329 -0.0430
 6501W        W22635  11.832   4.475   2.899 -0.0575 -0.0675 -0.0691
 6502W        W22636   5.568   9.961  13.501 -0.1750  0.0825  0.0947
 6503W        W22637   4.160  17.058  13.822  0.6250  0.0176  0.0402
 6504W        W22638   5.618   1.144   4.898  0.1003 -0.2744 -0.2036
 6505W        W22639   6.978   6.698   0.699 -0.0657 -0.1141  0.2028
 6506W        W22640   2.635  16.204  13.388  0.0122  0.0382  0.0140
 6507W        W22641   2.448  11.578  13.321 -0.1201  0.1075 -0.0379
 6508W        W22642  12.023  18.562   2.254  0.0809  0.2812 -0.0271
 6509W        W22643  12.300  16.033   0.420  0.2204  0.1992 -0.3306
 6510W        W22644  15.521  11.691  11.884  0.1385  0.1376 -0.0737
 6511W        W22645  18.572   3.338  10.034  0.1353  0.0579 -0.0183
 6512W        W22646   4.585   0.919  14.525 -0.2664 -0.0041  0.2683
 6513W        W22647   0.093   9.913   0.251 -0.1626 -0.1431  0.1573
 6514W        W22648  18.511   2.215   4.179  0.1831  0.0255 -0.1376
 6515W        W22649  15.299   7.396   0.154  0.0785  0.0667 -0.0130
 6516W        W22650  10.419  14.889   2.344 -0.2858 -0.0357 -0.0522
 6517W        W22651  16.542  15.746  12.794 -0.2193 -0.2343  0.1220
 6518W        W22652   0.361   6.072  12.052  0.2510  0.1086  0.2429
 6519W        W22653  15.476   0.131  11.231  0.2230 -0.0823  0.0290
 6520W        W22654   7.525   8.881   6.158  0.1083  0.1374  0.0352
 6521W        W22655   7.335  15.507  10.133 -0.0474  0.1010  0.1815
 6522W        W22656  16.012  14.084   2.577 -0.2693 -0.1551  0.1095
 6523W        W22657  12.870   4.258  11.226 -0.0711  0.0459 -0.3937
 6524W        W22658   8.002  13.661   4.189 -0.2277 -0.0738 -0.2942
 6525W        W22659  16.659  12.942  13.180 -0.0263 -0.0683 -0.2999
 6526W        W22660  16.391   4.008  13.410  0.3140  0.3651 -0.0439
 6527W        W22661  15.178   8.647   3.040 -0.1630  0.1143 -0.0299
 6528W        W22662   7.775  15.980  11.483 -0.1091  0.0198  0.0077
 6529W        W22663  13.444  12.647  14.747  0.0375 -0.1090  0.2666
 6530W        W22664   6.143   6.507  10.803  0.0754 -0.0171  0.2697
 6531W        W22665  16.874   9.883   4.247  0.1478  0.2541  0.1306
 6532W        W22666   1.027  15.690   0.374 -0.3187 -0.0326 -0.0619
 6533W        W22667   8.382   1.409   1.079 -0.4965 -0.2327 -0.0491
 6534W        W22668  13.347  16.488  14.993  0.3000 -0.0249  0.0496
 6535W        W22669  14.666  18.119   2.117 -0.1030 -0.0286 -0.2128
 6536W        W22670  11.135  11.316  13.238 -0.2690  0.0568  0.2192
 6537W        W22671  12.500   4.466  14.635 -0.0879  0.0600 -0.3344
 6538W        W22672  13.037   7.250   1.824 -0.0664  0.2804  0.0258
 6539W        W22673  18.872  11.244   2.319 -0.0359 -0.1531 -0.1944
 6540W        W22674  14.174  13.156   0.025  0.2217 -0.1168  0.1509
 6541W        W22675  17.826   3.147  12.727 -0.1610 -0.1919 -0.0515
 6542W        W22676  15.479   6.030   1.278  0.0630 -0.1957  0.0781
 6543W        W22677  13.027  16.561   3.994  0.0793 -0.0411 -0.2713
 6544W        W22678  12.037  13.094  13.988  0.2044  0.2035  0.0694
 6545W        W22679   4.797   0.464  11.194  0.0800 -0.1910 -0.1513
 6546W        W22680   2.841  17.116  13.319  0.1166  0.1591 -0.4672
 6547W        W22681  17.022   0.639   1.504 -0.1341  0.0737 -0.0171
 6548W        W22682   1.702   5.303   1.010 -0.1098  0.1677  0.4968
 6549W        W22683   2.554   2.095  15.085  0.0036  0.3793 -0.3837
 6550W        W22684   7.321  12.372   4.892 -0.0282 -0.2467  0.0850
 6551W        W22685  15.211  13.498   1.443  0.0373 -0.0774  0.1409
 6552W        W22686  16.443  12.977  12.188 -0.0627 -0.1208  0.1952
 6553W        W22687   1.504   8.554  11.176 -0.1354  0.0316  0.3228
 6554W        W22688   8.273   0.053  14.778 -0.0792  0.2737  0.2880
 6555W        W22689   4.440  12.311   2.016  0.3116  0.2300 -0.2272
 6556W        W22690  15.948   0.716   2.141 -0.3660  0.1817  0.1769
 6557W        W22691   5.377  16.839   5.409 -0.0365 -0.0626  0.0914
 6558W        W22692  18.318   9.027  14.690 -0.0201  0.1148 -0.3136
 6559W        W22693  15.482   1.852  14.845  0.2448 -0.1078 -0.0343
 6560W        W22694   8.546   4.169  14.949 -0.0582 -0.3034 -0.1505
 6561W        W22695  15.027   6.891  11.229 -0.1460 -0.3407  0.0608
 6562W        W22696   7.295  18.220   5.144 -0.1959  0.0397 -0.2058
 6563W        W22697  14.758  10.444   0.001 -0.1561  0.1422  0.4079
 6564W        W22698  12.784   8.684  13.275  0.4214  0.2015 -0.2049
 6565W        W22699   9.131   3.299  14.914  0.0992  0.1785 -0.1460
 6566W        W22700   8.574   3.950   0.220 -0.1214 -0.1444 -0.4095
 6567W        W22701   1.340  10.241  13.742  0.4213  0.0344 -0.0387
 6568W        W22702   1.965  15.152  13.230 -0.1842 -0.0993  0.0813
 6569W        W22703   7.891   8.328  13.600 -0.1320 -0.1672 -0.4279
 6570W        W22704   2.440   0.705   4.078 -0.0095 -0.0821 -0.3781
 6571W        W22705   4.458   2.798  14.117  0.1184  0.0893 -0.1627
 6572W        W22706   1.077   8.643  13.432 -0.1229 -0.0426  0.3182
 6573W        W22707   6.867  11.841  12.588  0.0178  0.1310  0.2731
 6574W        W22708  17.145   8.710   3.577 -0.0306 -0.2678 -0.1294
 6575W        W22709   6.818  12.019   1.089 -0.1991  0.1787 -0.1461
 6576W        W22710  18.089  10.479   0.044  0.0071 -0.3639  0.0920
 6577W        W22711   9.685   7.208  12.114  0.3489  0.0330  0.0541
 6578W        W22712  17.895   2.188  10.145  0.0924  0.0835 -0.0401
 6579W        W22713  11.206   0.846  11.882  0.0987  0.2421 -0.2422
 6580W        W22714   3.435  16.052   1.808  0.1684  0.0722  0.1869
 6581W        W22715  12.858  10.640  11.074 -0.0062 -0.2127  0.1966
 6582W        W22716   5.692   6.837   2.180  0.3492 -0.0551 -0.1527
 6583W        W22717   8.952  14.772  12.442 -0.3440  0.0186  0.2156
 6584W        W22718   6.024  17.267   0.731 -0.0534 -0.2707 -0.1336
 6585W        W22719   9.661  13.494  14.177  0.0008 -0.4204 -0.2567
 6586W        W22720  13.856  16.280  14.118  0.2088 -0.0019  0.4691
 6587W        W22721   7.950   6.006   0.257  0.2217 -0.0349  0.0038
 6588W        W22722  18.679  17.720   1.320 -0.2999  0.2989  0.1182
 6589W        W22723   5.037  12.580  14.239  0.1445 -0.1314  0.1002
 6590W        W22724   8.202  15.627  11.338 -0.0030  0.0835 -0.1200
 6591W        W22725  15.113  16.910  12.815 -0.0029 -0.1243 -0.0306
 6592W        W22726   9.337   4.237   3.815 -0.1087  0.0850 -0.1965
 6593W        W22727  13.163   2.938   1.631 -0.0177  0.0186  0.2729
 6594W        W22728   0.846  10.145   1.022  0.0048  0.0382  0.2593
 6595W        W22729   2.418   3.502  14.979  0.4352  0.2605  0.0951
 6596W        W22730   4.577  15.797   1.287  0.0897 -0.2770  0.0042
 6597W        W22731  14.675   1.291  12.648  0.2321  0.0060  0.0933
 6598W        W22732  15.813   5.632   3.182 -0.3016  0.3068 -0.0933
 6599W        W22733  10.715  14.120   1.514 -0.1702 -0.3074  0.1524
 6600W        W22734   9.769   1.011   2.535 -0.1022  0.1428  0.0594
 6601W        W22735   2.455  16.692   4.131  0.0613 -0.1417 -0.1758
 6602W        W22736  14.366  15.854   1.429 -0.1054 -0.0209 -0.0063
 6603W        W22737   0.155   0.717  11.336  0.0607 -0.0685 -0.0250
 6604W        W22738  15.147  17.810  11.802 -0.3956 -0.0271  0.0506
 6605W        W22739   1.737   6.377   3.845 -0.1690  0.5604 -0.0120
 6606W        W22740  18.557   1.661   3.505 -0.2043  0.0145  0.0201
 6607W        W22741  13.076   6.189   4.193 -0.1565 -0.1284 -0.2021
 6608W        W22742  10.840  16.841  14.941  0.3463 -0.1165 -0.0923
 6609W        W22743  10.975   4.448  14.846 -0.0072  0.0136 -0.1635
 6610W        W22744  13.924   2.742   5.505 -0.2339  0.2192  0.1656
 6611W        W22745  12.112  15.031   1.405  0.1163  0.1195 -0.0503
 6612W        W22746  14.599   9.566  11.778  0.0407 -0.0125  0.0901
 6613W        W22747   8.397   9.611  11.480  0.3272  0.2798  0.1798
 6614W        W22748   8.819  18.159  12.802  0.2463  0.0884 -0.1141
 6615W        W22749  15.814   4.563   2.342  0.0330  0.0646 -0.2142
 6616W        W22750   9.507  14.396   0.480 -0.1538  0.0255 -0.0796
 6617W        W22751  10.799   7.091  15.182  0.2777  0.2020  0.0473
 6618W        W22752  12.461   1.457  14.003  0.1745 -0.0707 -0.2411
 6619W        W22753  15.193  15.419  13.844 -0.1155  0.1510 -0.0776
 6620W        W22754  15.970  14.837   0.040  0.2270  0.0873  0.1184
 6621W        W22755   0.456   9.346   5.279 -0.1492 -0.0688  0.4276
 6622W        W22756   8.558   3.063  13.795 -0.3971  0.0359 -0.1325
 6623W        W22757  10.192  14.265   4.654 -0.2832 -0.0698 -0.2144
 6624W        W22758   1.738   4.645   4.293 -0.4899 -0.0028  0.0544
 6625W        W22759   5.897  14.555  13.174  0.0576 -0.0022  0.0200
 6626W        W22760   0.613   7.577  11.128 -0.0836 -0.1811 -0.3124
 6627W        W22761   9.951   3.103   4.168 -0.2317  0.1595 -0.1922
 6628W        W22762   2.273  15.594   5.213 -0.1095 -0.1714  0.1786
 6629W        W22763   3.797  18.882  12.514  0.1502 -0.2090 -0.0612
 6630W        W22764   8.436   4.410  13.452  0.0801 -0.1990 -0.1308
 6631W        W22765  16.322  10.519   1.128 -0.0983  0.0537  0.2784
 6632W        W22766   0.949  13.135  11.641  0.3232  0.2295  0.2304
 6633W        W22767  15.185  14.643  13.004 -0.0920 -0.0693 -0.1418
 6634W        W22768  12.590   1.363  14.663 -0.0511  0.1622  0.3550
 6635W        W22769  12.672  11.079  14.651  0.2438  0.2486 -0.2135
 6636W        W22770   7.223   3.596  10.855  0.2442 -0.0315  0.0314
 6637W        W22771  11.206  18.553   5.471 -0.2135 -0.2279  0.0192
 6638W        W22772  13.820  19.005   3.172 -0.0414 -0.1682 -0.0496
 6639W        W22773   9.630  13.360   2.054 -0.0139 -0.0156  0.5066
 6640W        W22774  15.868  12.712   1.887  0.2603  0.2545 -0.0895
 6641W        W22775   7.361   7.972   0.805 -0.3332 -0.1123 -0.3206
 6642W        W22776   8.983   0.961  15.151  0.2050 -0.0392  0.1823
 6643W        W22777  12.710  12.348   4.827 -0.0007 -0.3324  0.2117
 6644W        W22778   8.326  13.881   0.192 -0.4496  0.1004  0.0568
 6645W        W22779  15.427  15.923   4.683  0.1145  0.1909 -0.0638
 6646W        W22780   4.615   1.360   3.808  0.3717  0.2360 -0.1415
 6647W        W22781  13.607   5.913  10.434  0.1317 -0.0303 -0.0549
 6648W        W22782   9.673  17.239  11.105 -0.0755  0.0189  0.2457
 6649W        W22783   7.365  17.457  10.854 -0.1183 -0.1429  0.2405
 6650W        W22784  17.944  13.543   4.663  0.1731 -0.1460 -0.1013
 6651W        W22785   2.112   4.233  12.024  0.0470  0.3205 -0.1549
 6652W        W22786  11.187   9.655   0.285 -0.1600  0.1886  0.1185
 6653W        W22787   6.108  18.889  12.085 -0.2278 -0.0684  0.1341
 6654W        W22788   6.506  16.684  12.493 -0.0028 -0.1233  0.2163
 6655W        W22789   3.063  18.451   3.876  0.0905 -0.0219  0.1607
 6656W        W22790  18.002  19.149   4.070  0.0599 -0.0310 -0.0263
 6657W        W22791   0.044   2.548   5.538  0.2914 -0.1024 -0.1730
 6658W        W22792   1.262   1.818  11.448 -0.1221 -0.0010  0.0858
 6659W        W22793   4.706  12.412   4.565 -0.0145  0.2732 -0.0360
 6660W        W22794   6.481   6.889   3.418  0.0989  0.0910  0.2064
 6661W        W22795   8.140  11.113   2.796  0.0801 -0.0605  0.0539
 6662W        W22796   6.072   9.191   4.435 -0.0289 -0.0179  0.1845
 6663W        W22797   3.360   8.368   4.406  0.1172 -0.0487  0.3758
 6664W        W22798   1.745   7.461   1.429  0.0954 -0.1105  0.1092
 6665W        W22799  17.062  11.315   0.499  0.1039 -0.0928  0.0252
 6666W        W22800  15.984  12.826  12.380 -0.0677 -0.0275 -0.0598
 6667W        W22801  18.292  13.912   4.632  0.2288 -0.1100 -0.3636
 6668W        W22802  15.361  13.126   3.592 -0.1592 -0.0825 -0.4479
 6669W        W22803   6.871  12.419  12.071  0.1034  0.2283 -0.2098
 6670W        W22804   6.744   8.732   3.236 -0.0399 -0.0298  0.1512
 6671W        W22805   5.023   6.431  13.557  0.0060  0.0881 -0.1895
 6672W        W22806  11.761  11.036  13.982 -0.1517 -0.0044 -0.3334
 6673W        W22807   6.919   5.494  13.947 -0.0422  0.1548 -0.0353
 6674W        W22808  13.081   2.192   1.341  0.1198 -0.1402 -0.1905
 6675W        W22809  14.937   5.182  11.352 -0.6042 -0.1986  0.0414
 6676W        W22810  17.052   4.825   2.930  0.2003  0.0794 -0.1075
 6677W        W22811   4.066  15.774   0.504  0.0868 -0.2796  0.0515
 6678W        W22812   9.728   1.643   3.844 -0.0516 -0.1473 -0.0270
 6679W        W22813  17.398  16.807  15.152 -0.0282 -0.0412  0.1049
 6680W        W22814   7.523   0.077  11.031  0.4745  0.1264  0.2310
 6681W        W22815  12.759  13.636   0.185  0.0925 -0.1441  0.1916
 6682W        W22816  15.323   9.193  11.696 -0.1042  0.1741  0.2983
 6683W        W22817   5.248   4.682   1.039 -0.0468 -0.1732 -0.1204
 6684W        W22818   9.442   4.629   5.809 -0.1293  0.1206 -0.4064
 6685W        W22819   2.858   1.907  11.601  0.3472  0.2798 -0.1473
 6686W        W22820   0.630   0.893   3.935  0.0602 -0.0309  0.3149
 6687W        W22821   9.756   6.667  11.213 -0.0924  0.0174 -0.0007
 6688W        W22822   6.630  12.624   0.531 -0.0761  0.2484 -0.5506
 6689W        W22823   7.356  13.325   3.661 -0.3167 -0.0988 -0.4958
 6690W        W22824   6.145   6.486   3.170  0.3164  0.0680  0.0935
 6691W        W22825  14.705  12.927  12.928 -0.3352  0.0362  0.1632
 6692W        W22826   7.944   9.162   0.981 -0.4149  0.1324 -0.2433
 6693W        W22827  14.050   5.252   4.085  0.0007 -0.2116  0.1375
 6694W        W22828  17.840  18.343  14.212 -0.2393 -0.2356 -0.0864
 6695W        W22829   6.650   6.395   0.455 -0.1133 -0.2055 -0.1804
 6696W        W22830  18.357  11.269  13.910 -0.0163  0.2888  0.1545
 6697W        W22831  10.472  12.145   0.638 -0.1711 -0.3729 -0.1605
 6698W        W22832  11.681   4.780   1.676  0.0804  0.1520 -0.0661
 6699W        W22833  14.171  17.357  12.907 -0.4066  0.1337 -0.2415
 6700W        W22834  12.142  18.124   1.056 -0.2779 -0.0505 -0.1964
 6701W        W22835  18.699  11.455   3.592  0.0228 -0.0936  0.3154
 6702W        W22836   7.745  15.342  11.403 -0.1619  0.1356  0.0419
 6703W        W22837  19.141  17.309   4.263  0.2602 -0.2233  0.0462
 6704W        W22838   4.924  13.622   2.749  0.0588  0.3223  0.4060
 6705W        W22839   5.568   2.253   2.099  0.2066  0.0141 -0.0354
 6706W        W22840   3.659  16.833  13.903  0.0156 -0.2255  0.0620
 6707W        W22841  17.260  14.070  12.344  0.2268  0.1413  0.0925
 6708W        W22842   9.388  12.939   0.680  0.0222  0.1119 -0.0569
 6709W        W22843  15.652  17.458  11.389 -0.2382  0.0188 -0.0642
 6710W        W22844   2.396   1.962   3.300 -0.0794  0.1972 -0.0938
 6711W        W22845   3.289  10.887  11.808 -0.1729  0.2457  0.2333
 6712W        W22846  16.638   6.006  15.006 -0.1120 -0.2680 -0.2029
 6713W        W22847  11.149   3.357   0.425  0.0686  0.0365  0.1825
 6714W        W22848   1.106  11.860  13.088 -0.0172 -0.3878  0.0329
 6715W        W22849  15.562   3.181   2.010 -0.2155 -0.1426  0.1240
 6716W        W22850  15.610   4.963   0.705 -0.3025  0.0326  0.4949
 6717W        W22851  14.481  18.015  10.630 -0.0876  0.2291 -0.1971
 6718W        W22852   5.891   0.772   2.185  0.2082  0.0920 -0.0690
 6719W        W22853   5.698  10.199   1.837 -0.0683  0.0692 -0.0522
 6720W        W22854  10.338   6.981  13.389  0.1822 -0.3111  0.3840
 6721W        W22855   3.282   8.490   0.356  0.2788 -0.0299 -0.0421
 6722W        W22856  11.359  13.104   3.184 -0.1458 -0.3818 -0.1400
 6723W        W22857  16.805  16.613   3.569  0.1407  0.0800  0.0404
 6724W        W22858   6.149  10.518  12.012 -0.2007 -0.0914 -0.3064
 6725W        W22859  12.190   0.814   0.953 -0.1265  0.0052  0.3190
 6726W        W22860  14.067  11.288  12.621  0.0260  0.2544 -0.0214
 6727W        W22861   6.200  18.187   1.727 -0.1582  0.5310 -0.0844
 6728W        W22862  10.832  14.748  14.930 -0.4979  0.3380 -0.5133
 6729W        W22863   1.087  17.831   3.155  0.0002  0.6847  0.0745
 6730W        W22864   8.023   1.071   0.164 -0.1535 -0.0117 -0.0049
 6731W        W22865   3.090   9.158  12.178  0.3231  0.1911  0.1555
 6732W        W22866   0.126   6.082  12.502  0.1986 -0.0034 -0.1161
 6733W        W22867  10.250   6.760   0.773 -0.0715  0.1025  0.0519
 6734W        W22868  15.932   5.108  12.489  0.0180 -0.3582 -0.5314
 6735W        W22869  17.068  16.627  14.227  0.0697 -0.1731 -0.0874
 6736W        W22870  13.080  13.951  10.941 -0.2001  0.1680 -0.2756
 6737W        W22871   9.977   4.584   4.476 -0.1290  0.0477 -0.0830
 6738W        W22872   1.178  15.607   4.577  0.1750 -0.2971 -0.2445
 6739W        W22873   9.727  11.690   2.224  0.0986 -0.2270 -0.1270
 6740W        W22874   7.459   1.280  14.420  0.1549  0.0229 -0.0765
 6741W        W22875   8.776  15.285  12.124  0.0452  0.1786 -0.2765
 6742W        W22876  16.157   1.954   0.343 -0.0639 -0.1522 -0.0930
 6743W        W22877   8.114   2.374  14.106 -0.1725  0.1652  0.1264
 6744W        W22878  18.403   5.629   4.499 -0.0905 -0.0210 -0.0638
 6745W        W22879  19.109   6.239   2.701 -0.1728  0.0326 -0.0592
 6746W        W22880   8.973  17.495   4.424  0.1969 -0.0696 -0.0823
 6747W        W22881  17.500   0.288  14.850 -0.1876 -0.1845  0.2163
 6748W        W22882  15.337  17.506   2.845 -0.0068 -0.1577 -0.0608
 6749W        W22883  16.245  10.154  12.050  0.1749 -0.0798 -0.0479
 6750W        W22884  15.410   4.144   3.532 -0.0929  0.5557 -0.2181
 6751W        W22885  11.293   3.376   2.411 -0.0338 -0.1167  0.0327
 6752W        W22886   3.784   5.445   1.982 -0.3433  0.3168 -0.2010
 6753W        W22887  14.518  14.274  13.061 -0.1087 -0.1490  0.1225
 6754W        W22888   3.778  14.214  14.220  0.0091 -0.1680  0.3227
 6755W        W22889   9.477   0.753   1.863 -0.0281 -0.4469 -0.2509
 6756W        W22890   1.045   5.120   3.873 -0.0641  0.0572 -0.0394
 6757W        W22891   9.150  18.919  11.929 -0.1053  0.0822 -0.0309
 6758W        W22892   7.166  12.521   1.898  0.2371 -0.0876 -0.0117
 6759W        W22893  17.308  13.520  12.763  0.2455  0.1578  0.3812
 6760W        W22894  17.563  14.827   3.118  0.1012  0.3432 -0.3807
 6761W        W22895   6.959   3.926   1.114  0.2813  0.1019  0.1408
 6762W        W22896   6.823  11.251   4.320  0.1048 -0.0343  0.1376
 6763W        W22897   8.797  18.054  13.377 -0.3028 -0.0024 -0.1071
 6764W        W22898  18.690   5.084   1.391  0.0163 -0.2807 -0.1611
 6765W        W22899   9.758  14.057  11.016  0.0826 -0.4842 -0.0004
 6766W        W22900   8.767  13.497  11.615  0.4646  0.4359  0.1615
 6767W        W22901  17.161  15.124   1.469  0.0545  0.2706 -0.3233
 6768W        W22902  16.420   9.351  10.616 -0.2293  0.2713  0.0506
 6769W        W22903  17.663  12.292   0.313 -0.0437  0.1407 -0.1487
 6770W        W22904   5.870  11.183   4.574 -0.0452 -0.3867 -0.0112
 6771W        W22905   0.190   8.406  11.862 -0.1953 -0.3056 -0.2336
 6772W        W22906   4.605  18.284  12.604  0.0256  0.0037  0.3219
 6773W        W22907   2.473   4.470   0.657  0.0136 -0.0199 -0.0288
 6774W        W22908  19.077  15.038   4.356  0.0724 -0.2627  0.0643
 6775W        W22909  18.044   6.657   1.075 -0.0756  0.2725 -0.0101
 6776W        W22910   6.196  10.383   2.800 -0.2164 -0.3923  0.0624
 6777W        W22911   2.377   9.308   3.925 -0.1816 -0.2365 -0.2289
 6778W        W22912  13.780  15.694   2.296  0.0901 -0.0132  0.2552
 6779W        W22913   4.594   0.683   3.086 -0.1222 -0.2805 -0.0559
 6780W        W22914   6.880   3.120   3.848  0.2079 -0.0069 -0.1811
 6781W        W22915   0.101  17.230   3.785 -0.2993 -0.0872  0.1379
 6782W        W22916   7.881   0.654  14.426  0.1022  0.2852 -0.1735
 6783W        W22917   8.927  15.405   2.795  0.0438 -0.1713 -0.2107
 6784W        W22918   6.223   3.120   3.150 -0.0599 -0.1114  0.1749
 6785W        W22919   2.908  16.015   1.019  0.0005  0.0602 -0.1597
 6786W        W22920  11.185   0.772   0.284 -0.2477  0.0264  0.2030
 6787W        W22921  18.173  17.064  12.874 -0.0463  0.3218  0.3103
 6788W        W22922  16.791  11.181   2.915 -0.2984  0.3750 -0.2401
 6789W        W22923  17.506   2.240   0.809 -0.2982 -0.0503 -0.2264
 6790W        W22924  11.389  15.911   4.414  0.2424 -0.2575  0.2610
 6791W        W22925   0.426   4.913   1.161 -0.1318 -0.1452  0.2253
 6792W        W22926   5.668  15.663  12.386  0.0375  0.2640 -0.2086
 6793W        W22927  11.685  18.730   1.505  0.3141  0.3217 -0.0596
 6794W        W22928  10.463  15.193   4.843 -0.1231 -0.1002  0.0343
 6795W        W22929   9.783   9.412   3.793  0.0873 -0.2352  0.3709
 6796W        W22930   7.029  15.830   9.926 -0.0220  0.0135 -0.0933
 6797W        W22931  15.134   5.414  11.739 -0.2328 -0.0903  0.0680
 6798W        W22932   7.245   4.111   0.169  0.1253  0.2018 -0.2520
 6799W        W22933  18.072  11.155  13.035 -0.0622  0.1805  0.0250
 6800W        W22934   8.429  12.283  12.752  0.0806 -0.1141  0.1131
 6801W        W22935   9.949  18.921  12.231  0.0573 -0.0496 -0.0538
 6802W        W22936   6.510   8.644   0.162  0.2462  0.1106  0.0785
 6803W        W22937  18.434   8.067   1.250 -0.0892  0.0096  0.1179
 6804W        W22938   9.512  10.063  12.754  0.1330  0.0365 -0.2398
 6805W        W22939   6.729   1.618   2.942 -0.1853 -0.3548  0.1452
 6806W        W22940   6.942  10.220   4.464  0.5122  0.2207 -0.2977
 6807W        W22941   3.677  14.428  14.762 -0.1555  0.0481  0.1510
 6808W        W22942   4.087  12.807  13.923  0.1853  0.0659 -0.1443
 6809W        W22943   8.020  18.011   2.426  0.3568 -0.1364  0.0456
 6810W        W22944  14.412   7.941  15.206 -0.2652  0.5578 -0.1274
 6811W        W22945   2.531   4.948  15.057 -0.1106  0.3750  0.0693
 6812W        W22946   8.109   0.613   1.737 -0.1031  0.0627 -0.2602
 6813W        W22947   3.769  13.048   0.104 -0.3720  0.3418 -0.1256
 6814W        W22948   1.682   7.144  11.036  0.2880 -0.1630  0.0221
 6815W        W22949   8.676   2.754   1.709 -0.0854  0.2652 -0.1789
 6816W        W22950   8.485   1.070   0.058 -0.1251  0.1427  0.1152
 6817W        W22951   5.947   5.862  12.593  0.2252  0.0464  0.0575
 6818W        W22952  17.917  10.397   3.471  0.1702 -0.0353 -0.1588
 6819W        W22953  11.820   2.175   2.577 -0.2264  0.3149 -0.1481
 6820W        W22954   2.883  11.149   1.586  0.5511  0.1149 -0.0374
 6821W        W22955   4.846   3.395  14.000 -0.3558  0.1030 -0.0577
 6822W        W22956  12.488  13.666  12.632  0.1497 -0.1419  0.1546
 6823W        W22957   7.737  10.507   0.054  0.2162 -0.0413 -0.2466
 6824W        W22958  13.903   9.193  15.095 -0.1171  0.1895 -0.1178
 6825W        W22959  16.139  16.818  14.484 -0.3243 -0.2251  0.3025
 6826W        W22960  16.244  10.830  13.487  0.0330 -0.1586 -0.1549
 6827W        W22961   6.235  12.391   3.878  0.1495 -0.1711  0.0426
 6828W        W22962   5.977  12.853  14.509 -0.0656 -0.1838  0.0812
 6829W        W22963  16.117  10.896   0.045 -0.4298 -0.2502 -0.0553
 6830W        W22964  19.091   5.738   0.248  0.0619  0.1250 -0.0422
 6831W        W22965  17.781   1.718  12.186  0.2363 -0.2153  0.2594
 6832W        W22966   2.282   0.347   0.544  0.0756 -0.1657 -0.2317
 6833W        W22967  15.801   5.142  11.057  0.0270 -0.0779 -0.0946
 6834W        W22968  14.513   7.005   2.866  0.1025 -0.1445 -0.3502
 6835W        W22969  15.278  13.370  14.330  0.1550 -0.0524 -0.1249
 6836W        W22970   4.987  11.722  12.374  0.2367 -0.0223 -0.0907
 6837W        W22971  14.824  12.757   4.332  0.0181 -0.3867 -0.1714
 6838W        W22972   6.078  13.507  11.034  0.0470  0.3917  0.1571
 6839W        W22973  14.217  10.898  13.652 -0.3939 -0.1696 -0.3144
 6840W        W22974  14.065  16.540  14.798 -0.0838  0.0601 -0.1949
 6841W        W22975  16.446  16.072   3.415  0.0501 -0.2074 -0.1244
 6842W        W22976   1.413  13.466   2.582  0.0612 -0.1433 -0.2424
 6843W        W22977  16.248  15.671  13.198  0.1545  0.0402 -0.1653
 6844W        W22978  14.853  18.439   3.995 -0.2276 -0.2256  0.1737
 6845W        W22979   3.164  17.379  14.049 -0.1880  0.2296  0.1198
 6846W        W22980   7.298   1.214   0.151  0.2735 -0.0004 -0.0301
 6847W        W22981   1.495  12.512  11.599  0.1575  0.1484 -0.2393
 6848W        W22982   4.039   4.448   2.703 -0.0925  0.0224  0.1313
 6849W        W22983  16.380  17.655  13.064 -0.1722 -0.1515 -0.1400
 6850W        W22984  18.451  13.293   0.586  0.0916 -0.0264  0.2465
 6851W        W22985  16.892   6.671  14.860  0.0630  0.1074  0.1265
 6852W        W22986   6.893   4.195   2.493 -0.1019  0.0535 -0.1281
 6853W        W22987  10.610  13.246   5.351  0.0481 -0.2259  0.0108
 6854W        W22988  13.849  13.853  12.063  0.1109 -0.0053 -0.0289
 6855W        W22989  13.820  12.259  11.166  0.1950 -0.2288  0.1631
 6856W        W22990  12.968  13.033   3.153  0.0899 -0.0139  0.1995
 6857W        W22991  14.022   9.140  11.457 -0.0087  0.2262  0.0382
 6858W        W22992   3.940  14.960   1.399 -0.0572  0.1752 -0.2972
 6859W        W22993  15.596  17.374  15.182  0.0827  0.2939  0.0915
 6860W        W22994   9.998   4.858   2.634  0.3755 -0.4379 -0.6328
 6861W        W22995  14.116   2.001   3.162  0.1982  0.2691 -0.0778
 6862W        W22996   3.259  13.028   2.805  0.2147  0.0873  0.2442
 6863W        W22997   0.411   9.253  15.185 -0.0027  0.1026 -0.2528
 6864W        W22998  19.120  16.731   3.651  0.1002 -0.3637  0.3616
 6865W        W22999   9.828  17.068  11.578  0.4764 -0.1893  0.0169
 6866W        W23000   8.066   2.343   0.726 -0.0100  0.0249 -0.0401
 6867W        W23001   6.377   4.297  12.328  0.1844  0.1463 -0.2910
 6868W        W23002   5.309   3.861   1.744 -0.0538  0.2719 -0.1218
 6869W        W23003   7.424   1.565   2.405  0.1639  0.2013  0.0876
 6870W        W23004  12.226  14.776  12.292  0.0424  0.2954 -0.0555
 6871W        W23005   2.931   0.161   1.970  0.0332  0.1603 -0.0438
 6872W        W23006   0.246   6.534   0.796 -0.1577  0.1097 -0.1096
 6873W        W23007  17.207  10.586   0.151 -0.1032 -0.1251 -0.0677
 6874W        W23008  10.575  16.560   4.732 -0.0800  0.2980 -0.1698
 6875W        W23009   1.016   8.726  15.189 -0.1621  0.3608  0.0718
 6876W        W23010  16.153  15.584  13.682 -0.2620  0.1840  0.1161
 6877W        W23011  18.411  13.462  12.114 -0.1716 -0.1178  0.0739
 6878W        W23012  14.337   5.434   1.319  0.1387 -0.1634 -0.1551
 6879W        W23013   0.681   5.229  11.639 -0.1364  0.0193 -0.0819
 6880W        W23014   6.448  15.266  14.308 -0.1578 -0.0696 -0.2455
 6881W        W23015   3.311   5.800  10.145  0.2869 -0.3664 -0.0961
 6882W        W23016   6.890  16.701   3.342  0.4645  0.0933  0.0799
 6883W        W23017   3.149  17.010  10.551 -0.1347 -0.2618  0.1944
 6884W        W23018   8.013   6.958  11.926 -0.3488 -0.2315 -0.0542
 6885W        W23019  15.553  17.037  10.819 -0.1600  0.1674 -0.2557
 6886W        W23020   1.916  14.478   4.580 -0.0260 -0.2235  0.2374
 6887W        W23021   2.929   1.926   3.310  0.1600  0.2252  0.3257
 6888W        W23022   6.287   0.618   1.510 -0.0761  0.3369  0.3154
 6889W        W23023   5.032   3.829   2.191 -0.1058 -0.0454  0.1240
 6890W        W23024   0.834  11.026  11.428 -0.1718 -0.2677  0.0155
 6891W        W23025  16.122  13.312  12.541 -0.1367  0.0953  0.1865
 6892W        W23026   7.227   5.866  12.973 -0.3596 -0.0542  0.1189
 6893W        W23027  11.593  18.256   0.587 -0.1331 -0.2391  0.0759
 6894W        W23028   8.229   1.497   2.597  0.1752  0.1925 -0.2590
 6895W        W23029   2.874   9.023  14.464  0.0288 -0.0911 -0.1803
 6896W        W23030  14.591  12.742   1.587 -0.0737 -0.1683 -0.0386
 6897W        W23031   7.104   4.542  11.743  0.1592  0.0969  0.0459
 6898W        W23032   8.451   5.394  13.169  0.1828 -0.0752 -0.2991
 6899W        W23033   7.522  13.330  10.983  0.2179 -0.2586  0.0343
 6900W        W23034  17.786   5.575   2.578 -0.1937 -0.1815 -0.2128
 6901W        W23035  12.639   7.669  12.607  0.1897 -0.0885 -0.1131
 6902W        W23036   6.326  17.896  14.349  0.0526 -0.0567  0.3486
 6903W        W23037  18.199   8.674  10.482 -0.0129 -0.0027  0.0775
 6904W        W23038   4.996   0.524   0.870 -0.0741 -0.1508  0.1433
 6905W        W23039  18.322   2.571   3.786 -0.1340  0.2507 -0.2453
 6906W        W23040  15.587  14.532  14.299 -0.1168 -0.0830  0.0840
 6907W        W23041   1.097   5.146  10.801 -0.3354 -0.3014 -0.0939
 6908W        W23042   3.694   3.187  12.035 -0.1812 -0.1821 -0.0027
 6909W        W23043   2.499  11.850   3.767 -0.0031  0.1163  0.1646
 6910W        W23044  15.631   2.409   1.333 -0.1131  0.0133 -0.5069
 6911W        W23045   7.512  13.571   5.048  0.0814  0.2217  0.2275
 6912W        W23046   1.412  16.630   3.449 -0.1620 -0.1286 -0.2057
 6913W        W23047  17.100  16.336   2.737  0.1890 -0.0891  0.1588
 6914W        W23048  15.202  12.730   5.300  0.2082  0.2930 -0.1354
 6915W        W23049  13.577   6.864   2.621  0.0565  0.0340  0.0366
 6916W        W23050  16.611   4.053   0.233 -0.0702  0.3905 -0.1521
 6917W        W23051  18.181   7.992   3.231 -0.2974 -0.1562  0.0084
 6918W        W23052   0.304  12.118  12.887 -0.1025 -0.0250 -0.1033
 6919W        W23053  13.601   0.939   2.574 -0.3297 -0.0753  0.0182
 6920W        W23054   5.264   5.297  14.559  0.1987  0.1589  0.2663
 6921W        W23055   9.642   5.350   2.833  0.1664  0.1801  0.3964
 6922W        W23056   7.450   8.805   0.971 -0.2099 -0.2558  0.0862
 6923W        W23057   9.201  13.307   2.353 -0.0660  0.1098  0.1991
 6924W        W23058   7.391  14.929  11.373 -0.2946 -0.1144 -0.0413
 6925W        W23059  11.798  15.753  11.546 -0.3079  0.0861 -0.2612
 6926W        W23060  16.041  16.256  14.629 -0.0167 -0.1950  0.2114
 6927W        W23061   2.403  11.867  12.499  0.0260  0.1945 -0.1597
 6928W        W23062  12.686  17.538   3.697 -0.3183  0.0936 -0.0487
 6929W        W23063   8.836   2.884   3.811 -0.0921 -0.2807  0.1992
 6930W        W23064  17.902   0.985   0.495  0.1315  0.0267 -0.1521
 6931W        W23065   2.968   1.740   4.287  0.4454 -0.3567 -0.4013
 6932W        W23066  17.798   9.895   3.255  0.3115 -0.0604 -0.0513
 6933W        W23067  11.351   6.164   4.687  0.1268 -0.1058 -0.0277
 6934W        W23068  14.497  18.837   3.664  0.0547  0.2143 -0.1189
 6935W        W23069   2.049  13.744   0.144 -0.0436  0.2350  0.1107
 6936W        W23070   2.280  17.605  14.184  0.2973  0.0697 -0.3034
 6937W        W23071  14.962   7.188   4.519 -0.1628  0.0279 -0.2621
 6938W        W23072   5.272  16.186   2.834 -0.3169  0.1218 -0.2674
 6939W        W23073  16.289   2.114   4.319  0.2896  0.0074 -0.3047
 6940W        W23074   2.861  13.981  14.570  0.0467  0.1297  0.2770
 6941W        W23075  11.293   1.565   1.157 -0.2239 -0.1080  0.3061
 6942W        W23076  16.733   9.720  15.062  0.1992 -0.3250 -0.1982
 6943W        W23077  16.395   6.762   2.858  0.4017  0.2883  0.1453
 6944W        W23078   4.801   7.984  14.046  0.2703  0.1720  0.0961
 6945W        W23079   1.631  10.678  12.460 -0.2421  0.0652  0.1086
 6946W        W23080   3.165   9.983   4.571  0.0888  0.3063 -0.1223
 6947W        W23081  16.845   3.614   9.942  0.4566 -0.1969  0.0254
 6948W        W23082   5.395  13.441   4.844  0.1819 -0.1419 -0.1642
 6949W        W23083   8.448   6.495   4.168 -0.1091  0.0931 -0.0573
 6950W        W23084   8.446  17.010   2.208 -0.1910  0.0581 -0.0249
 6951W        W23085  11.913   3.805  14.873  0.2449 -0.0289 -0.1636
 6952W        W23086   7.658   9.183   0.619 -0.0265 -0.0236 -0.1651
 6953W        W23087  18.394   9.194  10.324  0.4188  0.2063  0.0696
 6954W        W23088   7.859   9.447  14.416 -0.1890  0.0708 -0.1729
 6955W        W23089   7.214   0.860   2.140 -0.0197  0.1024 -0.0980
 6956W        W23090  13.610   1.981  10.943 -0.2173 -0.3549  0.2649
 6957W        W23091   1.418   4.476   5.124 -0.1032  0.2441  0.4452
 6958W        W23092  15.038  12.867  10.784  0.0383 -0.3186 -0.3048
 6959W        W23093  16.215   9.535  13.772 -0.3126  0.3300 -0.1257
 6960W        W23094  17.628   5.205   1.859  0.1986 -0.0169  0.1526
 6961W        W23095  15.760   4.063   4.543 -0.1099  0.2353  0.1672
 6962W        W23096  17.227   8.684   2.198  0.2788 -0.0667  0.2253
 6963W        W23097  13.253  17.190   0.560 -0.1799  0.2360 -0.0215
 6964W        W23098  16.593   6.052   2.543 -0.0136  0.1879 -0.0039
 6965W        W23099  17.383   6.510   3.399  0.0047 -0.0099  0.1981
 6966W        W23100   5.522   0.073   3.248 -0.2230 -0.1398  0.0296
 6967W        W23101  11.451   9.430   2.505 -0.0120  0.1282  0.3666
 6968W        W23102  12.141  11.869   2.251  0.1303  0.1462  0.0046
 6969W        W23103   3.823  10.699   2.625 -0.0772  0.0341  0.1758
 6970W        W23104  15.812  17.889   1.173 -0.1649 -0.0814 -0.5730
 6971W        W23105   4.420   4.898   0.638  0.2351  0.0090 -0.0532
 6972W        W23106   4.491   2.358  10.516  0.1715  0.0717  0.1844
 6973W        W23107   9.391   9.305  11.721  0.1299 -0.2298  0.2114
 6974W        W23108   7.024  11.145   0.336  0.0631 -0.1631  0.1515
 6975W        W23109  15.890   8.526  13.861 -0.0704  0.3268  0.4716
 6976W        W23110   2.686   7.985  13.876  0.0548 -0.0515 -0.0374
 6977W        W23111   4.835   2.527   0.314 -0.1654  0.3340 -0.1080
 6978W        W23112  16.589   6.525  10.201  0.1530 -0.0793 -0.0731
 6979W        W23113   2.588  15.153  10.669 -0.1117 -0.0870 -0.2064
 6980W        W23114   9.045  11.924   4.804  0.1509 -0.1804  0.3230
 6981W        W23115  16.093  17.713  11.618 -0.1881  0.1389  0.0795
 6982W        W23116   6.901   8.277   0.013 -0.0585  0.1803 -0.3039
 6983W        W23117   1.427   4.451   4.638 -0.0192 -0.0609 -0.0136
 6984W        W23118  16.040  14.827  14.040  0.2597  0.2421  0.0323
 6985W        W23119   9.190  14.581   2.502 -0.1346  0.0261  0.3299
 6986W        W23120   8.931   4.459  13.381  0.0637 -0.0780 -0.3128
 6987W        W23121  13.648   6.755   3.124 -0.0775 -0.3019  0.1852
 6988W        W23122   4.392   4.945   2.936 -0.0713 -0.3884  0.0535
 6989W        W23123  15.108   4.899  11.823 -0.2513  0.0785  0.1069
 6990W        W23124   8.407  16.810  11.349  0.0052  0.2104 -0.0350
 6991W        W23125   7.525  16.459   1.761  0.0195  0.1812  0.0152
 6992W        W23126  18.224  18.358  11.403 -0.1194 -0.1377 -0.1065
 6993W        W23127  12.679  17.889   2.168  0.0163  0.0601  0.1243
 6994W        W23128   8.745   7.364   4.801  0.1873  0.3952  0.0356
 6995W        W23129  11.903   9.095  11.250  0.1635 -0.1239 -0.0027
 6996W        W23130   5.336  18.819   3.437  0.1542 -0.2972 -0.1661
 6997W        W23131   8.014   4.054  12.150 -0.0887  0.0245  0.0187
 6998W        W23132   4.936  12.445  11.838 -0.2462 -0.4752  0.2081
 6999W        W23133  12.664  18.615   1.727  0.1518  0.3300  0.0872
 7000W        W23134   7.936   8.403   4.310 -0.1871  0.0858  0.2704
 7001W        W23135   5.652   3.944  11.911  0.0352 -0.0102  0.0326
 7002W        W23136  16.867   3.297   4.723 -0.4029  0.0477  0.1271
 7003W        W23137   6.779   2.024  13.812 -0.1028  0.2433 -0.2111
 7004W        W23138   5.327   2.513   9.929 -0.1369  0.0646  0.3253
 7005W        W23139   3.671   3.295  14.406  0.0465  0.0803 -0.0997
 7006W        W23140  16.688   3.290  10.245 -0.0180 -0.0518  0.0345
 7007W        W23141   8.431  12.685  13.132  0.1021 -0.2377 -0.2347
 7008W        W23142  18.362   8.787  12.470  0.1706 -0.0659 -0.2280
 7009W        W23143  15.231   9.923   3.669  0.3518  0.2022 -0.1546
 7010W        W23144   5.939   8.604   2.157  0.3812  0.3294  0.1164
 7011W        W23145  17.017  11.776  10.785  0.0115 -0.3601 -0.0594
 7012W        W23146   6.547  10.435   5.405  0.1267 -0.1922  0.1280
 7013W        W23147   9.631   1.677   3.297  0.0798  0.0156 -0.0406
 7014W        W23148   4.034  15.330  11.542  0.0708 -0.1180 -0.0289
 7015W        W23149   5.868   0.008   0.253  0.1806 -0.3571 -0.4412
 7016W        W23150   6.127  14.453  10.638  0.3402 -0.0430  0.0972
 7017W        W23151   7.678   2.994  12.248  0.1308  0.0044 -0.2482
 7018W        W23152  14.695  16.939   3.833 -0.0667 -0.0978 -0.0572
 7019W        W23153   5.920   6.932  15.149  0.1449 -0.2166 -0.1481
 7020W        W23154   7.664  13.204  13.675  0.0530 -0.2323 -0.1046
 7021W        W23155  18.731   2.808  12.285 -0.0214  0.1201  0.4472
 7022W        W23156   7.775  16.450   4.280  0.0798 -0.0803  0.3939
 7023W        W23157   9.605  10.576   4.373  0.1516 -0.1577 -0.0407
 7024W        W23158   4.793  11.822   1.969 -0.1284  0.1640  0.2068
 7025W        W23159  16.531   1.038  14.387 -0.5579 -0.2686 -0.0257
 7026W        W23160   1.766  16.578  14.221 -0.0633  0.1356  0.2367
 7027W        W23161   0.260  15.434   4.008 -0.1291 -0.2455  0.0838
 7028W        W23162   5.374   8.345   3.327  0.1226  0.0460  0.1908
 7029W        W23163   5.841   8.768   4.266 -0.3452 -0.0572 -0.2750
 7030W        W23164  18.023   7.991  14.982 -0.0137 -0.0517  0.0190
 7031W        W23165   4.095   0.094   4.464  0.0916  0.0023  0.0713
 7032W        W23166   5.465   0.195   1.125  0.1436 -0.2862 -0.3816
 7033W        W23167  12.726   5.007  10.085 -0.2930  0.2508 -0.1699
 7034W        W23168   8.384   9.292   3.807  0.0459 -0.1269  0.1308
 7035W        W23169   1.122  14.813  12.016  0.1055 -0.0791 -0.1949
 7036W        W23170  15.220  15.594   0.143  0.1991 -0.2611 -0.2387
 7037W        W23171  14.535   9.754   4.161 -0.0084  0.1775 -0.4357
 7038W        W23172  15.886   1.123   1.883 -0.1619 -0.2689 -0.4946
 7039W        W23173   4.676   9.059   4.249  0.0503  0.0032  0.0494
 7040W        W23174   9.910  11.290   3.688  0.1048 -0.4057 -0.0623
 7041W        W23175  17.370   9.583   3.977 -0.0207 -0.1569 -0.0357
 7042W        W23176   0.054  15.047   2.488  0.0575  0.3813 -0.2573
 7043W        W23177  14.274   1.755   2.662  0.4271 -0.2999  0.3574
 7044W        W23178   0.970  11.798   2.545 -0.1083 -0.1248 -0.1729
 7045W        W23179   3.640   7.262   1.910 -0.2060  0.0508  0.1200
 7046W        W23180   9.379   2.511  10.755  0.3210 -0.1917  0.0267
 7047W        W23181  11.022   9.848   3.159  0.4389  0.2562 -0.0038
 7048W        W23182  10.132   3.979  11.939 -0.1543  0.3324 -0.1673
 7049W        W23183  15.249  17.155   1.211  0.4854  0.0000 -0.3065
 7050W        W23184  10.390  11.580  13.025  0.1503 -0.1691  0.2908
 7051W        W23185  16.674  16.871   2.463 -0.0396  0.1886 -0.3261
 7052W        W23186   6.956   0.720  11.388  0.2777 -0.2946  0.0424
 7053W        W23187  13.526  14.432   4.290  0.1911 -0.2718  0.3279
 7054W        W23188   6.686   3.551  12.408 -0.0685 -0.0144 -0.2589
 7055W        W23189  10.520  18.810  10.779  0.4058  0.2986 -0.0896
 7056W        W23190  19.147  10.031  10.109  0.3125 -0.1454 -0.2577
 7057W        W23191  17.318   5.753  13.512 -0.0103 -0.0840  0.0830
 7058W        W23192   6.600   0.010   4.916 -0.0357  0.0627 -0.0374
 7059W        W23193  16.170   9.458   1.989 -0.0026  0.0495  0.1202
 7060W        W23194  11.169  13.721   0.867  0.0010  0.0170  0.0944
 7061W        W23195   7.070  15.295   4.665  0.3706  0.0849  0.0186
 7062W        W23196   4.098   1.120   0.163 -0.2114  0.3266 -0.1592
 7063W        W23197  14.008  13.329   2.961  0.1023 -0.3402  0.2209
 7064W        W23198  17.839   2.710   4.123  0.1483  0.0064  0.0093
 7065W        W23199   2.404   3.524   1.113 -0.1778  0.3439 -0.1494
 7066W        W23200   7.369  16.891   3.668  0.1034 -0.1695 -0.2467
 7067W        W23201   6.884  14.415  13.340  0.0673  0.1102 -0.1668
 7068W        W23202   1.275   3.329   0.914 -0.1892  0.1091  0.2782
 7069W        W23203  16.644   7.928   4.439 -0.1923  0.0896 -0.0311
 7070W        W23204  14.268   0.170  12.419 -0.0117  0.0369  0.1366
 7071W        W23205  14.692   6.349   1.096  0.1113  0.2422  0.1012
 7072W        W23206   5.411   3.020   0.676  0.0889 -0.1715 -0.3596
 7073W        W23207   0.430  11.334  12.555 -0.1889  0.2949 -0.2148
 7074W        W23208  13.698   7.043  13.025  0.1094 -0.2583 -0.0761
 7075W        W23209   4.923  17.310   0.170 -0.0261 -0.0133 -0.1135
 7076W        W23210   0.315   2.923   3.421 -0.0405 -0.1452  0.0367
 7077W        W23211  14.305   7.088   1.523  0.2146  0.3215  0.2117
 7078W        W23212  15.732  12.592   3.800 -0.0066 -0.3058 -0.2232
 7079W        W23213  18.222   7.532   1.110 -0.1405  0.1647 -0.2477
 7080W        W23214   0.772  11.369  14.319 -0.3637  0.2320  0.0301
 7081W        W23215   6.905   3.029  10.580 -0.1983 -0.2832  0.1761
 7082W        W23216   7.983  18.396  14.245 -0.1905  0.4052  0.2389
 7083W        W23217  13.844   8.506  13.623  0.2444 -0.2756 -0.1483
 7084W        W23218  13.793  14.281   0.739  0.0088  0.0914 -0.2179
 7085W        W23219  13.508   3.950   5.619 -0.1306 -0.1476  0.3892
 7086W        W23220  11.122  17.910  14.337 -0.1198 -0.0725 -0.2187
 7087W        W23221   4.587   8.164   5.337  0.0047 -0.0169  0.0214
 7088W        W23222   0.885  17.049  12.369 -0.0623  0.2378 -0.0715
 7089W        W23223   5.415  17.532   4.663  0.1486  0.0931 -0.0149
 7090W        W23224   0.383   6.729  10.829  0.1461  0.0198  0.0935
 7091W        W23225   0.251  15.379  12.576 -0.0126  0.0982 -0.1467
 7092W        W23226   8.539  13.630   4.794  0.0036  0.2786 -0.0295
 7093W        W23227  18.418  10.032   0.656  0.1396 -0.1170 -0.2682
 7094W        W23228   8.420  12.920  10.736 -0.1774 -0.1104 -0.1380
 7095W        W23229  12.217   1.244   0.727  0.3037 -0.0464  0.1284
 7096W        W23230  10.224  12.713   1.385  0.1157 -0.0516 -0.3432
 7097W        W23231   9.896   8.613  10.367  0.2321  0.0231  0.1645
 7098W        W23232   9.056  16.753   2.798 -0.0593 -0.2492 -0.2688
 7099W        W23233   5.747   9.664   2.018 -0.0103 -0.0631 -0.1069
 7100W        W23234   5.766  11.232  14.784  0.2412 -0.0397  0.0376
 7101W        W23235  16.012   2.358  11.844  0.0345 -0.3064 -0.2131
 7102W        W23236  12.470   8.991  11.984 -0.2085 -0.0649  0.0269
 7103W        W23237   5.111  18.708   9.529 -0.0204 -0.0740 -0.2913
 7104W        W23238  12.576   9.057  14.651 -0.0993  0.0158 -0.0278
 7105W        W23239   8.813   3.327   2.876  0.1111  0.2134  0.1336
 7106W        W23240   0.373  11.789   2.497  0.1744 -0.2408 -0.1306
 7107W        W23241   1.614  15.828  12.380  0.2746  0.0134 -0.0349
 7108W        W23242  13.239  13.299  14.951 -0.0065  0.0669 -0.0141
 7109W        W23243   9.929  14.649  14.449 -0.1976 -0.0305  0.0453
 7110W        W23244  15.322   7.844  12.957  0.0848 -0.4456  0.1421
 7111W        W23245   8.309   9.194  14.480  0.0345 -0.0629  0.1318
 7112W        W23246   7.773  14.220  12.304  0.0044 -0.1539  0.3097
 7113W        W23247   2.829   2.985  12.880  0.0219 -0.0260 -0.0800
 7114W        W23248   9.744  15.146  11.257  0.0190  0.0714  0.3346
 7115W        W23249   9.781   4.585  11.439 -0.0343  0.1533 -0.3397
 7116W        W23250   9.356  12.709   2.452 -0.1604 -0.0610  0.2832
 7117W        W23251   2.908   6.595   0.962 -0.3770 -0.1985  0.0566
 7118W        W23252  13.943  11.484   4.362  0.1928 -0.1429 -0.2779
 7119W        W23253   0.362   8.067   3.234  0.1025  0.3949  0.0789
 7120W        W23254   1.137   1.931   1.936  0.2161 -0.1058  0.0849
 7121W        W23255  14.859  14.190  14.942 -0.2938  0.2827 -0.1043
 7122W        W23256   4.670  12.700  11.365  0.2432 -0.2730  0.2283
 7123W        W23257  12.510   6.381  13.104  0.4143  0.1355 -0.3374
 7124W        W23258   2.208   8.460  12.840 -0.1020 -0.0841 -0.6397
 7125W        W23259  19.093  10.936   2.736  0.2590 -0.1146 -0.0181
 7126W        W23260  15.878   7.070   1.552  0.3273  0.0132  0.1213
 7127W        W23261  11.409   0.183  12.881 -0.1516  0.1451 -0.2587
 7128W        W23262   2.269  12.679  14.405 -0.0320  0.1760  0.1881
 7129W        W23263  16.823  16.150   2.211  0.0204 -0.0032  0.0729
 7130W        W23264  14.118  16.047   3.212  0.0743  0.0683  0.4148
 7131W        W23265   5.067   6.717   5.023 -0.0241 -0.1759  0.0342
 7132W        W23266  14.259  15.865  12.411  0.0799 -0.0507 -0.0089
 7133W        W23267  11.327  10.263  10.717  0.0529 -0.0703  0.1763
 7134W        W23268  13.973   6.740   1.709 -0.3677  0.0225 -0.0087
 7135W        W23269  15.948  17.125  10.300 -0.0793  0.0289  0.1368
 7136W        W23270  12.673   3.031   3.730 -0.0893  0.3279 -0.1477
 7137W        W23271   4.195   1.214   4.012 -0.1790 -0.1809 -0.2020
 7138W        W23272   6.386   5.079   0.484 -0.2624 -0.1577 -0.0433
 7139W        W23273   8.838   6.384   3.413  0.0067 -0.4277 -0.1860
 7140W        W23274   9.767  13.470  12.312 -0.2546  0.2971 -0.2753
 7141W        W23275  10.981  13.827  12.051  0.1904 -0.1428 -0.1951
 7142W        W23276  15.130   6.747   9.616  0.1842  0.1524 -0.0736
 7143W        W23277  18.090   3.214   0.357  0.0621  0.2252  0.0090
 7144W        W23278   2.672  12.443   3.276  0.1322  0.0172  0.2303
 7145W        W23279  12.199  13.451  13.695  0.1584  0.0746 -0.0043
 7146W        W23280   5.413  10.529   2.097 -0.3557  0.1477 -0.0345
 7147W        W23281   9.946   7.689   2.457 -0.0320  0.1409 -0.2594
 7148W        W23282   0.638  13.690   3.349 -0.1598  0.1711  0.1015
 7149W        W23283   2.347   7.943   3.753 -0.1233  0.1506  0.1096
 7150W        W23284  13.205  11.675  14.299 -0.2687  0.1430 -0.4092
 7151W        W23285  10.518  16.908   3.271 -0.1320  0.2120 -0.2711
 7152W        W23286   6.529   1.903   0.418 -0.3103  0.3068 -0.0979
 7153W        W23287  16.236  14.527   9.835  0.3123 -0.3623  0.2505
 7154W        W23288  10.279   5.610  11.905  0.4417 -0.0926 -0.1336
 7155W        W23289   1.775  15.133   2.991  0.0690  0.0352 -0.1001
 7156W        W23290  16.549  15.136  12.509  0.0796 -0.2335 -0.1598
 7157W        W23291  15.766  15.386   0.310 -0.0536 -0.0624 -0.1434
 7158W        W23292   2.755  18.263   5.266  0.4056 -0.0024  0.1758
 7159W        W23293  10.678   3.457  13.193  0.1167  0.1762  0.2613
 7160W        W23294  13.424  18.990  14.478  0.1292  0.1780  0.1596
 7161W        W23295   3.077   5.630  13.924 -0.1755 -0.2518  0.3470
 7162W        W23296  11.989   3.098  14.648  0.0090 -0.1669  0.0076
 7163W        W23297   8.701  10.461  15.003 -0.0766  0.3710  0.0704
 7164W        W23298   7.876   8.763  11.002  0.1020 -0.1406  0.2780
 7165W        W23299   7.873  16.131  12.132  0.0158  0.1724  0.0143
 7166W        W23300  18.182   9.097   3.183  0.2487 -0.0784  0.1587
 7167W        W23301   6.885   5.978   2.718 -0.1026  0.1720 -0.0822
 7168W        W23302  11.926   7.026   4.156  0.0272  0.0561 -0.2122
 7169W        W23303   6.566  15.688  12.115  0.0750  0.0751  0.1010
 7170W        W23304  18.151  12.564   3.695 -0.0162 -0.1935  0.0360
 7171W        W23305  15.966   5.924   1.139  0.1517 -0.3816  0.1305
 7172W        W23306   4.284   7.931   1.056 -0.0583 -0.0211  0.1779
 7173W        W23307   8.152  18.360   5.358  0.1213 -0.0499  0.1659
 7174W        W23308   3.052  13.774   1.682  0.3503  0.1114  0.2427
 7175W        W23309  11.460  12.476  13.990  0.0650  0.1454 -0.1212
 7176W        W23310   3.812   6.554  11.433  0.0655  0.0876  0.2028
 7177W        W23311   7.022   7.018  12.634 -0.5300  0.2345  0.1471
 7178W        W23312  18.574   9.319  13.047  0.1889 -0.0550 -0.0334
 7179W        W23313  11.464  11.763   0.695 -0.1430 -0.0131  0.2699
 7180W        W23314   1.111  16.615  10.773 -0.0129 -0.1888  0.2376
 7181W        W23315  17.287   1.650   0.130  0.0303  0.0037  0.1480
 7182W        W23316  15.667  15.002   1.312  0.0410  0.0638 -0.0843
 7183W        W23317  10.287   0.963  11.761 -0.1644  0.2737  0.0353
 7184W        W23318  16.916   9.601   3.805  0.0005  0.1518  0.0872
 7185W        W23319   6.221   5.467   0.765  0.0795 -0.1532  0.0680
 7186W        W23320   3.496   6.433  12.252 -0.3859 -0.2045  0.2409
 7187W        W23321  15.103  17.382  12.526  0.0256 -0.0195 -0.0848
 7188W        W23322  14.686  13.130   2.449  0.4601 -0.0502  0.1938
 7189W        W23323  13.617   2.083   4.933  0.0432  0.1149 -0.2118
 7190W        W23324  17.144   2.833  13.738  0.3526  0.2259 -0.0716
 7191W        W23325   2.551   0.537  13.346  0.0835 -0.0271 -0.2737
 7192W        W23326  13.980   3.854  14.692  0.0280 -0.2399 -0.1244
 7193W        W23327   2.076   9.360  13.180 -0.3040 -0.2640 -0.3256
 7194W        W23328  18.659   6.429  13.619  0.0266  0.0116 -0.1538
 7195W        W23329  16.085  16.454   2.421  0.0533  0.2548  0.1928
 7196W        W23330   4.592   1.110  13.509 -0.2501  0.2176 -0.1161
 7197W        W23331  12.137   9.636   3.871  0.1053 -0.1103 -0.0240
 7198W        W23332  16.852   3.540  11.757 -0.0208  0.1561 -0.4251
 7199W        W23333  14.619  15.904  14.756  0.3418  0.0205 -0.2241
 7200W        W23334  14.753   5.275  13.730 -0.0595 -0.1935 -0.1568
 7201W        W23335  17.300  12.196  10.900 -0.4590 -0.0362 -0.1336
 7202W        W23336   3.999   5.460  12.212 -0.1278  0.1772  0.1321
 7203W        W23337   5.624   1.320   3.783 -0.1345 -0.3164 -0.2448
 7204W        W23338  14.167  15.764   0.828  0.1326  0.2237 -0.0304
 7205W        W23339  11.225   4.724   1.378  0.3956  0.2350  0.0772
 7206W        W23340   8.190  15.814   2.341 -0.2169 -0.2136  0.1003
 7207W        W23341  18.925  12.576  11.045  0.0048 -0.0059 -0.1119
 7208W        W23342  11.834  10.567  14.760 -0.1822 -0.1750 -0.1806
 7209W        W23343   4.222   4.904   2.467  0.0299 -0.1637 -0.0374
 7210W        W23344  17.772  14.734   4.303  0.0886 -0.2222 -0.0979
 7211W        W23345   6.367   3.615   3.159 -0.2787  0.2096  0.3044
 7212W        W23346  15.418  16.838  11.490  0.4167 -0.1001 -0.0535
 7213W        W23347  14.632   2.931   0.334  0.1918  0.3470 -0.2072
 7214W        W23348  16.538   8.638   0.165  0.1880 -0.1959 -0.0673
 7215W        W23349   0.483  18.881  13.328 -0.0044  0.0502 -0.1698
 7216W        W23350   8.094   6.117   4.390 -0.1832  0.1245 -0.1112
 7217W        W23351   1.699   9.504   0.234 -0.2760 -0.2230  0.1327
 7218W        W23352   5.574   2.237  12.588 -0.1016  0.2574 -0.1611
 7219W        W23353  18.997  12.509   0.835 -0.1702 -0.2583  0.0663
 7220W        W23354  11.880  16.498   0.910 -0.1358  0.1362  0.4063
 7221W        W23355   2.079  10.304  11.521 -0.0355 -0.0271  0.0958
 7222W        W23356  11.254  10.535   1.852 -0.2748 -0.0159  0.3342
 7223W        W23357   1.069  12.328   1.600  0.0594  0.3065 -0.3867
 7224W        W23358  10.686   8.466   0.520 -0.1069  0.0022 -0.0717
 7225W        W23359   8.995  18.525  12.339 -0.0043 -0.0364  0.2030
 7226W        W23360   4.167   1.557  14.493  0.2530 -0.2406  0.0807
 7227W        W23361  16.046   0.289   5.238 -0.0635 -0.1742  0.4164
 7228W        W23362   8.549   7.219   0.500 -0.2881  0.5212 -0.0052
 7229W        W23363  15.838   2.073   4.862  0.2629  0.2040  0.0437
 7230W        W23364  17.827  16.217   3.107  0.0465 -0.1169 -0.3225
 7231W        W23365  12.781   2.723   9.916 -0.2552 -0.0625 -0.1568
 7232W        W23366  14.025  14.771   0.026 -0.0629 -0.1791  0.1698
 7233W        W23367  16.249   0.241   3.304  0.0047  0.3184 -0.0250
 7234W        W23368  17.015  12.886   1.658  0.1437  0.0361 -0.0658
 7235W        W23369   1.516  12.888   2.662 -0.0699  0.0203 -0.0095
 7236W        W23370   4.535  17.884  14.961 -0.2002  0.0931 -0.3532
 7237W        W23371  17.579   3.031  13.683  0.0437 -0.2299  0.2761
 7238W        W23372  14.470   3.755  11.930  0.2210  0.4724 -0.1202
 7239W        W23373   5.403  18.601  12.604  0.0538 -0.0083  0.0444
 7240W        W23374   9.410  19.057   1.753 -0.0828 -0.2859  0.2594
 7241W        W23375   7.257   7.377   5.259  0.0275  0.1995  0.1094
 7242W        W23376   3.088  11.579  11.392  0.1382  0.0918  0.1406
 7243W        W23377  15.554   6.668  13.074 -0.0610 -0.1879  0.4103
 7244W        W23378   4.798   9.156   3.686  0.0743 -0.2873  0.0412
 7245W        W23379  11.815   8.456   2.847  0.0673 -0.0076 -0.0396
 7246W        W23380  18.982   0.004  12.485 -0.2491 -0.1205  0.3993
 7247W        W23381  18.336   6.532  12.327 -0.1501  0.0017 -0.3263
 7248W        W23382  11.803  18.088  11.115  0.0415  0.1637 -0.1057
 7249W        W23383   1.217   9.110  14.862 -0.1052  0.0930 -0.1622
 7250W        W23384  12.929   7.242  11.883  0.1992 -0.2751 -0.3194
 7251W        W23385   2.975  15.198   4.455 -0.1329  0.0255 -0.0320
 7252W        W23386  17.658   2.008   4.756  0.0105 -0.2439  0.2730
 7253W        W23387   8.670   3.139   4.284  0.0301  0.1537  0.1180
 7254W        W23388  16.863  12.004   3.125 -0.0890  0.1913 -0.0261
 7255W        W23389   2.783  13.791   2.836 -0.2757  0.0201  0.0528
 7256W        W23390  17.620   2.752  12.354 -0.3278 -0.0241  0.0416
 7257W        W23391   5.875  17.440  11.006 -0.0556  0.1886 -0.0760
 7258W        W23392  16.321   2.484   3.942 -0.0040 -0.0686 -0.0687
 7259W        W23393  18.126   3.517  10.303  0.0653  0.0967  0.2234
 7260W        W23394   9.956  18.584  13.601  0.0316 -0.1136  0.3389
 7261W        W23395  16.130   9.785   1.079 -0.0533 -0.1335  0.0900
 7262W        W23396  12.505   5.663  13.964  0.4897  0.0924 -0.2555
 7263W        W23397   9.684   6.369   3.591  0.0658 -0.2433 -0.1414
 7264W        W23398   8.207   1.160  12.524  0.3818  0.1611  0.0450
 7265W        W23399  18.871  12.523   2.883 -0.1228 -0.2834 -0.1289
 7266W        W23400  15.246   6.172  12.222 -0.0601  0.0916  0.1615
 7267W        W23401  12.854  14.588   1.503  0.2041 -0.1077 -0.2169
 7268W        W23402   5.266   3.677  14.108 -0.0626  0.0042  0.1031
 7269W        W23403   3.765   8.573  13.550  0.0688 -0.0904 -0.1950
 7270W        W23404   3.142   2.518  14.546  0.2287 -0.0436  0.0018
 7271W        W23405   3.572   5.931   0.461 -0.1889  0.0366 -0.1840
 7272W        W23406  12.250  10.920   4.911  0.3482 -0.1300  0.1308
 7273W        W23407   8.980   9.532  11.963 -0.0818 -0.3953 -0.3300
 7274W        W23408   4.800  16.353  13.570 -0.0531 -0.0362 -0.2173
 7275W        W23409   7.740   6.268   2.583  0.1056  0.1452 -0.0785
 7276W        W23410  10.114  11.597  11.574  0.4718  0.0893  0.2631
 7277W        W23411  17.260   1.544  11.850  0.0930  0.0042  0.1178
 7278W        W23412  10.135  17.565   2.802  0.0465 -0.0849  0.2402
 7279W        W23413   5.085   6.095  11.821 -0.0661 -0.1663 -0.1018
 7280W        W23414   6.683   7.336   3.207 -0.0572 -0.0017 -0.1539
 7281W        W23415   8.769   3.562   4.010 -0.0239 -0.2767  0.2466
 7282W        W23416   4.221   0.012  14.321  0.0872 -0.2381 -0.2281
 7283W        W23417  12.476   1.932   3.286 -0.0271 -0.3010 -0.0983
 7284W        W23418   4.877   4.009   3.925  0.0036 -0.0338  0.1615
 7285W        W23419  11.627  12.943   2.641 -0.1739  0.2201  0.0588
 7286W        W23420   0.445   7.626   1.219  0.2785  0.1389 -0.4181
 7287W        W23421   2.876   0.835   4.550  0.0507  0.4314 -0.2739
 7288W        W23422   3.668   8.369   1.640 -0.2392 -0.0748  0.1196
 7289W        W23423  18.300  17.539  10.674  0.2062  0.0050  0.1239
 7290W        W23424   9.228   3.422   1.127  0.2150  0.2041 -0.2373
 7291W        W23425   2.318  13.876   4.876  0.2408  0.1461  0.1492
 7292W        W23426   1.571   1.458  11.311 -0.1040  0.1549 -0.1204
 7293W        W23427  12.497   2.335   4.732  0.0149  0.1580 -0.1238
 7294W        W23428  18.665   0.448   0.381 -0.1197  0.0359  0.0615
 7295W        W23429   7.477   1.350  11.074 -0.1736  0.2068 -0.1594
 7296W        W23430   5.284  18.013  10.351  0.2671 -0.1305  0.2073
 7297W        W23431   5.509   4.722   5.095 -0.1387 -0.0515  0.1718
 7298W        W23432  13.736   1.149   3.471  0.0974 -0.0876 -0.0092
 7299W        W23433   4.574  18.654   5.257 -0.0884 -0.1950 -0.1301
 7300W        W23434  16.707   7.307   5.079 -0.0294  0.1347  0.0364
 7301W        W23435  10.712  10.686   2.605  0.0372  0.2997 -0.0789
 7302W        W23436   7.757   9.115   4.147 -0.2921  0.2019 -0.0262
 7303W        W23437  17.658  16.937   0.979  0.1685 -0.1838  0.3344
 7304W        W23438   8.952  15.620   5.059  0.4138 -0.0515  0.1212
 7305W        W23439   7.693  14.880   0.254  0.2044  0.0520 -0.0197
 7306W        W23440  17.141   0.271   2.640 -0.0353 -0.5995 -0.2414
 7307W        W23441  15.185   2.615  14.229 -0.3625  0.1390  0.0222
 7308W        W23442   7.981   0.142   2.056  0.0696  0.1978 -0.1153
 7309W        W23443   5.304   6.268  15.132 -0.1327 -0.3379  0.1699
 7310W        W23444  11.097   0.548  13.190 -0.1010 -0.1336 -0.1722
 7311W        W23445  17.022   4.821  10.743 -0.1402  0.1207 -0.0168
 7312W        W23446  18.522  14.745  13.666 -0.1828  0.0019 -0.1843
 7313W        W23447  14.831   1.037  15.173 -0.0969 -0.0729  0.1529
 7314W        W23448  13.607  10.188   1.775 -0.1600 -0.1192  0.2311
 7315W        W23449   3.338  18.716   1.516 -0.0813  0.0619 -0.0577
 7316W        W23450  16.060  16.016   3.926 -0.0182  0.1675 -0.2150
 7317W        W23451  12.246  16.686  13.566  0.1514 -0.0488 -0.4890
 7318W        W23452  15.407  10.287  14.413 -0.2928 -0.3903  0.0291
 7319W        W23453  11.062   3.716   2.875 -0.1228 -0.2063 -0.4183
 7320W        W23454   6.163   3.595   0.803  0.2592  0.0617 -0.0607
 7321W        W23455   6.693   7.921  12.445  0.0814 -0.0971 -0.0348
 7322W        W23456  11.427  19.079   2.542  0.1169  0.0268  0.3748
 7323W        W23457  11.761  10.009  11.065 -0.2508  0.1849  0.1892
 7324W        W23458   0.994   1.765   4.611 -0.0329  0.2153 -0.0534
 7325W        W23459  13.437  18.402  13.311  0.1616  0.0809 -0.1648
 7326W        W23460   9.994   9.061  14.675 -0.1752 -0.0886  0.1374
 7327W        W23461   4.175   5.253  10.405 -0.0793 -0.1139  0.4265
 7328W        W23462   5.425  13.292   1.960 -0.3361 -0.0669  0.0717
 7329W        W23463   6.141  10.806  13.648  0.1154  0.3275  0.1172
 7330W        W23464  18.960  13.586   2.175 -0.3371  0.0713  0.1335
 7331W        W23465   3.998  14.606  12.856 -0.1479  0.0481 -0.1206
 7332W        W23466  17.584   0.027   2.590 -0.3456 -0.1146 -0.0345
 7333W        W23467  15.224  19.129  13.412 -0.0333 -0.1421 -0.4640
 7334W        W23468   2.650   0.025  13.243 -0.1141  0.1295 -0.1485
 7335W        W23469   8.533  11.718  12.887  0.0808  0.0502  0.3091
 7336W        W23470   8.851  12.933  13.306  0.0961 -0.2126  0.2449
 7337W        W23471  11.024  12.222  13.031  0.0175 -0.0155 -0.0506
 7338W        W23472   1.664   8.778   3.649  0.0574 -0.1768 -0.0444
 7339W        W23473  14.662   8.233   2.370  0.0157  0.1717 -0.1213
 7340W        W23474   2.729   1.563  14.835  0.3006 -0.0650 -0.2159
 7341W        W23475   8.897   1.379   2.146  0.2004  0.2178  0.1832
 7342W        W23476  15.511  16.305   3.883  0.2761  0.0533 -0.3184
 7343W        W23477   1.273   7.487   1.178 -0.0540  0.2185  0.2480
 7344W        W23478   0.991  16.705  13.269 -0.0548 -0.1185  0.0856
 7345W        W23479  10.172   8.028   1.574 -0.1840  0.3834 -0.0070
 7346W        W23480   5.939  16.245   2.945  0.0536  0.0824  0.2941
 7347W        W23481  18.451   2.939   1.659 -0.0493 -0.1130 -0.1774
 7348W        W23482  14.994   5.325  12.180 -0.2432  0.5807  0.0281
 7349W        W23483   8.528  11.083  11.458  0.1070  0.0047 -0.0625
 7350W        W23484  10.842  19.034  13.938  0.1269  0.0010  0.2983
 7351W        W23485   9.780  14.850   5.597 -0.1471 -0.3381 -0.3573
 7352W        W23486  17.347  10.795   4.143  0.1229  0.2806 -0.2269
 7353W        W23487  15.608   3.677  10.617  0.1768 -0.1927 -0.2845
 7354W        W23488   0.251  17.507   1.070  0.0668  0.1035 -0.2683
 7355W        W23489  14.728   0.393  12.476  0.2949  0.1241 -0.2504
 7356W        W23490   8.318   7.151  14.755  0.0596 -0.0301 -0.1380
 7357W        W23491   6.296  12.492  12.834  0.3169  0.1277 -0.0084
 7358W        W23492  15.618  11.797   1.621  0.0256  0.1802  0.2536
 7359W        W23493   6.643   8.734  12.933  0.0762  0.1228  0.1679
 7360W        W23494   7.024   1.297   5.424 -0.1882 -0.1346 -0.0686
 7361W        W23495   2.035   1.786  11.984  0.0084  0.1893  0.0078
 7362W        W23496   4.542   3.637  10.173  0.5891  0.2986  0.1330
 7363W        W23497   6.502  12.806  12.375 -0.1844  0.0103 -0.0753
 7364W        W23498   9.692  12.421  11.082  0.1150 -0.2054  0.0470
 7365W        W23499  14.192  16.998  12.511  0.2818  0.0992  0.1365
 7366W        W23500  14.058   6.092  14.519 -0.0325  0.2609  0.2142
 7367W        W23501  15.993  18.435   2.543  0.1220 -0.2466  0.2236
 7368W        W23502   3.088   0.128   2.841 -0.0630  0.2294 -0.2003
 7369W        W23503   6.970   0.782   2.666  0.4292 -0.1188  0.2013
 7370W        W23504  16.373   6.739  14.484  0.0302  0.2159  0.1788
 7371W        W23505  16.067   7.273  11.369  0.0343 -0.0472  0.1938
 7372W        W23506   7.083  17.627   3.167 -0.2463  0.3645  0.1309
 7373W        W23507  13.899  16.068  12.762 -0.1709  0.1282 -0.1113
 7374W        W23508   0.234   1.256   1.172 -0.0729 -0.3889  0.0851
 7375W        W23509   9.064  16.361   3.621 -0.4857  0.1265  0.0069
 7376W        W23510   4.527  10.796   9.956  0.0049  0.1915 -0.1909
 7377W        W23511  11.899  11.378   2.817  0.1330 -0.2648  0.3404
 7378W        W23512   6.924   5.643   1.110 -0.0842  0.3128 -0.4700
 7379W        W23513  10.517  13.805  10.390  0.0456  0.0686 -0.1048
 7380W        W23514   4.947  11.175  13.772  0.1396  0.1139  0.1940
 7381W        W23515  11.093   7.997   3.647  0.0580 -0.3034  0.1109
 7382W        W23516  14.613   0.683   5.059 -0.0908 -0.0876 -0.2356
 7383W        W23517  11.772  10.103   4.217 -0.2033  0.0381  0.4086
 7384W        W23518   9.144  18.297  11.131 -0.0986 -0.0381 -0.4051
 7385W        W23519  18.301  11.184   4.339  0.0702  0.2940 -0.5868
 7386W        W23520   6.266  10.858   4.646  0.1161  0.2554  0.2132
 7387W        W23521  18.522   4.976  14.643 -0.1413  0.1675  0.0070
 7388W        W23522   6.797  18.933  13.669  0.0818  0.2598 -0.0992
 7389W        W23523  12.616   9.399   3.875 -0.0216 -0.1709 -0.0204
 7390W        W23524  13.756   3.552  10.486  0.2773  0.0444 -0.0530
 7391W        W23525  17.077   1.528  14.087  0.1730 -0.0624  0.0021
 7392W        W23526  12.236   1.723   1.851 -0.0356 -0.0311  0.2080
 7393W        W23527   3.173  10.966  14.238 -0.1393 -0.0610  0.3049
 7394W        W23528   4.343   5.229  14.149  0.0009  0.2159  0.1703
 7395W        W23529  12.814   3.345   5.664 -0.2518 -0.0639  0.0721
 7396W        W23530  18.894  14.293   2.667 -0.3326  0.2244  0.1138
 7397W        W23531  18.199  11.782   0.865  0.0208  0.1387  0.2837
 7398W        W23532  10.745   5.251   3.642  0.2036  0.1033 -0.1745
 7399W        W23533  12.996  18.434   3.278 -0.3086  0.1355  0.0323
 7400W        W23534   3.587   2.785   2.455 -0.1185  0.2768  0.0715
 7401W        W23535  17.058  15.100  10.923 -0.1575 -0.2209  0.1487
 7402W        W23536   0.806   8.019   4.123  0.0692 -0.0560 -0.2589
 7403W        W23537  13.358   1.193   1.401  0.0615  0.1034  0.1420
 7404W        W23538   8.951   3.541   1.529 -0.0063  0.0924  0.1119
 7405W        W23539   4.067  10.740  13.197 -0.2129  0.0622 -0.0070
 7406W        W23540   0.306  11.360  13.025 -0.0660 -0.0155 -0.1741
 7407W        W23541  13.887   7.228   4.474 -0.0646  0.1957 -0.0601
 7408W        W23542   6.057  15.079   0.714  0.0013 -0.0637  0.3417
 7409W        W23543   1.758   6.131  14.186 -0.2410 -0.4563  0.1235
 7410W        W23544  14.378   0.709   0.107 -0.1370  0.0183  0.1516
 7411W        W23545  15.970   8.155  10.372  0.1560  0.1326 -0.2787
 7412W        W23546  16.362  11.329  12.705  0.1287  0.1613  0.6313
 7413W        W23547  13.526   5.255   2.558 -0.0543 -0.4933  0.2203
 7414W        W23548   9.983   9.021   1.475 -0.0953  0.0547 -0.2169
 7415W        W23549   0.919  11.685   2.025  0.0921  0.1022  0.1283
 7416W        W23550  12.165   8.817   2.498  0.0275  0.0215  0.0087
 7417W        W23551   6.270   4.658   1.268 -0.1003 -0.2858  0.2221
 7418W        W23552  11.906  14.010  10.911  0.0597 -0.0786 -0.0832
 7419W        W23553   7.969  16.041   4.637 -0.0865 -0.0231  0.0922
 7420W        W23554  12.093  11.051   0.446  0.0969 -0.0700 -0.1059
 7421W        W23555  10.311  12.706   2.371 -0.2111 -0.1187  0.5579
 7422W        W23556   8.418   4.298   4.341  0.0579  0.1267  0.0509
 7423W        W23557   5.822  12.438   3.595  0.0164  0.3818 -0.0451
 7424W        W23558  17.032   0.198  11.671 -0.1074  0.2575 -0.2373
 7425W        W23559  13.851   7.882   3.582 -0.0753  0.1301 -0.1949
 7426W        W23560   2.342   0.396  10.997  0.1179 -0.1061 -0.1364
 7427W        W23561   3.807  15.892   0.970 -0.2364 -0.5261 -0.1155
 7428W        W23562  13.829   1.974  12.929  0.0917 -0.1785  0.0147
 7429W        W23563   2.386   6.856   9.598  0.0941  0.0649 -0.0986
 7430W        W23564  13.765  16.461   0.578 -0.3831  0.0814 -0.2222
 7431W        W23565  12.165   2.436   0.714  0.0606  0.0423 -0.0913
 7432W        W23566   9.610  12.440  14.296  0.0313 -0.0605  0.0385
 7433W        W23567   6.093  12.777   5.354 -0.0139 -0.2081 -0.1744
 7434W        W23568  10.086   8.830  12.344 -0.1052  0.0395  0.1429
 7435W        W23569   7.798   7.071   6.250  0.0326  0.2268  0.0242
 7436W        W23570   4.457   0.229  10.959  0.1163 -0.1319  0.4794
 7437W        W23571  10.626  13.393  14.800 -0.3377  0.2164  0.0000
 7438W        W23572   9.541  16.193   0.516  0.3555  0.1739 -0.1232
 7439W        W23573   7.988  10.361  13.962 -0.0674  0.1826  0.0910
 7440W        W23574   2.930   8.292  10.674  0.3102  0.0579 -0.1016
 7441W        W23575   4.005   8.922   0.337 -0.0072  0.1180  0.0409
 7442W        W23576  12.950  16.763   0.520  0.2339 -0.1749  0.0314
 7443W        W23577   6.687   9.902   3.260 -0.1613 -0.4234  0.2773
 7444W        W23578   4.233   3.711  12.262 -0.2935  0.1379 -0.0861
 7445W        W23579  17.639   7.357  10.246 -0.1069  0.1127 -0.1848
 7446W        W23580  17.753  18.738   0.155  0.2233 -0.2223 -0.0254
 7447W        W23581  17.812   0.938  14.441 -0.3489 -0.2992 -0.0543
 7448W        W23582  10.402  16.048  10.212  0.2527 -0.0058  0.1345
 7449W        W23583  13.796   8.650   0.010  0.0166  0.2908 -0.2021
 7450W        W23584  12.238   2.233   0.208  0.1418  0.1460 -0.0223
 7451W        W23585   5.749  15.909   2.050 -0.0134  0.0509  0.0211
 7452W        W23586   6.491   9.092  11.833 -0.0847 -0.0493 -0.1256
 7453W        W23587   6.281  16.203  13.291 -0.1425 -0.2554  0.0559
 7454W        W23588  11.553  17.655  12.319 -0.0826 -0.0665  0.0156
 7455W        W23589   2.909   4.425  12.735  0.0005  0.1037 -0.0049
 7456W        W23590  10.040   1.400   2.472  0.1358  0.0643 -0.1222
 7457W        W23591  14.623  17.813   3.552  0.3475 -0.2670 -0.1861
 7458W        W23592   1.280  10.512   3.524 -0.1774  0.0038 -0.0906
 7459W        W23593   5.575  10.618   0.309 -0.0673 -0.3724  0.0401
 7460W        W23594  14.042   1.275  14.646 -0.0547 -0.3096  0.2545
 7461W        W23595   0.994  13.559   5.625 -0.3843 -0.2861 -0.2665
 7462W        W23596   7.660   1.594   0.734 -0.2787  0.1378  0.0015
 7463W        W23597   6.903   7.611  14.441 -0.2832 -0.2416 -0.0608
 7464W        W23598   7.922  16.136  13.761  0.1304  0.2975 -0.0848
 7465W        W23599  17.087  13.093   0.734  0.0254 -0.0919 -0.0164
 7466W        W23600   8.832  11.502   5.143  0.1531  0.1013  0.3252
 7467W        W23601   3.321   9.661  10.168 -0.4330 -0.2271  0.2227
 7468W        W23602  15.534   4.337   3.991 -0.0461  0.3392 -0.3678
 7469W        W23603  11.933  13.406   0.924  0.0559  0.1430  0.3577
 7470W        W23604   5.374  12.256   2.617 -0.1582  0.2520 -0.5193
 7471W        W23605  18.705   8.760  12.957 -0.1338  0.1631  0.2184
 7472W        W23606  15.861  18.844  11.902  0.0801 -0.0626 -0.2413
 7473W        W23607  13.410  15.721   2.721 -0.1004 -0.0669  0.0545
 7474W        W23608  11.864  10.997   1.170 -0.1425  0.1318 -0.1885
 7475W        W23609   1.366  16.361   2.634 -0.0465  0.2915 -0.0460
 7476W        W23610  18.503  18.658  11.070 -0.1816  0.2726  0.1186
 7477W        W23611   9.085  14.793   3.965  0.1599  0.0606 -0.0312
 7478W        W23612  16.019  14.344  14.345 -0.0937 -0.0089  0.0276
 7479W        W23613   5.199   6.454   3.489 -0.1366  0.1893 -0.0646
 7480W        W23614  15.611   0.739  10.361 -0.1792  0.1177 -0.0349
 7481W        W23615  11.464  10.474   3.852  0.0082  0.4065  0.1844
 7482W        W23616  12.486   3.126  10.968 -0.2110  0.2560  0.0292
 7483W        W23617   6.191   5.701   1.662 -0.2031  0.1097 -0.3602
 7484W        W23618   2.659   0.410   1.424 -0.4073 -0.1806 -0.2475
 7485W        W23619  11.762   9.529   3.525  0.0928  0.0120  0.1291
 7486W        W23620   3.353  14.305   0.722  0.0258  0.0938 -0.2806
 7487W        W23621   2.802   4.441  10.475 -0.1957  0.1682 -0.0330
 7488W        W23622  10.787   2.583   3.962  0.3193 -0.0177 -0.0793
 7489W        W23623  11.148  16.484  13.602  0.1618 -0.0103  0.0746
 7490W        W23624   3.455   5.850  14.788  0.0467 -0.0962 -0.1904
 7491W        W23625   7.796  17.185   3.618  0.2388 -0.0205 -0.0627
 7492W        W23626  16.332   9.342   5.325 -0.1059  0.2446 -0.0300
 7493W        W23627  10.327  13.530   4.390  0.2571  0.2695 -0.0038
 7494W        W23628   3.371   3.131   1.211  0.0201  0.2457 -0.2370
 7495W        W23629  12.665  12.500   5.286 -0.0218 -0.0032  0.0455
 7496W        W23630   3.383  13.571   1.365  0.0373  0.0098  0.2062
 7497W        W23631  12.369  10.650  11.843 -0.0052 -0.0598 -0.1562
 7498W        W23632   7.165  10.349   1.805 -0.2537 -0.1633  0.0054
 7499W        W23633   0.902  17.237  13.291  0.0458 -0.0366 -0.3594
 7500W        W23634  10.422   1.022  13.981 -0.2530 -0.3454 -0.5712
 7501W        W23635   7.557  11.133  11.531  0.1551  0.3459 -0.0602
 7502W        W23636   9.266  15.558  15.085 -0.1426 -0.1922 -0.1522
 7503W        W23637   9.507  14.380   1.297  0.3394  0.2550 -0.0668
 7504W        W23638  14.924  15.228   3.520 -0.0268  0.0673 -0.1053
 7505W        W23639   8.665   3.527   0.465  0.3071  0.1325  0.2108
 7506W        W23640  18.696  10.278  13.140  0.0833 -0.0841 -0.0240
 7507W        W23641   2.713   4.310  13.304 -0.1284  0.1004 -0.1774
 7508W        W23642  17.791   8.847   5.365 -0.2309  0.2257 -0.1452
 7509W        W23643  12.913   5.661  11.525 -0.3619  0.1178  0.2870
 7510W        W23644   4.099   2.020  10.564 -0.0891 -0.1076 -0.2257
 7511W        W23645  12.354  13.542   4.827  0.3870  0.3227  0.0795
 7512W        W23646   8.554   1.742  10.103 -0.0790  0.1467  0.0178
 7513W        W23647   4.220   9.834  10.881  0.2799  0.1362  0.0254
 7514W        W23648   6.540  18.211   2.076 -0.2096 -0.2087  0.0604
 7515W        W23649   4.644  11.268  11.062 -0.0263  0.0828 -0.3714
 7516W        W23650  10.152  18.615   0.433  0.0691 -0.0283  0.0087
 7517W        W23651   2.463  16.810   0.335 -0.0555 -0.1883  0.3876
 7518W        W23652   0.174  16.269  13.329  0.0241 -0.2095 -0.2197
 7519W        W23653   0.962  13.961   1.642 -0.0994 -0.1220 -0.0429
 7520W        W23654  16.409   6.120   4.177  0.1159  0.0958  0.3627
 7521W        W23655   1.133   3.416  13.033  0.1090  0.2163  0.0409
 7522W        W23656  18.767  17.419   3.039  0.0158 -0.0216 -0.0936
 7523W        W23657  14.782   0.705   3.402 -0.1453  0.2930 -0.0525
 7524W        W23658  11.100  17.129   1.415 -0.0797  0.3776 -0.2145
 7525W        W23659  14.705   0.328   1.568  0.0842 -0.0895  0.2144
 7526W        W23660  17.230   3.018   5.264 -0.2862  0.1259  0.1284
 7527W        W23661  12.300  13.530   2.301  0.0678  0.0567  0.1713
 7528W        W23662   8.659  14.495  14.429 -0.0109  0.1266  0.2597
 7529W        W23663   2.799  17.628   0.572  0.1191 -0.1125 -0.2848
 7530W        W23664   1.809  12.181   4.964  0.1585 -0.2999 -0.1864
 7531W        W23665  16.807  14.903   4.675  0.0128  0.0638 -0.3155
 7532W        W23666   9.726  16.908   5.036  0.1598  0.1591  0.4395
 7533W        W23667   0.494   5.557  13.209 -0.0323  0.1908  0.0932
 7534W        W23668  17.537  13.610   1.387 -0.2240 -0.0797  0.0223
 7535W        W23669   0.254   1.054  14.638  0.1759 -0.1568  0.1448
 7536W        W23670  13.408   4.504  11.550  0.1289  0.2320  0.0401
 7537W        W23671   5.350   2.601   0.360  0.1757  0.0107  0.3538
 7538W        W23672   7.791   9.776   4.984  0.1322 -0.0671 -0.1507
 7539W        W23673   2.191   5.276  13.016 -0.1296 -0.0351 -0.1169
 7540W        W23674   6.799   4.515   1.563 -0.0498 -0.6212 -0.3696
 7541W        W23675  12.878  14.460  10.892  0.1965 -0.0383 -0.2136
 7542W        W23676  17.234  10.807  12.026 -0.0233  0.2082 -0.0758
 7543W        W23677  13.094   4.075  12.551 -0.1108  0.0378 -0.4791
 7544W        W23678  12.659  18.807  12.192 -0.1891 -0.1205  0.0301
 7545W        W23679  16.743  13.374   1.480  0.1823 -0.2643 -0.0537
 7546W        W23680   0.482  15.184   1.464 -0.0686 -0.1974  0.2826
 7547W        W23681   6.611   0.045   4.410  0.0028 -0.2061 -0.1054
 7548W        W23682  15.639  17.733  11.789 -0.0394  0.2006 -0.1314
 7549W        W23683   1.029   4.119   2.564  0.1240  0.2164 -0.0328
 7550W        W23684  15.564   2.934  12.672 -0.0682 -0.2423 -0.0612
 7551W        W23685   5.642  12.140   1.079  0.0149  0.2666 -0.1106
 7552W        W23686   9.648   8.436   2.067 -0.0679 -0.1681 -0.2990
 7553W        W23687   1.968  10.666  14.078 -0.2758  0.1082  0.3017
 7554W        W23688  14.021  17.498   2.136 -0.0125 -0.1660  0.2616
 7555W        W23689  16.123  10.508   0.487 -0.2646 -0.1984 -0.2294
 7556W        W23690   9.402   3.983  15.009 -0.3192  0.1657  0.0909
 7557W        W23691   1.169  10.076  10.730  0.0665 -0.0760 -0.1104
 7558W        W23692   7.647   5.508   3.530 -0.1865  0.0109 -0.1230
 7559W        W23693   0.255   9.994  11.089 -0.2864 -0.3955  0.0454
 7560W        W23694  13.858  13.503   0.887 -0.0647 -0.2680  0.1952
 7561W        W23695   0.997   2.590  13.879 -0.2944 -0.1164 -0.0069
 7562W        W23696  11.164   3.825  10.590  0.4107 -0.2138  0.1861
 7563W        W23697  18.819   1.533   5.439 -0.0312 -0.0294 -0.1121
 7564W        W23698   2.421  19.146  12.627 -0.0532 -0.0551  0.0320
 7565W        W23699  13.908   4.764  11.431  0.0640 -0.0947 -0.1474
 7566W        W23700  15.172   8.511  12.946 -0.1463  0.1222 -0.3140
 7567W        W23701   8.699  15.298  11.131  0.0433  0.1949 -0.1622
 7568W        W23702   3.575  14.266   0.227  0.1044  0.1017 -0.0799
 7569W        W23703  12.434   6.637  14.494  0.0859  0.0233  0.0044
 7570W        W23704   2.808  10.204   3.744  0.1862  0.0357 -0.0171
 7571W        W23705  17.060  11.852   1.694 -0.5438  0.1700  0.0846
 7572W        W23706   0.362   6.078   4.666 -0.3635 -0.1120 -0.0618
 7573W        W23707  13.915  11.746  12.707  0.2947 -0.0633  0.1775
 7574W        W23708  15.047   7.743   1.577  0.1883  0.2259 -0.0200
 7575W        W23709   9.127  17.473   2.482  0.1671  0.2146 -0.3328
 7576W        W23710   2.386   4.700   2.740 -0.0041 -0.0184 -0.0166
 7577W        W23711  12.961   7.864  10.773 -0.0388 -0.0375  0.0599
 7578W        W23712   8.608   9.415   4.270 -0.1653 -0.1897 -0.2221
 7579W        W23713   2.933   0.233   5.249  0.0059 -0.2540 -0.3132
 7580W        W23714   0.877   9.690   9.562  0.3901  0.0535 -0.0735
 7581W        W23715   7.597  17.050  12.909  0.3433 -0.3425 -0.2269
 7582W        W23716   7.479  12.117   2.118  0.2989  0.1534  0.2068
 7583W        W23717  17.245   5.432  11.594 -0.0816  0.2679  0.0736
 7584W        W23718   1.711   0.875  11.613 -0.0270 -0.0592  0.0515
 7585W        W23719  18.033   0.381   3.201  0.2235  0.1279 -0.2261
 7586W        W23720  18.590  11.946   1.634  0.2050  0.2933  0.2826
 7587W        W23721   4.167   4.105   1.229  0.1635 -0.1285  0.1215
 7588W        W23722   8.855  11.939   2.195 -0.0461 -0.0189  0.1920
 7589W        W23723   4.196   1.991   5.171 -0.1322 -0.0707  0.3176
 7590W        W23724   5.787  10.277   0.567  0.0217 -0.0136 -0.1067
 7591W        W23725   7.547  12.168   4.424 -0.1381  0.1579  0.1769
 7592W        W23726  12.292  18.056  11.343 -0.0756  0.0207  0.1918
 7593W        W23727  10.673   0.071   4.908  0.0000 -0.2179 -0.0168
 7594W        W23728   1.714  18.927   3.963 -0.0704 -0.0845  0.1943
 7595W        W23729   0.058   0.646  11.836  0.1039  0.2753  0.0426
 7596W        W23730  17.692   5.627   5.518  0.1476  0.3881 -0.1748
 7597W        W23731   2.286  18.836   3.894 -0.0916 -0.0621 -0.1443
 7598W        W23732  11.456   9.868  13.835 -0.0710 -0.2317  0.0537
 7599W        W23733   9.562  10.558  12.836 -0.0818 -0.0589  0.0266
 7600W        W23734   7.149   0.988   4.548 -0.1784 -0.0788 -0.2058
 7601W        W23735  18.753  18.969  13.025  0.0742  0.1401  0.2659
 7602W        W23736   7.488   6.933  14.008  0.0422 -0.0863 -0.0852
 7603W        W23737  16.020   3.024   4.563  0.1228 -0.2647 -0.0290
 7604W        W23738   3.786   5.281   5.317  0.0324 -0.1279  0.2480
 7605W        W23739   3.044   0.176  13.632  0.0448 -0.0668  0.0219
 7606W        W23740  11.178   9.046   3.723  0.1082  0.1548 -0.0589
 7607W        W23741  10.222  11.111  14.878  0.3765 -0.1132 -0.1035
 7608W        W23742   3.058   8.079   0.868 -0.0582 -0.0839  0.0525
 7609W        W23743   7.289   8.676   5.060 -0.3025 -0.0911 -0.2666
 7610W        W23744  17.443  17.297  14.877  0.1479  0.1308 -0.1612
 7611W        W23745   5.264   8.662   0.850 -0.0607 -0.2794  0.4389
 7612W        W23746   0.706   5.849  12.829 -0.0461 -0.3206  0.0181
 7613W        W23747   9.015   7.742   3.929 -0.1235  0.3064  0.2159
 7614W        W23748   1.058  17.845  10.979  0.1523  0.1105 -0.1459
 7615W        W23749   7.247  13.310  15.062 -0.2280 -0.0674 -0.1076
 7616W        W23750  10.537  16.757   2.443  0.2985  0.2531 -0.4225
 7617W        W23751  17.688  10.965  11.800 -0.1322  0.1021 -0.2599
 7618W        W23752   5.678   7.242   1.208 -0.0212  0.1845  0.0224
 7619W        W23753   9.124   5.691   0.709  0.3944 -0.0063  0.1406
 7620W        W23754   6.761  17.475   5.440 -0.1865 -0.0347  0.3622
 7621W        W23755   5.742   5.532  14.756  0.1207 -0.0731  0.1269
 7622W        W23756   5.766  10.220  15.114  0.1104  0.2755 -0.0991
 7623W        W23757  15.564   1.938   3.003 -0.0086 -0.1552  0.0103
 7624W        W23758  10.620   1.600   3.587  0.1162 -0.0566  0.1441
 7625W        W23759   4.515   4.358  11.531 -0.2507 -0.0285 -0.4432
 7626W        W23760   3.560  17.365  14.797  0.3169 -0.1382  0.2187
 7627W        W23761  17.275   1.777   3.898  0.0171 -0.1516 -0.0376
 7628W        W23762   4.814   6.634   1.640 -0.2378 -0.1980 -0.2507
 7629W        W23763   8.810   5.736  13.000 -0.0181  0.1623 -0.0759
 7630W        W23764  17.350   8.681  12.884  0.2015 -0.0602  0.0561
 7631W        W23765   7.962  18.413   2.757 -0.0326  0.2264  0.1191
 7632W        W23766  11.955   2.325  11.675  0.1689  0.1119  0.1466
 7633W        W23767   4.480  18.848   2.127  0.0975 -0.2211  0.0066
 7634W        W23768  17.348  15.064   4.056  0.0606 -0.3552 -0.1592
 7635W        W23769  12.415   7.592  14.459 -0.0345 -0.0556 -0.1468
 7636W        W23770   2.572   6.584   1.354 -0.0806 -0.0799 -0.3689
 7637W        W23771  18.522   2.691   0.159 -0.0254  0.3155  0.0839
 7638W        W23772  19.090   9.870   1.413 -0.2519 -0.1350  0.3090
 7639W        W23773   7.924  16.120   1.112 -0.1315  0.0383 -0.1804
 7640W        W23774   7.802  16.930  10.888 -0.2642 -0.0349 -0.1677
 7641W        W23775   0.711   3.210  13.034  0.0722 -0.0142  0.0234
 7642W        W23776   0.225   8.629  13.865  0.0862 -0.1950  0.3175
 7643W        W23777  14.624   3.330  11.673 -0.1914 -0.1726  0.0289
 7644W        W23778  10.366  13.601   3.000 -0.5362  0.0515 -0.1567
 7645W        W23779   3.453   1.163  13.086  0.2158 -0.3322 -0.2031
 7646W        W23780   1.804   4.290  12.414  0.0163 -0.1295  0.2366
 7647W        W23781  13.661   5.988   0.175  0.0168 -0.1631 -0.0085
 7648W        W23782  16.113   4.014   5.080 -0.0424  0.2343  0.1520
 7649W        W23783  17.426  11.967   9.490  0.0428 -0.2403 -0.0441
 7650W        W23784   9.847   2.193  11.770 -0.0297  0.0319  0.1935
 7651W        W23785   0.238  18.710   1.080 -0.0832 -0.3384  0.0091
 7652W        W23786   9.716   4.427  13.986 -0.1080  0.0333  0.3189
 7653W        W23787   1.150  15.705  11.452  0.1590  0.1764 -0.1127
 7654W        W23788   0.764  15.092  12.480 -0.0331 -0.0297 -0.0963
 7655W        W23789  10.288  14.311  13.124  0.2308 -0.0477 -0.2042
 7656W        W23790   0.199  18.234  10.999 -0.0162 -0.1188  0.3412
 7657W        W23791   6.740  13.586   5.407  0.0744 -0.0380 -0.0597
 7658W        W23792  16.502  11.821  14.523 -0.1822  0.2882 -0.1192
 7659W        W23793  14.256  17.446  10.868  0.2631 -0.0753 -0.0530
 7660W        W23794   5.906  13.616  11.941 -0.1022  0.2826 -0.2922
 7661W        W23795  15.555  11.015  10.107 -0.2428 -0.0567 -0.0474
 7662W        W23796   0.678  18.285  12.607 -0.0482 -0.2311 -0.2404
 7663W        W23797   3.783  15.529  14.188  0.0489  0.1173  0.0858
 7664W        W23798   4.237  17.720  10.279  0.0629  0.0812 -0.1650
 7665W        W23799  18.361  12.578  12.410  0.0060 -0.0154 -0.2553
 7666W        W23800   7.095   3.175   2.419 -0.2126  0.1135 -0.1667
 7667W        W23801  11.039  15.966  10.974 -0.1948 -0.1354  0.0206
 7668W        W23802  16.652  10.952  14.457  0.1284 -0.1780  0.1296
 7669W        W23803  10.445   4.136  13.406 -0.0459 -0.0043 -0.1001
 7670W        W23804   5.150  15.209  14.482  0.0518 -0.1505 -0.0760
 7671W        W23805   6.392   7.713   3.069 -0.2219 -0.0253 -0.1765
 7672W        W23806  16.635  15.582  12.313 -0.4564 -0.4479 -0.0164
 7673W        W23807   2.578   0.476   4.864  0.0883 -0.0073  0.0849
 7674W        W23808   4.999   9.606   2.680 -0.1674  0.0047 -0.3958
 7675W        W23809   9.462  17.448  10.678  0.0783 -0.1743  0.3319
 7676W        W23810   6.549   0.376  12.725 -0.0717  0.0973  0.4868
 7677W        W23811  15.851   6.573   4.742 -0.0860 -0.1677 -0.3263
 7678W        W23812  19.090  17.227   1.381 -0.1259 -0.1187  0.1197
 7679W        W23813   1.151  17.084   3.877 -0.0545  0.1422  0.0573
 7680W        W23814  14.288   3.747   1.200 -0.0462 -0.1662  0.0110
 7681W        W23815  11.470   7.096  12.825  0.2078  0.0668 -0.0694
 7682W        W23816  14.064  17.777   3.594  0.1812 -0.3467  0.0203
 7683W        W23817   6.372   7.416   2.412  0.2028 -0.0992  0.0857
 7684W        W23818  12.402   7.024   4.065 -0.2405 -0.1945  0.1396
 7685W        W23819   6.735  13.458   1.650 -0.1581  0.2664 -0.2316
 7686W        W23820  11.222  11.166   5.765  0.1893  0.1382 -0.0512
 7687W        W23821  18.135   6.352  14.648  0.1144  0.0169  0.1747
 7688W        W23822   0.670  14.194   0.730  0.0369 -0.1502  0.2169
 7689W        W23823   8.053  11.370  12.818  0.2245 -0.1666  0.2341
 7690W        W23824   3.166   4.069   1.088  0.2720  0.0389  0.0735
 7691W        W23825  11.084  16.940  12.016 -0.2572  0.2911 -0.3375
 7692W        W23826   5.070  11.004  14.262  0.5020 -0.4021 -0.0009
 7693W        W23827  12.824  12.068   3.785 -0.2686  0.2182 -0.0570
 7694W        W23828  15.948  17.553  12.901 -0.1566  0.2730 -0.0481
 7695W        W23829  17.357  11.525   1.361  0.0038 -0.2539  0.1134
 7696W        W23830   2.835   5.420  11.287 -0.1094  0.1816  0.0271
 7697W        W23831  15.001   4.982   5.133  0.2364 -0.0953 -0.0162
 7698W        W23832  10.426  13.171   2.171 -0.1642  0.1022  0.3459
 7699W        W23833  14.839   0.301   3.875 -0.0282 -0.2452 -0.4639
 7700W        W23834   3.723  18.405   4.701 -0.0868 -0.0493  0.4019
 7701W        W23835  12.450   4.533  12.258  0.3161  0.1976 -0.1084
 7702W        W23836  12.252  16.640   2.786 -0.0533  0.0783  0.1116
 7703W        W23837  11.243   3.644  10.105  0.1738  0.1238 -0.0780
 7704W        W23838  12.890  13.948  12.598 -0.2559 -0.0947  0.0380
 7705W        W23839  10.943  16.133  13.172 -0.1164  0.1776  0.1110
 7706W        W23840  13.604   4.234   0.626 -0.4517  0.1147 -0.0788
 7707W        W23841   5.384   6.038   4.000  0.0060  0.3438  0.2556
 7708W        W23842   2.502  12.082   2.988  0.2824  0.0522  0.0646
 7709W        W23843  19.007   8.635   4.005  0.2714 -0.2120 -0.2970
 7710W        W23844  10.002   1.525   1.488  0.1767  0.1079  0.0882
 7711W        W23845   5.800   2.991   1.497  0.3297 -0.3337  0.0967
 7712W        W23846  16.314  13.584   0.129  0.0429 -0.2398 -0.1045
 7713W        W23847   7.855   6.566  14.104 -0.0113 -0.0838 -0.0832
 7714W        W23848   7.672  17.040   1.328 -0.1514  0.3199  0.3605
 7715W        W23849  19.133  11.768   4.859 -0.0446  0.1487 -0.1734
 7716W        W23850   0.117   8.360   3.688 -0.2292  0.1211 -0.1445
 7717W        W23851   4.836  13.166   4.002 -0.0538  0.0131  0.0631
 7718W        W23852   7.336   5.199  12.317 -0.0858  0.2638  0.0392
 7719W        W23853   4.843   4.881   9.503  0.2452  0.2236 -0.0275
 7720W        W23854   3.468   1.196  14.600  0.0919 -0.2214 -0.1771
 7721W        W23855  12.960  10.413   3.856 -0.2040  0.2911 -0.0687
 7722W        W23856  13.221  12.404   4.611  0.0832  0.2474  0.0026
 7723W        W23857   0.413   5.418   1.606 -0.0901 -0.1846  0.0496
 7724W        W23858   6.536   3.460  14.432 -0.0593 -0.2135 -0.0935
 7725W        W23859  18.476  13.201   3.947  0.2963 -0.0308 -0.0874
 7726W        W23860   9.797  10.414   3.129 -0.0213  0.4098  0.0699
 7727W        W23861   4.806   9.014  10.954 -0.2062  0.2169  0.3400
 7728W        W23862  11.096  18.171  12.148 -0.1730 -0.1191  0.0038
 7729W        W23863  13.998   7.476  12.284  0.2127  0.2117  0.0330
 7730W        W23864  10.326  12.489   1.849 -0.0988  0.1916 -0.2192
 7731W        W23865   3.649   9.731   3.219  0.0215 -0.0377 -0.1921
 7732W        W23866  13.108  18.890   0.309 -0.1583  0.0270 -0.0445
 7733W        W23867   2.777   9.375  10.267  0.1130 -0.3381 -0.0141
 7734W        W23868   9.920   0.037  10.231  0.0936 -0.0660 -0.0279
 7735W        W23869   6.437   1.681   2.498 -0.1877  0.0179 -0.0015
 7736W        W23870  16.459  19.143   5.726 -0.2971 -0.0595 -0.2872
 7737W        W23871   7.650   0.256   0.154 -0.1541 -0.1034 -0.0589
 7738W        W23872   6.474   4.022   2.237 -0.0543 -0.3717  0.2084
 7739W        W23873   1.472   2.637  13.472 -0.0875 -0.0487 -0.0182
 7740W        W23874   2.357  16.827   4.692 -0.0396  0.5872  0.2680
 7741W        W23875   1.118   4.258   3.050 -0.1415  0.1633 -0.1010
 7742W        W23876  13.023   9.079  14.786  0.0365 -0.1477 -0.0691
 7743W        W23877  14.690  10.410   4.257 -0.3424 -0.1355  0.1922
 7744W        W23878   4.875  10.664  13.727 -0.2252 -0.0762  0.2367
 7745W        W23879   0.832   7.577  12.519  0.0822 -0.1159  0.0106
 7746W        W23880  18.438  13.836  10.689  0.0206 -0.1661 -0.1098
 7747W        W23881  12.443   8.510   1.564  0.1239 -0.0174  0.0408
 7748W        W23882  14.449  15.479  10.801 -0.2999 -0.2421 -0.0717
 7749W        W23883  11.230   0.052   1.946 -0.1009  0.2368  0.4536
 7750W        W23884  11.898   2.389   3.844  0.0021  0.0077 -0.0104
 7751W        W23885   1.337   9.971   1.052 -0.4785 -0.0666  0.0779
 7752W        W23886  18.043   0.010  10.230 -0.0722 -0.0358 -0.1237
 7753W        W23887  10.351  16.990  14.919 -0.5511 -0.0815 -0.3496
 7754W        W23888   6.086  10.162   0.999 -0.3319 -0.1504 -0.0289
 7755W        W23889  14.193   5.540  12.448  0.1202 -0.0315  0.0830
 7756W        W23890  17.025   3.768   2.408  0.1030  0.4082 -0.0569
 7757W        W23891   5.727  11.399  12.543 -0.1519 -0.0555  0.4427
 7758W        W23892   3.860   7.719  12.834  0.1241 -0.0279 -0.3541
 7759W        W23893   4.401   0.261   4.016  0.2984  0.3563 -0.0758
 7760W        W23894   4.036   1.452   0.618  0.3059  0.2353 -0.0339
 7761W        W23895  12.576  15.126  14.096  0.0932 -0.0383 -0.0469
 7762W        W23896  14.670   2.016  10.879 -0.1365 -0.2869 -0.3117
 7763W        W23897   3.016  16.146   3.385  0.0381  0.0451  0.1941
 7764W        W23898  13.164  16.423   1.114 -0.1901  0.1772 -0.0166
 7765W        W23899   5.606   6.397   1.233 -0.0106  0.0587  0.0804
 7766W        W23900   7.630   5.140  13.473  0.5016 -0.0664 -0.1257
 7767W        W23901  17.200  13.116   5.487 -0.0537 -0.0742  0.1120
 7768W        W23902   0.040  14.892  10.591  0.2475 -0.1579 -0.0695
 7769W        W23903  12.084  15.406   4.809  0.0042  0.1833  0.1305
 7770W        W23904   6.300   8.252   3.461  0.1519  0.1338  0.2631
 7771W        W23905   0.365   2.460   1.860  0.1277 -0.3247  0.2079
 7772W        W23906   4.451  11.313   4.792 -0.3665 -0.3821  0.2920
 7773W        W23907  13.769  16.909  15.018  0.0791  0.0772  0.1212
 7774W        W23908   7.817  11.469   1.622  0.1458 -0.1770  0.0092
 7775W        W23909   1.757   1.816  13.877  0.1112  0.3948 -0.1995
 7776W        W23910   2.647  11.614  11.206  0.1397 -0.0589  0.1418
 7777W        W23911  13.288  12.454   5.474  0.1821  0.0330  0.0901
 7778W        W23912  11.411  17.426   3.402 -0.1247  0.0629 -0.0834
 7779W        W23913   4.070   2.295   3.963  0.1525 -0.3294 -0.2929
 7780W        W23914  18.034   6.851  10.793  0.2004  0.1228 -0.0595
 7781W        W23915  18.081  13.764  11.627 -0.0298  0.1476 -0.1614
 7782W        W23916   7.384  16.288  10.642  0.3193  0.1859 -0.3687
 7783W        W23917   1.979   2.949  10.578  0.3561  0.0553  0.0424
 7784W        W23918   2.237   0.571  12.956 -0.3073  0.1186  0.1551
 7785W        W23919  13.299   2.331  11.130 -0.0968  0.0226  0.0874
 7786W        W23920   3.917   5.166   2.845  0.0609  0.1306 -0.3258
 7787W        W23921  13.715  12.522   1.432 -0.0550 -0.0324 -0.1776
 7788W        W23922  17.990  16.514   5.745  0.2253  0.2243 -0.2622
 7789W        W23923  15.582   3.058  13.991 -0.1519  0.0378  0.2982
 7790W        W23924  13.401   4.104   3.538 -0.1303  0.0574 -0.2255
 7791W        W23925   2.733   0.497   0.227  0.0837  0.1620 -0.1614
 7792W        W23926   3.233   3.542   4.620 -0.0622 -0.2346 -0.2909
 7793W        W23927   3.592   4.531   2.226  0.3537 -0.1077  0.1821
 7794W        W23928  18.068  18.741   1.878  0.2414  0.3658  0.2588
 7795W        W23929   6.389   6.556   2.363  0.2708 -0.2342  0.0088
 7796W        W23930   0.091   7.054   1.708 -0.1610 -0.0257  0.1038
 7797W        W23931  12.847   0.630  10.748 -0.0458 -0.2762  0.0947
 7798W        W23932   7.143  18.292   3.890 -0.0152 -0.0405  0.1425
 7799W        W23933   8.699  10.269   6.010  0.1779 -0.0275 -0.1167
 7800W        W23934   0.239   0.821  15.137 -0.0018 -0.0850  0.1848
 7801W        W23935  11.809   1.996   5.226  0.1451 -0.0603  0.2269
 7802W        W23936   4.723  12.971  13.857 -0.2752  0.2377  0.0742
 7803W        W23937   8.021   5.804   1.952  0.0222  0.1350  0.1522
 7804W        W23938   7.760   9.259  12.636 -0.2637  0.1294  0.4730
 7805W        W23939  10.602   5.929  13.509 -0.0662 -0.1265 -0.1705
 7806W        W23940   3.186   5.088   3.551 -0.0703  0.2434 -0.1078
 7807W        W23941  17.732   0.484   2.746  0.2722 -0.2999  0.2539
 7808W        W23942  12.577  18.161   0.757  0.0592  0.2020  0.1902
 7809W        W23943  15.408   2.741  12.155 -0.1800  0.1631 -0.0378
 7810W        W23944  13.874  12.378  12.050  0.0184 -0.1967  0.0216
 7811W        W23945   0.036   9.440   0.256 -0.2375  0.4906 -0.1878
 7812W        W23946   6.556  12.740   0.082  0.1859  0.0484 -0.1940
 7813W        W23947  14.776  13.161  12.254 -0.0560 -0.1741  0.2688
 7814W        W23948   9.853   4.365   5.936  0.0945 -0.0806 -0.0372
 7815W        W23949   7.627   9.505  10.437  0.3071  0.2246 -0.0273
 7816W        W23950   9.270  14.160  11.181  0.1576  0.1635  0.4144
 7817W        W23951   9.328   9.501  11.194 -0.2700 -0.1263 -0.1435
 7818W        W23952   6.740   6.864   9.722 -0.0315 -0.3805  0.1730
 7819W        W23953  11.915  12.512   2.505  0.2326  0.0162 -0.2820
 7820W        W23954  12.537   4.797   4.274 -0.1348  0.0204 -0.2247
 7821W        W23955  17.721   9.252   3.954  0.0717  0.0397 -0.2673
 7822W        W23956   8.126  18.795   5.636 -0.2935  0.0154 -0.1090
 7823W        W23957  10.715   7.925   3.897  0.0013 -0.1767  0.3176
 7824W        W23958   9.559   8.393  14.276  0.0676  0.2203 -0.0667
 7825W        W23959   5.996  10.838  11.592 -0.2710  0.0468 -0.1419
 7826W        W23960   1.335   1.418   2.770 -0.0620  0.0917 -0.2525
 7827W        W23961  13.848   0.621   4.423  0.1285  0.0719 -0.3186
 7828W        W23962  12.056   9.978   3.206  0.0270  0.1255  0.0595
 7829W        W23963   5.221   0.094  11.327  0.0408 -0.1609  0.0806
 7830W        W23964  19.025  10.299  11.317  0.3794  0.1061 -0.3777
 7831W        W23965  10.126   3.882   1.270  0.3310  0.2982 -0.2435
 7832W        W23966  18.968   0.862   0.174 -0.2791 -0.2366  0.0801
 7833W        W23967  10.719  18.847   3.495  0.0076  0.1794  0.1169
 7834W        W23968  15.967   8.118   2.673 -0.2665  0.1386 -0.4835
 7835W        W23969   4.145   2.538   4.848 -0.0673  0.0160 -0.0417
 7836W        W23970   3.911   0.084  10.861 -0.3592  0.1426  0.2144
 7837W        W23971   6.134  16.512   3.947  0.0633 -0.0198  0.0261
 7838W        W23972   0.076  17.426   0.355  0.0497 -0.3622 -0.1447
 7839W        W23973   8.549  16.594  10.924  0.3807  0.2430 -0.0786
 7840W        W23974  14.047  10.455  14.051 -0.2060  0.2032  0.2627
 7841W        W23975  11.657  17.287  12.862  0.6903 -0.1406  0.4342
 7842W        W23976  12.782   2.417  12.696 -0.0734 -0.1004 -0.0216
 7843W        W23977   7.325  14.370   2.693 -0.0274  0.0850  0.2618
 7844W        W23978   1.165  18.924   4.754  0.0676  0.3640 -0.0905
 7845W        W23979   6.915  11.278   2.132  0.0733  0.0138 -0.0595
 7846W        W23980  15.530   7.857   0.884 -0.1654 -0.0396 -0.1549
 7847W        W23981   5.450  17.142  11.610 -0.2956 -0.0638  0.3967
 7848W        W23982  12.424  15.427   1.463  0.0254  0.2629 -0.4371
 7849W        W23983  15.290   2.695  11.629 -0.0652 -0.1373  0.1401
 7850W        W23984  13.969  16.770  13.830  0.2544 -0.1745 -0.0959
 7851W        W23985  17.013   9.474  11.835 -0.1666 -0.1393  0.0314
 7852W        W23986  17.324   1.191  11.172 -0.1551 -0.0332 -0.0192
 7853W        W23987   6.314  11.854   4.653  0.2353 -0.2533  0.1793
 7854W        W23988   6.936   5.268   3.907  0.1009  0.1308 -0.2174
 7855W        W23989   0.785   9.742   2.656  0.0108 -0.0157 -0.0680
 7856W        W23990   1.439   3.070   4.342  0.0127 -0.1194  0.1359
 7857W        W23991   9.438   0.091   4.315 -0.3815 -0.0570 -0.0775
 7858W        W23992   6.289  14.433   2.941 -0.0866 -0.2167 -0.0332
 7859W        W23993   5.235  12.456  12.327  0.1431  0.1914 -0.0093
 7860W        W23994  17.683  10.441   4.387  0.1624 -0.1779 -0.1853
 7861W        W23995   1.677  14.728  11.480  0.0636 -0.2357  0.4418
 7862W        W23996  13.396   0.571  13.839 -0.2911 -0.0099 -0.2308
 7863W        W23997   7.474  10.149   4.481  0.1351  0.3593 -0.1734
 7864W        W23998  16.753   4.313   9.622 -0.3034 -0.0787 -0.0578
 7865W        W23999   5.723   9.766   3.284  0.0960 -0.0526  0.0108
 7866W        W24000  11.741  11.728  12.394  0.0998 -0.0758 -0.0821
 7867W        W24001   3.294   5.326   2.161 -0.0725  0.0415 -0.1142
 7868W        W24002  15.939   1.920  15.084 -0.2903  0.0433  0.1782
 7869W        W24003   6.841  13.697  14.804  0.3232  0.2433  0.0442
 7870W        W24004  18.504   4.570  13.155  0.4669  0.1228  0.3112
 7871W        W24005   0.719   1.162   2.962  0.2068 -0.1247 -0.1052
 7872W        W24006   4.449  17.001  10.824 -0.3989  0.0877  0.1697
 7873W        W24007   9.762  17.748   5.032  0.1176 -0.0227 -0.1787
 7874W        W24008  15.049  13.103   9.923  0.4075  0.0098  0.2505
 7875W        W24009   7.718   5.139   1.476 -0.3821  0.0241 -0.3087
 7876W        W24010   0.167  11.793  13.309 -0.1085 -0.1730  0.1307
 7877W        W24011  17.647   4.500   2.160 -0.1653 -0.1103  0.2556
 7878W        W24012  16.847   4.872   3.967 -0.2526 -0.1835  0.2321
 7879W        W24013   7.581  11.881   3.722  0.3137 -0.0101 -0.2953
 7880W        W24014   9.897   7.030  13.081 -0.0179 -0.0854 -0.0404
 7881W        W24015   9.481  17.462   3.801 -0.0553  0.1212  0.3731
 7882W        W24016   8.022  16.438  12.458  0.0138  0.1492 -0.4373
 7883W        W24017   2.747  17.559  14.303 -0.0216 -0.0532  0.3594
 7884W        W24018  15.074   1.439  12.416  0.1170  0.1155 -0.1544
 7885W        W24019   0.856   5.799   4.602  0.2499 -0.1148 -0.1200
 7886W        W24020  14.412  12.717  11.349  0.0534  0.3064  0.0515
 7887W        W24021   8.839  13.534   4.012 -0.0912  0.0721 -0.0858
 7888W        W24022  10.372   0.602   1.184 -0.0646 -0.1015 -0.1142
 7889W        W24023   1.838   8.602   4.827  0.4538 -0.0265  0.0996
 7890W        W24024  12.681  14.560   0.557  0.2356  0.0070  0.0994
 7891W        W24025  11.747   2.498  14.488  0.3784  0.2368 -0.0004
 7892W        W24026   9.969  16.333  14.783 -0.4234 -0.0186 -0.1553
 7893W        W24027  17.910   4.634   9.530  0.4082  0.0601 -0.1529
 7894W        W24028  14.569  13.942  11.205  0.0212  0.0491  0.0810
 7895W        W24029  18.199  12.157   2.857 -0.1799  0.0830 -0.0636
 7896W        W24030  14.965   4.198   4.966  0.0716 -0.0124  0.0861
 7897W        W24031  11.191   5.219  13.352  0.0019  0.0565 -0.2802
 7898W        W24032   2.007  11.136   3.079 -0.0393  0.3906  0.3303
 7899W        W24033   1.261   6.986   2.707 -0.2278  0.0859 -0.1456
 7900W        W24034  12.499  13.003  13.784 -0.1933  0.0091 -0.0508
 7901W        W24035  18.000   2.268  13.710  0.0899  0.2353 -0.1858
 7902W        W24036   7.034   7.721  13.600  0.1437 -0.0631  0.3022
 7903W        W24037   0.433   2.390   0.152 -0.1425  0.1242  0.0505
 7904W        W24038   6.968   9.397   9.895  0.1055  0.0271  0.0871
 7905W        W24039   0.827   0.854   3.440  0.2340 -0.1144 -0.0693
 7906W        W24040   6.765   6.969  11.491  0.1381 -0.3919  0.0160
 7907W        W24041   2.071   8.532   0.396  0.4281  0.2409  0.0314
 7908W        W24042   5.898  19.059  11.542 -0.0076 -0.3443 -0.0620
 7909W        W24043   3.314   8.202   3.888  0.0521 -0.0856 -0.4304
 7910W        W24044   8.205   4.169   0.433 -0.3597 -0.2437  0.2928
 7911W        W24045  10.132   9.673  13.884 -0.1208 -0.4418  0.1050
 7912W        W24046  11.996   7.051   1.746  0.0776 -0.3041 -0.1254
 7913W        W24047   6.935  10.052   5.235  0.0964  0.1486 -0.1279
 7914W        W24048  16.270   1.667   4.150  0.1772  0.5237  0.1479
 7915W        W24049   9.274  10.673   2.373 -0.0982 -0.0842 -0.0493
 7916W        W24050   7.664   6.416   4.887 -0.1322  0.0548  0.2527
 7917W        W24051  18.247  14.376   3.438 -0.1175  0.3277  0.3578
 7918W        W24052  10.897   3.083   3.856 -0.1710  0.0833  0.3128
 7919W        W24053  14.281   2.055  13.954  0.2599 -0.0215  0.0848
 7920W        W24054   0.575   7.357  10.213  0.1784  0.0853  0.3542
 7921W        W24055  11.367  17.319   0.621 -0.2184 -0.2021  0.2177
 7922W        W24056   7.995   3.280  10.688 -0.2764 -0.2155 -0.1636
 7923W        W24057   3.561   4.192  12.658 -0.2450  0.0223  0.1766
 7924W        W24058  14.861   1.532   3.612  0.0292  0.0956  0.2012
 7925W        W24059   4.070  12.159   1.562 -0.5286  0.1351 -0.0231
 7926W        W24060   6.033   8.443   3.863  0.0503  0.0268  0.2652
 7927W        W24061   2.195  18.680  11.322 -0.1598 -0.2483 -0.0696
 7928W        W24062   4.152   7.700  10.560  0.1564 -0.0885 -0.5005
 7929W        W24063   2.606  10.290   3.221 -0.2775 -0.0306  0.0086
 7930W        W24064   2.421   3.710  14.513 -0.0742 -0.1511 -0.1920
 7931W        W24065   1.621  15.814  11.276  0.0434  0.2091 -0.2884
 7932W        W24066   4.994   4.383   0.298  0.3080  0.1775 -0.0189
 7933W        W24067   4.225  15.008   0.094 -0.1364 -0.1369  0.1128
 7934W        W24068   7.558  12.612  12.311  0.0004 -0.0179 -0.1498
 7935W        W24069  18.342   2.620  13.904  0.1804  0.0081  0.1854
 7936W        W24070  17.676   3.688  10.488  0.0570  0.1549 -0.1463
 7937W        W24071  15.896   4.229   3.140 -0.1026  0.2428 -0.2756
 7938W        W24072  12.510   3.735   3.271 -0.1285 -0.3659 -0.3015
 7939W        W24073   0.653   1.974   3.341 -0.0016  0.1441  0.2191
 7940W        W24074  10.195   8.293   4.444  0.1898  0.2142  0.2107
 7941W        W24075   3.113   4.201   3.363  0.0472  0.0885  0.3212
 7942W        W24076   2.622  11.535  11.748  0.0505  0.1272  0.2305
 7943W        W24077   4.977  14.396   4.269 -0.0135 -0.0838 -0.0634
 7944W        W24078  17.067  13.414   3.605 -0.3231 -0.2869 -0.0236
 7945W        W24079   7.440   5.574   5.478  0.2663  0.1339  0.0223
 7946W        W24080   2.097  12.186   2.627 -0.0228  0.2885 -0.0479
 7947W        W24081  13.163   5.499  11.059  0.3896 -0.1848 -0.0793
 7948W        W24082  10.035  15.597  14.831  0.0732 -0.1177 -0.2566
 7949W        W24083   0.030  16.258   3.579  0.1596  0.1513 -0.0498
 7950W        W24084  15.495   2.981   0.716 -0.0397  0.0227 -0.2155
 7951W        W24085   8.386  13.167  12.267 -0.1318 -0.1244  0.1407
 7952W        W24086  13.263   4.888   0.791  0.3013  0.1442 -0.1369
 7953W        W24087   7.218   0.254  14.991 -0.2981 -0.1565  0.0579
 7954W        W24088  13.429  14.399  13.720 -0.1494 -0.0377 -0.0396
 7955W        W24089   5.850  16.786  12.931 -0.1047  0.2609 -0.0377
 7956W        W24090   2.384   3.942   2.897  0.0211  0.0759  0.3318
 7957W        W24091  13.788   6.500  13.003 -0.1001  0.0151 -0.0221
 7958W        W24092  18.629   7.231   0.963 -0.0492  0.4275  0.2742
 7959W        W24093   1.528   2.414  11.684 -0.3482  0.1030  0.5098
 7960W        W24094   4.405  10.403  13.374  0.5317  0.1132 -0.1028
 7961W        W24095  12.096   7.199   1.254 -0.2124  0.0930  0.0141
 7962W        W24096  11.808  18.674  11.554 -0.0025 -0.2507 -0.0323
 7963W        W24097   7.156  18.993  13.200  0.2208  0.1734  0.0512
 7964W        W24098   2.666  10.742   3.677 -0.0828  0.1207  0.1547
 7965W        W24099   8.982   7.767  10.906  0.0671  0.2579 -0.0002
 7966W        W24100  11.510   9.250  12.201 -0.4208 -0.0787 -0.4048
 7967W        W24101  17.443  13.347   3.251  0.2008 -0.1573  0.3159
 7968W        W24102  15.177   3.115  14.380  0.0531  0.0906  0.0703
 7969W        W24103   3.852   6.389   9.142  0.0938  0.0246  0.0281
 7970W        W24104  10.147  12.197   5.123  0.1452 -0.2545 -0.0515
 7971W        W24105   2.986   7.181  12.914  0.1900 -0.5080  0.1256
 7972W        W24106   5.460   2.962   5.428  0.2054 -0.0381 -0.2159
 7973W        W24107  15.664  17.087   0.953 -0.3950 -0.2496  0.0046
 7974W        W24108   8.912  12.056   0.330  0.2444  0.1147  0.2429
 7975W        W24109  17.658  14.209  10.682 -0.0522 -0.3550  0.2576
 7976W        W24110  17.248   5.718  14.107 -0.1147 -0.0996 -0.0751
 7977W        W24111  12.084   2.362  11.192  0.0274 -0.0425 -0.1625
 7978W        W24112   3.631   7.343   2.439 -0.1743  0.1656  0.2139
 7979W        W24113   1.131   6.857  12.228  0.0457 -0.3278  0.1155
 7980W        W24114  18.322  10.519  12.292 -0.1112  0.1454  0.1335
 7981W        W24115  10.728   4.807  11.702  0.1646 -0.0950 -0.1957
 7982W        W24116   7.166   5.636   3.592  0.2197  0.1272  0.1687
 7983W        W24117  13.691   9.688  14.290  0.2006 -0.0928  0.2822
 7984W        W24118   2.743  18.512   2.762 -0.1625 -0.1733  0.0118
 7985W        W24119  14.447   8.391   0.857  0.2115  0.1306  0.1393
 7986W        W24120   6.422   7.030   4.712 -0.1048  0.2942  0.4230
 7987W        W24121  16.838   6.761  13.200 -0.0283  0.1354  0.3777
 7988W        W24122  10.637  10.093  13.691 -0.1173 -0.0738  0.0353
 7989W        W24123  11.582  19.141   3.510  0.1410 -0.0517 -0.0577
 7990W        W24124   8.360   3.752  12.561 -0.1359  0.1076 -0.0222
 7991W        W24125   5.561   1.163   2.842 -0.2702 -0.1325  0.1873
 7992W        W24126  16.959  11.855   4.825  0.0485  0.1213 -0.2810
 7993W        W24127  15.025  18.803   2.370  0.4241  0.0968  0.0112
 7994W        W24128   3.986   2.506  10.519  0.2708  0.0717  0.1070
 7995W        W24129   4.596   4.235  14.370 -0.0373  0.0320  0.3020
 7996W        W24130  10.059   8.362  14.092  0.0265 -0.1140  0.0538
 7997W        W24131  10.469  11.268   2.692 -0.1835  0.1974  0.2914
 7998W        W24132   7.315   4.091  14.844 -0.4122  0.0766 -0.1538
 7999W        W24133  13.002  12.701  12.469  0.0945  0.1822 -0.3719
 8000W        W24134   0.970  14.373   4.306 -0.0452 -0.1285 -0.0248
 8001W        W24135   3.244   4.777   0.317 -0.3037  0.2945  0.1847
 8002W        W24136   0.786   1.337   4.475  0.2990 -0.2675 -0.0926
 8003W        W24137   7.687  15.089   6.020  0.0492  0.1084  0.2327
 8004W        W24138  15.285  18.974  12.227 -0.4656 -0.3433 -0.3850
 8005W        W24139   9.231   5.255   1.741  0.0890  0.1721  0.0500
 8006W        W24140  11.299   5.846  14.834  0.0526 -0.3205 -0.0527
 8007W        W24141   5.128   0.695  13.216 -0.1846 -0.2092  0.1003
 8008W        W24142  10.984   4.015  15.169 -0.2255  0.2551  0.0823
 8009W        W24143  16.128  11.796  10.379 -0.1595 -0.0022 -0.1311
 8010W        W24144   0.971   1.878  14.150 -0.2359 -0.1092  0.1197
 8011W        W24145  12.216   1.208   1.822 -0.3261  0.2874  0.0708
 8012W        W24146  15.378   9.587  13.552  0.0233  0.0686 -0.0773
 8013W        W24147  18.967   7.574  11.646  0.1155  0.1962 -0.0615
 8014W        W24148   2.082   4.323   3.582  0.2106  0.5502 -0.0520
 8015W        W24149  12.906   9.830  12.067 -0.1015  0.0306  0.2223
 8016W        W24150   8.146   6.917   0.566 -0.2191  0.0987 -0.1122
 8017W        W24151   0.467   1.640   4.681  0.3138 -0.2929 -0.3084
 8018W        W24152   1.866   4.962   0.057 -0.3357  0.1403  0.3512
 8019W        W24153   8.949   8.580  12.880 -0.1525  0.0496 -0.3586
 8020W        W24154  13.728  18.672  12.003  0.1042  0.0173 -0.1349
 8021W        W24155   5.483   1.006  14.903 -0.2390 -0.2021  0.0720
 8022W        W24156  11.752   7.499   1.590 -0.1709 -0.3331 -0.0649
 8023W        W24157  14.926   4.027  12.070  0.1291 -0.0290 -0.1551
 8024W        W24158  17.155   4.181  12.927  0.1025 -0.1016 -0.2382
 8025W        W24159   0.143  15.308   0.888 -0.3635  0.1678  0.0182
 8026W        W24160   6.073   5.652  12.164 -0.1586  0.4160 -0.1003
 8027W        W24161   8.501  15.269  13.399  0.3455 -0.0586  0.1503
 8028W        W24162   8.656  12.160   5.820  0.1350 -0.0702 -0.0477
 8029W        W24163   9.735   6.809   0.563 -0.1126  0.2116 -0.0921
 8030W        W24164   8.172   8.184  11.338 -0.1996 -0.3874 -0.2378
 8031W        W24165   6.558   2.170   5.208 -0.0664  0.1426 -0.1720
 8032W        W24166   8.419  12.039   0.509 -0.1434  0.4042 -0.1135
 8033W        W24167   0.562  16.079  11.952 -0.2195  0.1419 -0.2267
 8034W        W24168   1.932  11.318   1.852  0.0568  0.0692  0.0992
 8035W        W24169   3.450  11.421   0.678 -0.2870  0.1646 -0.2951
 8036W        W24170  11.194   7.663  14.002 -0.0977 -0.1191 -0.0331
 8037W        W24171   7.038  10.706  13.604  0.1781  0.0784 -0.1428
 8038W        W24172   6.911  17.669  13.357  0.0683  0.2266 -0.4650
 8039W        W24173   4.500  15.648   3.676 -0.4386  0.1401 -0.0488
 8040W        W24174   5.545   7.166   1.754 -0.1589  0.0385  0.2462
 8041W        W24175   7.201   2.192  13.570  0.0066  0.0138  0.0474
 8042W        W24176   2.095  11.399  11.003  0.0482  0.0854  0.1301
 8043W        W24177  10.721  11.098   2.280  0.2646  0.0406 -0.0480
 8044W        W24178  17.992   7.788   1.514 -0.2722 -0.5492 -0.1081
 8045W        W24179   1.526  16.208   1.118  0.1106  0.0687 -0.4478
 8046W        W24180   7.816  10.385  11.943 -0.2558  0.1266  0.2675
 8047W        W24181   1.779   3.365  11.815 -0.0745  0.1592 -0.2062
 8048W        W24182  11.983  11.631   1.832  0.3214  0.1259 -0.0826
 8049W        W24183   2.662  13.631  11.394  0.0956 -0.1069  0.1772
 8050W        W24184   6.418  10.964   1.105  0.0238  0.2141  0.3232
 8051W        W24185   1.934  11.518   0.700  0.0910  0.0224 -0.3164
 8052W        W24186  15.970   7.362   4.069 -0.1000 -0.0231 -0.2829
 8053W        W24187   6.661  10.473   4.893 -0.0065 -0.1253 -0.0477
 8054W        W24188  16.410   0.734  11.182 -0.1409 -0.0165 -0.0664
 8055W        W24189   0.678  13.525   1.456 -0.0411 -0.3817  0.0606
 8056W        W24190   4.578   0.416   1.191  0.1790 -0.1797 -0.1387
 8057W        W24191   4.508  11.546  12.359 -0.3608  0.1414 -0.4069
 8058W        W24192  15.567  12.814   0.992 -0.0087  0.2993 -0.0072
 8059W        W24193   4.755  14.668   4.890  0.1482 -0.1601  0.0425
 8060W        W24194   7.945   6.790   1.627 -0.3179 -0.1874  0.2082
 8061W        W24195  14.675  18.165   2.637  0.0428 -0.2104  0.0183
 8062W        W24196   7.658  18.630  12.201  0.1480 -0.2711  0.0464
 8063W        W24197   0.529  12.214  10.045 -0.0777 -0.3561  0.2258
 8064W        W24198  15.429  11.603  12.825 -0.2211  0.0900  0.0934
 8065W        W24199   0.848   3.336   2.172 -0.0244  0.1861  0.0081
 8066W        W24200   0.196  11.477  14.117  0.2156 -0.1483 -0.0010
 8067W        W24201   5.348   1.793  13.784 -0.0800  0.0698 -0.0062
 8068W        W24202  17.246  17.261   4.248  0.3304 -0.0266 -0.4903
 8069W        W24203   0.122  12.437  11.609 -0.1750 -0.1186  0.0250
 8070W        W24204  15.485   7.834   0.001  0.2939 -0.1476 -0.1092
 8071W        W24205   8.694   1.325  14.933  0.2473 -0.0469  0.0344
 8072W        W24206   2.859  12.411  11.906  0.1651 -0.0346  0.2820
 8073W        W24207  14.325   8.647   2.381 -0.0202 -0.2741  0.2181
 8074W        W24208  14.978  11.902  11.753  0.3563  0.1803  0.2895
 8075W        W24209   0.348   4.476  13.267  0.0285  0.2110  0.2222
 8076W        W24210   7.782   3.195  14.093  0.1540 -0.3187  0.0585
 8077W        W24211   2.502  14.713   0.861 -0.2048  0.3085  0.0406
 8078W        W24212   4.751   9.558  13.635 -0.1504 -0.0364  0.1356
 8079W        W24213  17.584  13.437   3.753  0.1574  0.0369  0.1469
 8080W        W24214   5.822   4.534  14.993  0.1729  0.3644 -0.0384
 8081W        W24215  16.608  11.982   3.600  0.0707 -0.1285  0.0368
 8082W        W24216  12.332  17.744   3.283 -0.0844 -0.2029  0.0579
 8083W        W24217   6.779  15.941  13.631  0.0507  0.2463 -0.1646
 8084W        W24218   1.912   2.393   0.836 -0.1821  0.1848  0.1156
 8085W        W24219   4.241   1.397  12.094  0.0632  0.0195  0.1441
 8086W        W24220   2.527   2.175  10.744 -0.0191  0.0167  0.1496
 8087W        W24221  13.540  11.345  13.720  0.0929  0.0964  0.0611
 8088W        W24222  11.269   9.546   3.558  0.0793 -0.1210  0.1780
 8089W        W24223   2.205  13.665   4.339 -0.0471 -0.0536  0.1481
 8090W        W24224   5.904  17.408   2.227 -0.0593  0.1837 -0.0391
 8091W        W24225   9.869  15.050  12.351  0.0976 -0.0787  0.2482
 8092W        W24226  12.161  10.252  10.891 -0.0532  0.1993  0.0435
 8093W        W24227   0.546   3.329  11.897 -0.0846  0.2064  0.2040
 8094W        W24228   6.932  10.207   1.365  0.0685 -0.0832  0.3174
 8095W        W24229   3.954   7.296   5.093  0.1053  0.1752  0.3138
 8096W        W24230   9.689   3.069  14.907 -0.1850 -0.1489 -0.3158
 8097W        W24231  17.765  17.686   5.044  0.1355 -0.1607  0.2538
 8098W        W24232   8.918  15.924   3.076  0.0289  0.4068 -0.0858
 8099W        W24233   0.358   2.931   2.133 -0.0426 -0.0683 -0.1181
 8100W        W24234  11.063   6.282  15.062  0.1963 -0.2000  0.1084
 8101W        W24235  19.066   8.899  11.633  0.0673 -0.4970  0.2724
 8102W        W24236   1.341   4.249  15.086 -0.1704  0.1808 -0.0305
 8103W        W24237   1.518   1.005   1.104 -0.1851  0.0326  0.2008
 8104W        W24238  18.920   1.150   1.070 -0.0317 -0.2075  0.3129
 8105W        W24239  11.274  14.519   4.099 -0.1624  0.3588 -0.0070
 8106W        W24240  19.014   3.174   3.380  0.2065  0.1371 -0.1004
 8107W        W24241   1.468   5.513   5.478 -0.0618 -0.4399  0.0438
 8108W        W24242   3.263  19.061  14.297 -0.1676  0.4301  0.0116
 8109W        W24243   2.984   4.373   0.694  0.1380 -0.1182  0.0732
 8110W        W24244   6.746  15.881   5.080 -0.0056  0.2703 -0.1084
 8111W        W24245   2.841   4.106   3.878 -0.0915 -0.0226  0.1816
 8112W        W24246  14.838   4.461  12.284 -0.1069 -0.1219 -0.1149
 8113W        W24247  14.897   8.725  14.475  0.1453 -0.3183 -0.2277
 8114W        W24248  18.597  18.057  13.612 -0.1693  0.1597 -0.0692
 8115W        W24249   3.330   6.280   4.195  0.2885 -0.0100 -0.0975
 8116W        W24250  18.622   7.834   2.461  0.0323 -0.1091 -0.2444
 8117W        W24251   4.834  16.270  11.022 -0.2143 -0.2191  0.1443
 8118W        W24252  16.109  14.913   3.985  0.1120 -0.1254 -0.1266
 8119W        W24253  12.687  11.065   2.485  0.1392 -0.0525  0.0509
 8120W        W24254  14.064   9.195  11.934 -0.1106  0.1048  0.0941
 8121W        W24255  11.103  12.207   4.117  0.1457 -0.1759 -0.1678
 8122W        W24256   5.289   3.869   1.027  0.0468  0.0366 -0.2950
 8123W        W24257  14.792   7.902  13.341  0.0650 -0.0851  0.2206
 8124W        W24258   1.606   5.775  14.995  0.1381 -0.0980 -0.2219
 8125W        W24259  18.925   4.517   2.154 -0.0519  0.1046  0.0031
 8126W        W24260  13.185   7.211   4.371 -0.5122  0.3910 -0.1263
 8127W        W24261   4.993   8.627   2.771  0.0506 -0.2904  0.0136
 8128W        W24262   9.665   8.862   2.528  0.2808  0.1187 -0.1857
 8129W        W24263   1.451  18.890  10.567 -0.1801 -0.2396 -0.0228
 8130W        W24264  10.713  14.521  12.870 -0.3403  0.0137  0.0594
 8131W        W24265   7.398  15.230   0.250  0.2639  0.0601 -0.0219
 8132W        W24266   9.485   2.959   2.773  0.0228  0.2198 -0.0116
 8133W        W24267   2.593  16.946  15.068 -0.0323 -0.1342  0.0365
 8134W        W24268  14.790   2.492   2.431  0.2178  0.5293 -0.2418
 8135W        W24269   6.077   0.455   0.397  0.0566 -0.1561  0.0597
 8136W        W24270   6.435   9.433  11.341 -0.0873 -0.3601  0.0139
 8137W        W24271  11.700   1.837   1.144  0.0766  0.1511 -0.4518
 8138W        W24272   5.250   2.071   3.355  0.1082  0.2306  0.0122
 8139W        W24273   2.328  11.592   3.288 -0.0733  0.1265 -0.0270
 8140W        W24274  12.988  18.888   4.787 -0.1962  0.0451 -0.1848
 8141W        W24275  13.630  13.123  14.718  0.1195  0.1200 -0.1836
 8142W        W24276   2.051  16.152  10.412 -0.0758 -0.2243 -0.1648
 8143W        W24277   5.914   4.716  12.133 -0.0296  0.1205 -0.0674
 8144W        W24278   2.510  14.152  14.194  0.0049 -0.1253  0.1739
 8145W        W24279   5.661   5.107   2.747 -0.0521 -0.0469  0.0997
 8146W        W24280   9.817  11.326  10.737  0.1600 -0.1932  0.1861
 8147W        W24281   2.577  16.270   1.865 -0.1019  0.0287 -0.0148
 8148W        W24282  12.129   0.862   4.472  0.3705  0.0231  0.2095
 8149W        W24283   1.127   4.519  14.627 -0.2440  0.0644 -0.0150
 8150W        W24284   0.857   2.724  10.804 -0.2429  0.1767  0.1690
 8151W        W24285   2.769  17.795  10.667 -0.0441 -0.0314 -0.0051
 8152W        W24286   6.165   5.696   5.535  0.1726 -0.1031  0.5495
 8153W        W24287   3.785   3.887   1.656  0.0025  0.1450  0.0776
 8154W        W24288   7.423   2.031  11.864 -0.0449  0.3041 -0.0885
 8155W        W24289   6.799   9.240   1.979  0.0341 -0.0924  0.1564
 8156W        W24290  12.534   7.585  10.949 -0.2143 -0.2442  0.0072
 8157W        W24291   2.814   5.925  12.667  0.0125  0.2051 -0.0316
 8158W        W24292  15.819  12.206  11.829 -0.0730  0.2118  0.1127
 8159W        W24293  18.701  10.763   3.017 -0.1982  0.2268  0.0983
 8160W        W24294  18.964  14.083   3.154 -0.1249 -0.2671 -0.0283
 8161W        W24295   4.534  17.725   0.277  0.2150 -0.1094  0.0224
 8162W        W24296   7.153   2.206  12.632  0.4954  0.0030  0.2732
 8163W        W24297   8.646  11.088   0.814  0.2705  0.0038 -0.2220
 8164W        W24298   3.401  15.186   0.818 -0.2308  0.3182 -0.1315
 8165W        W24299   2.363   6.608  13.667 -0.4329  0.6079  0.0282
 8166W        W24300   2.822   9.072   3.930 -0.2083  0.0287 -0.2105
 8167W        W24301   1.441  11.351   1.414  0.1445  0.0475 -0.1093
 8168W        W24302  14.054   9.862  13.032 -0.2596  0.1407 -0.2425
 8169W        W24303   2.194   7.670  11.677  0.0872  0.1134 -0.3848
 8170W        W24304  11.521  19.135  11.749  0.2831  0.0252  0.2518
 8171W        W24305  16.805   0.105  11.091 -0.3444 -0.2986 -0.3227
 8172W        W24306  14.892   8.704  10.826  0.1165 -0.1150  0.2614
 8173W        W24307  18.627  14.851  11.300 -0.1401  0.1647  0.0583
 8174W        W24308  12.229  17.513   4.055 -0.0306  0.1551  0.2235
 8175W        W24309   2.403  18.167   0.339  0.3571  0.0254  0.1516
 8176W        W24310   5.662  13.204  14.764  0.0059 -0.0461 -0.0917
 8177W        W24311  15.655  15.385  11.504 -0.2204  0.2016 -0.2451
 8178W        W24312  17.428  16.643   2.447  0.0701  0.1766  0.1821
 8179W        W24313   5.096   2.159   2.304 -0.1272 -0.0895 -0.2472
 8180W        W24314  18.941   8.083  10.334  0.0942  0.0544  0.1421
 8181W        W24315  16.611   8.352   1.141  0.2480 -0.2897 -0.1316
 8182W        W24316  17.182  15.750  14.878  0.2926 -0.0840  0.0110
 8183W        W24317   8.359   5.823  12.878  0.0058 -0.0679  0.0084
 8184W        W24318   4.460  10.802  10.966 -0.1013  0.0838  0.0386
 8185W        W24319  15.192   2.315  13.611  0.1278 -0.3442  0.1486
 8186W        W24320   1.573   6.592   1.264  0.3097 -0.1254 -0.0602
 8187W        W24321   0.165  12.221  11.152  0.0123  0.0873  0.0692
 8188W        W24322   5.218  14.255  11.935 -0.0757 -0.1014 -0.2642
 8189W        W24323   7.598   1.283  12.538  0.0585  0.1566 -0.3608
 8190W        W24324   1.862   7.579  10.122  0.2796 -0.0363 -0.1526
 8191W        W24325   5.370   5.268   3.209 -0.1433 -0.1448  0.2085
 8192W        W24326   3.625  11.810   5.284 -0.2238  0.1288  0.3068
 8193W        W24327   6.710   4.878   1.225  0.1522  0.4627  0.0837
 8194W        W24328   9.807  10.107   2.547  0.2098 -0.4196  0.1288
 8195W        W24329   1.750   2.927   3.958 -0.0781  0.1698  0.2374
 8196W        W24330  15.134  12.461  14.791 -0.0729 -0.0769 -0.0322
 8197W        W24331   2.837   6.126   1.154  0.0065 -0.1988  0.0887
 8198W        W24332   1.666  15.500   2.389 -0.1211  0.2762  0.0371
 8199W        W24333  18.746   5.768  12.857  0.2800  0.0400  0.2687
 8200W        W24334  18.644  11.191  10.543 -0.1944  0.2223  0.0687
 8201W        W24335   0.469   2.302   1.399 -0.4354  0.1249  0.0663
 8202W        W24336  16.898  13.945   1.527 -0.2442  0.1141  0.0760
 8203W        W24337   1.480   8.509  14.202 -0.1668 -0.0645 -0.1767
 8204W        W24338   4.352  14.941  13.584 -0.0116 -0.1001 -0.0009
 8205W        W24339  16.130  16.025  12.026 -0.3113  0.0704 -0.3016
 8206W        W24340   9.192  15.522   0.982  0.1453 -0.1892  0.1464
 8207W        W24341   8.471   2.596   0.649 -0.0880  0.1387 -0.0017
 8208W        W24342   3.120   7.577   3.980  0.1407 -0.1994 -0.1643
 8209W        W24343  16.031   4.901   1.005  0.0901 -0.0445  0.2067
 8210W        W24344  16.848  15.879   4.736  0.0728  0.2482 -0.0534
 8211W        W24345  18.873   9.389   1.371  0.1439 -0.0754 -0.1390
 8212W        W24346   0.787   1.304  13.361 -0.2321  0.0780 -0.1293
 8213W        W24347   6.661  12.457  13.278 -0.2262  0.1014 -0.1458
 8214W        W24348   9.672  11.284  11.420 -0.2388  0.1686  0.2638
 8215W        W24349   5.589  17.063  12.371 -0.1010 -0.1263 -0.1145
 8216W        W24350   6.040   9.967  13.651 -0.0551 -0.0491  0.0512
 8217W        W24351   5.993   9.889  12.207  0.3835 -0.2545 -0.1621
 8218W        W24352  18.156   0.822   0.092 -0.0269  0.0647  0.0260
 8219W        W24353   4.943  11.803  14.618 -0.1260 -0.0062  0.0351
 8220W        W24354   2.614  10.013  14.244 -0.1979  0.1531  0.3985
 8221W        W24355  17.048   3.802   2.972 -0.0251  0.0552  0.0350
 8222W        W24356   5.179  10.014  14.257 -0.0010  0.0433  0.2357
 8223W        W24357   3.735   9.378  15.134  0.2680 -0.1257  0.0594
 8224W        W24358   8.481  13.965  14.063  0.1223  0.0501  0.5385
 8225W        W24359   0.989   1.449  11.258 -0.2228 -0.2636  0.1325
 8226W        W24360   1.965   6.343  14.609 -0.0219 -0.2215  0.1452
 8227W        W24361   9.753   9.918  14.087 -0.2950  0.0802 -0.0500
 8228W        W24362  15.843  11.791   4.337 -0.2454 -0.0390 -0.0997
 8229W        W24363  15.586  14.372  11.284 -0.0431 -0.0159  0.3707
 8230W        W24364  12.673   3.068  13.363 -0.0419  0.0512 -0.0731
 8231W        W24365   3.814   3.342   1.609 -0.1131  0.2716  0.0799
 8232W        W24366  17.353  14.112   2.472 -0.1538  0.0342  0.0803
 8233W        W24367  17.607  18.027   4.624  0.0069  0.1186 -0.2684
 8234W        W24368  18.370  12.745   2.029  0.0354  0.0457 -0.5924
 8235W        W24369  12.290   2.870   0.839 -0.0432  0.1519 -0.0576
 8236W        W24370   7.623  12.790   2.149 -0.3655  0.0809  0.0305
 8237W        W24371  13.116  12.659   2.613 -0.1816 -0.2311  0.1533
 8238W        W24372   2.106  17.776   3.285 -0.0517 -0.1669 -0.1689
 8239W        W24373   8.186  10.879   4.549 -0.0541  0.1808  0.2079
 8240W        W24374  12.445  16.143  11.095 -0.3479 -0.0800 -0.2345
 8241W        W24375  18.752  15.581  14.380 -0.3022 -0.4599 -0.3191
 8242W        W24376  16.058   4.939   1.573 -0.1456 -0.2309  0.0984
 8243W        W24377   8.398   9.471  11.929 -0.3665 -0.2173  0.1200
 8244W        W24378   9.219   6.332   2.846 -0.0637  0.0297  0.0218
 8245W        W24379   9.260  10.663   9.768 -0.2697 -0.4339  0.4675
 8246W        W24380   4.983   8.446  12.426 -0.1048 -0.0103 -0.4135
 8247W        W24381   8.435  16.739   2.707  0.0466 -0.4743  0.1124
 8248W        W24382  15.988  13.811  12.399  0.0695 -0.0080 -0.0244
 8249W        W24383  11.514  10.129   0.372 -0.0199 -0.0359 -0.0634
 8250W        W24384   9.874   1.874   2.509 -0.2271 -0.0915  0.0636
 8251W        W24385  17.107   7.930  10.729  0.2728 -0.0958 -0.1399
 8252W        W24386  14.804   2.661  15.137  0.1756 -0.2877  0.3375
 8253W        W24387  16.823   6.130   1.439  0.1535  0.2229 -0.3493
 8254W        W24388  10.754   9.971   0.122  0.1092 -0.2121 -0.4161
 8255W        W24389  11.662  16.848   4.540 -0.0203  0.4304  0.3493
 8256W        W24390  15.854  17.996   2.345  0.1094 -0.1355 -0.3446
 8257W        W24391   2.308  11.961  13.049 -0.0215 -0.1842  0.4574
 8258W        W24392   0.345   5.489  13.691 -0.1896  0.2662  0.0691
 8259W        W24393   0.643   3.867   3.494 -0.1411  0.4269 -0.2653
 8260W        W24394  10.992  10.480  13.696 -0.1469  0.0309  0.1619
 8261W        W24395   1.286   7.782   2.137  0.0702 -0.0998 -0.2621
 8262W        W24396   1.462  16.288  11.569  0.0480 -0.3184 -0.1439
 8263W        W24397   0.198   2.199  11.329 -0.1111  0.0857 -0.0710
 8264W        W24398   6.996   5.570  14.826  0.0155  0.0760 -0.1234
 8265W        W24399  10.272  10.526   1.536 -0.4205  0.1038  0.0437
 8266W        W24400  14.103  17.555  14.565 -0.0158  0.0210  0.2392
 8267W        W24401   9.008   3.471   4.540  0.1748 -0.1348 -0.1659
 8268W        W24402  18.671   0.584  13.958 -0.1522  0.1249 -0.0162
 8269W        W24403  17.543   8.161  14.337 -0.1636 -0.2667 -0.1769
 8270W        W24404   9.293   9.015   0.566  0.0409  0.0839  0.1494
 8271W        W24405   5.638   7.665  14.158  0.1727 -0.1899  0.2124
 8272W        W24406   3.635   6.869   1.198 -0.2915 -0.1138  0.1436
 8273W        W24407  16.558  14.329  11.338 -0.2663  0.0733  0.2088
 8274W        W24408   4.512   0.773   3.913 -0.1824 -0.1177 -0.1360
 8275W        W24409  13.704   9.772  11.353  0.1033  0.0635  0.1623
 8276W        W24410   1.857  16.570   2.672 -0.1878 -0.2533 -0.0978
 8277W        W24411   0.156   9.264  10.725 -0.2072 -0.5369 -0.4248
 8278W        W24412   4.683   5.538  15.203 -0.1585  0.1431 -0.1337
 8279W        W24413  14.215  17.845  12.952  0.0457  0.1921  0.0474
 8280W        W24414   5.007   8.421  11.406 -0.0553  0.0259  0.0506
 8281W        W24415   2.503   9.825   3.859 -0.3102 -0.1853 -0.5038
 8282W        W24416  15.304   8.670  11.870 -0.1698 -0.2410 -0.2819
 8283W        W24417   5.171  16.494   1.338  0.0328  0.0602  0.4938
 8284W        W24418  16.573   1.447   0.564  0.1258  0.0902  0.0437
 8285W        W24419  11.149  18.850  12.941 -0.3423  0.0093 -0.0329
 8286W        W24420  10.082   0.583  14.213  0.0865  0.2810  0.1365
 8287W        W24421   6.370   0.843  11.497 -0.1094  0.0207 -0.1021
 8288W        W24422  16.598   5.559   2.685  0.2138  0.0027 -0.2707
 8289W        W24423   6.156  15.552   0.600 -0.1115 -0.0070  0.1625
 8290W        W24424  12.922  12.708  11.656 -0.4125  0.0564  0.0551
 8291W        W24425  18.292   1.401   0.497  0.0304  0.0576 -0.0897
 8292W        W24426   6.272   7.324   4.343  0.1958 -0.2508  0.2488
 8293W        W24427   2.671  14.978   4.862 -0.1152  0.0790 -0.1325
 8294W        W24428  16.054  14.241  11.515 -0.0208 -0.0114  0.2844
 8295W        W24429   1.954  14.793  12.807  0.0075 -0.0789 -0.1521
 8296W        W24430   5.793  10.792  14.004  0.1199  0.0928  0.3097
 8297W        W24431   9.046  16.097  12.204 -0.2939  0.0283 -0.0447
 8298W        W24432   4.299   6.886   3.284 -0.0325  0.1860 -0.0445
 8299W        W24433   7.903   1.546  11.110 -0.2426 -0.0091 -0.4974
 8300W        W24434   3.928  18.769   2.854  0.0848 -0.0080 -0.1885
 8301W        W24435   9.612   6.896   9.855  0.2043 -0.1086 -0.0743
 8302W        W24436   0.917   4.572  12.618 -0.0617  0.1162  0.1170
 8303W        W24437  14.978   6.078   4.504 -0.0138 -0.1149  0.0470
 8304W        W24438  12.791   7.816  13.208  0.2168  0.2175 -0.2830
 8305W        W24439   4.763   8.442  10.913  0.2154 -0.0483  0.3795
 8306W        W24440   2.575   9.957  12.757  0.3634 -0.0406 -0.3261
 8307W        W24441   7.405  16.039  12.398 -0.2944  0.1037  0.0118
 8308W        W24442   9.010   1.361  13.665 -0.0068 -0.2389 -0.0132
 8309W        W24443   1.314  17.340  11.116  0.3222  0.1484 -0.1598
 8310W        W24444   4.484   8.841   1.003  0.2281 -0.3016 -0.0205
 8311W        W24445   4.159  18.365   5.073 -0.2061  0.0203 -0.1138
 8312W        W24446   4.227   7.277  13.789 -0.1210 -0.2212 -0.0986
 8313W        W24447   4.122  18.448   3.710 -0.1405 -0.0937  0.3726
 8314W        W24448   4.193   3.023  15.040 -0.2187 -0.1656 -0.2430
 8315W        W24449  17.227   0.613   3.005  0.2663 -0.0530 -0.0007
 8316W        W24450  10.186  15.496   0.101 -0.0415 -0.2636 -0.1705
 8317W        W24451  17.276  17.253   0.559 -0.2507 -0.2051  0.2441
 8318W        W24452  11.845   0.834   2.013  0.2021  0.0116  0.0821
 8319W        W24453   2.163  15.379   2.206  0.1325 -0.0135  0.2350
 8320W        W24454   2.371  13.452   1.653 -0.0192 -0.0215  0.0791
 8321W        W24455  12.385   5.159   2.206 -0.0167 -0.1201 -0.0826
 8322W        W24456   0.385   4.637  11.286  0.1210 -0.0605  0.1589
 8323W        W24457  16.087  13.660  12.940 -0.2571  0.0185  0.1490
 8324W        W24458  12.080   0.321   1.903  0.0643  0.0794  0.2891
 8325W        W24459   0.396   1.533   3.267  0.0836 -0.2021  0.1345
 8326W        W24460   6.080  11.734  10.801  0.1934  0.1070 -0.0349
 8327W        W24461  13.424   9.347  12.658 -0.0430  0.2465  0.0104
 8328W        W24462  11.370  13.639  14.032  0.2938 -0.3294 -0.0523
 8329W        W24463  15.478  16.256  11.795 -0.3062  0.2811 -0.1067
 8330W        W24464   4.394   0.967  12.557  0.3611  0.3712 -0.1405
 8331W        W24465  12.199  14.153  11.371  0.0799 -0.0601 -0.0580
 8332W        W24466  18.363   0.384  10.210 -0.2311  0.4108  0.3753
 8333W        W24467   2.296   6.182   2.342 -0.3116 -0.0817 -0.1187
 8334W        W24468   4.223  17.956   3.380 -0.0330 -0.0872 -0.2692
 8335W        W24469  12.845   3.064  13.899  0.0678  0.1879  0.2612
 8336W        W24470  11.774  16.668  13.382 -0.2615 -0.0616 -0.4315
 8337W        W24471   4.443  11.838  11.936 -0.2086  0.4366 -0.1043
 8338W        W24472  13.203   2.819   4.766  0.1764  0.0646 -0.1542
 8339W        W24473  14.736  14.519   1.124 -0.3613 -0.0650  0.0043
 8340W        W24474   6.005  11.232   5.501 -0.2469  0.0793 -0.0862
 8341W        W24475  12.508   7.932   5.551  0.3329 -0.3234 -0.1906
 8342W        W24476  15.980   9.882   1.705  0.2707  0.1149 -0.1764
 8343W        W24477  11.408   8.802   2.571 -0.0940  0.0155 -0.2478
 8344W        W24478  10.318  10.299   0.926  0.2837 -0.1090 -0.2718
 8345W        W24479   3.479  15.044   1.904 -0.1344  0.3073  0.0749
 8346W        W24480  13.725  15.292  13.289  0.1913 -0.4215  0.3132
 8347W        W24481  11.617   3.044   5.130  0.1010 -0.0756  0.3592
 8348W        W24482   8.781  18.022  12.282  0.0093 -0.0452  0.0330
 8349W        W24483   6.419  10.048   2.519  0.1537 -0.0901 -0.2375
 8350W        W24484   7.701  10.607   5.453 -0.1338 -0.2270 -0.0885
 8351W        W24485   2.464   2.454   0.864  0.0912  0.0701  0.0236
 8352W        W24486  13.167   0.471   3.283 -0.0592 -0.0505 -0.2462
 8353W        W24487  10.872  10.502   4.563 -0.0607 -0.2389 -0.1912
 8354W        W24488   6.820  18.563   3.099  0.1945 -0.1954 -0.1065
 8355W        W24489  10.872  11.049   4.801 -0.0459 -0.0851  0.1247
 8356W        W24490   9.974   8.695  14.975 -0.3390  0.2193  0.2666
 8357W        W24491  11.733  18.985  14.066 -0.1366 -0.0963 -0.1017
 8358W        W24492   9.626  18.242  11.264  0.1467  0.0668 -0.4983
 8359W        W24493   7.869  14.090   1.761  0.0268  0.1208  0.0014
 8360W        W24494   0.346  18.987   5.351  0.1633  0.1911  0.1643
 8361W        W24495  18.922  12.507   9.311 -0.1084 -0.4686 -0.2107
 8362W        W24496  11.031   8.041  13.568  0.0768 -0.1316  0.3149
 8363W        W24497  12.273   3.526   4.412  0.1154 -0.0203 -0.1513
 8364W        W24498   9.177   6.699  15.104 -0.3401  0.0401 -0.0577
 8365W        W24499   6.906  16.655   5.555 -0.3115 -0.2856 -0.2232
 8366W        W24500  14.734  13.287   4.638  0.0622 -0.1425 -0.1456
 8367W        W24501  11.650  18.873  10.713  0.0462 -0.1582 -0.1428
 8368W        W24502   3.141   2.523   5.063  0.0455  0.2922 -0.2984
 8369W        W24503  15.725  13.839  13.878  0.1379  0.2129  0.1619
 8370W        W24504  17.308   7.537   2.187  0.0686 -0.0140  0.2394
 8371W        W24505   0.772   0.460   0.806 -0.0291 -0.1713 -0.1601
 8372W        W24506  16.697   8.858  12.195  0.0277 -0.0211 -0.3208
 8373W        W24507   0.011  17.510   2.696  0.2777  0.0408 -0.0100
 8374W        W24508  10.776  15.241  11.328 -0.0222 -0.1467 -0.3992
 8375W        W24509  12.151  15.668   1.069  0.3232 -0.0439 -0.1864
 8376W        W24510  15.655   6.370  14.046  0.2537 -0.2320  0.0203
 8377W        W24511   9.435  13.956   1.709  0.1113 -0.0282  0.0720
 8378W        W24512  17.964   6.259   3.961 -0.0347 -0.5481  0.1502
 8379W        W24513   1.807   7.480   4.200 -0.2841  0.4871 -0.3372
 8380W        W24514   7.774   7.358  14.824  0.1698  0.1301  0.0219
 8381W        W24515  16.831   7.392  11.995 -0.1284 -0.0796 -0.0226
 8382W        W24516  19.098   4.281  14.483  0.1791 -0.0601  0.3811
 8383W        W24517   3.452   5.104  10.668  0.0729  0.0332  0.1725
 8384W        W24518  14.901  10.417  12.809  0.0747 -0.1854 -0.1982
 8385W        W24519  14.360  10.017   2.428 -0.1234 -0.0810 -0.4102
 8386W        W24520  11.898  13.732   3.788  0.0458 -0.2066  0.2163
 8387W        W24521  12.392   9.646   2.870  0.1164 -0.2476  0.4402
 8388W        W24522   7.090  16.246   4.759 -0.2752 -0.1611 -0.0981
 8389W        W24523  11.055   6.858   0.772 -0.1458  0.0089  0.2215
 8390W        W24524  10.619  13.777  12.513 -0.2172  0.2748 -0.0994
 8391W        W24525   3.933  18.029   2.015  0.2538 -0.2927 -0.0976
 8392W        W24526  11.473   7.709  13.563  0.2924 -0.0856  0.3065
 8393W        W24527  14.669  18.115   0.449  0.1142  0.0547  0.0826
 8394W        W24528  17.497   4.833   9.787 -0.2337  0.4569  0.2193
 8395W        W24529  13.268   6.240   5.197  0.0151 -0.2020  0.0491
 8396W        W24530  16.192  11.206   3.860  0.0003 -0.2530 -0.0761
 8397W        W24531  13.153  11.340   2.648  0.3986 -0.0247 -0.0593
 8398W        W24532  12.155  18.936  10.730  0.0947 -0.0116 -0.2508
 8399W        W24533   7.669   2.261   2.992  0.1791  0.2638 -0.0463
 8400W        W24534   9.861   7.095   3.081  0.0667 -0.1485 -0.0885
 8401W        W24535   8.922  15.498   4.376  0.1149 -0.1598  0.2299
 8402W        W24536  15.577  16.165   1.183  0.2528 -0.1571 -0.0149
 8403W        W24537  15.842   7.275   1.012 -0.0003  0.2834  0.1134
 8404W        W24538  17.065  11.620  14.253  0.4901 -0.0344  0.2381
 8405W        W24539  16.742  18.604  11.417 -0.0988  0.2053  0.0154
 8406W        W24540  13.671  10.352  12.861 -0.1148  0.3122 -0.1063
 8407W        W24541   8.796   2.249   2.612 -0.1957  0.1566  0.1581
 8408W        W24542   3.622   1.551  13.530 -0.0188 -0.2831  0.0110
 8409W        W24543  13.981   7.131  13.980  0.0148 -0.0956 -0.2481
 8410W        W24544   5.892  10.434  12.936 -0.0874  0.1191 -0.0665
 8411W        W24545   7.205  18.239   9.683 -0.0064  0.1184  0.0944
 8412W        W24546   5.194   7.077  11.164  0.0277 -0.4088  0.1404
 8413W        W24547   6.371   5.554  12.544  0.2333  0.1147 -0.0598
 8414W        W24548   0.283   3.296   3.869 -0.0267 -0.1842  0.0030
 8415W        W24549  18.456   4.499  10.220  0.3811  0.2406  0.1448
 8416W        W24550  12.211  16.417  12.635  0.0855 -0.2860 -0.0410
 8417W        W24551  10.626   8.953   0.747  0.0306  0.0023  0.1321
 8418W        W24552  17.650  10.779   2.984 -0.3423  0.2382  0.1156
 8419W        W24553   7.742  11.066   1.347  0.1209 -0.0615  0.1877
 8420W        W24554  16.394  18.990   9.777  0.4338  0.2009 -0.1243
 8421W        W24555   3.945  12.169  12.801  0.0518  0.1093  0.2807
 8422W        W24556   9.069   8.700  14.952 -0.3106 -0.1146  0.2760
 8423W        W24557   8.889   6.422   4.469  0.4848 -0.0675  0.0119
 8424W        W24558  17.156   0.704   3.535  0.1228 -0.2448 -0.0612
 8425W        W24559   8.907  13.182   0.734 -0.0392 -0.0379 -0.1252
 8426W        W24560  13.259  15.322  12.280  0.0324  0.2326  0.1232
 8427W        W24561   8.985   5.144  14.881  0.2280  0.1444 -0.1419
 8428W        W24562   0.500  15.540   4.855 -0.0692  0.1038 -0.1211
 8429W        W24563   2.671  18.159  13.281 -0.1346  0.1187  0.3740
 8430W        W24564   4.608   8.328   3.033 -0.0142 -0.2291  0.3260
 8431W        W24565  17.216  11.124  10.742 -0.1564 -0.0742  0.1371
 8432W        W24566   5.918  17.199  11.431  0.1105  0.1589 -0.1937
 8433W        W24567   2.046  15.403   2.697  0.1794 -0.1308  0.0435
 8434W        W24568  17.931   5.898  14.369  0.0775 -0.0332 -0.0852
 8435W        W24569  11.513  15.388  10.849  0.4884  0.1347 -0.3301
 8436W        W24570   6.003  11.824  12.619  0.1198 -0.2019 -0.0993
 8437W        W24571   6.410  17.788   2.708 -0.0681  0.4288  0.0405
 8438W        W24572   8.559  17.475   4.111  0.2598 -0.1375 -0.2786
 8439W        W24573  13.310   1.984   3.554 -0.7259  0.4466 -0.0164
 8440W        W24574  11.540   6.191  11.427  0.1448 -0.1728  0.0117
 8441W        W24575  16.208   8.958   1.919  0.2466 -0.1911 -0.0147
 8442W        W24576  14.459   7.913   3.891  0.0408  0.0641 -0.1358
 8443W        W24577   6.063  17.692   0.337  0.4082 -0.0187  0.0150
 8444W        W24578  10.698   8.644  12.511  0.4214 -0.0499 -0.1365
 8445W        W24579   6.945   1.048   3.109 -0.3340 -0.0087  0.0453
 8446W        W24580  18.818   5.934   0.596 -0.0933 -0.2742 -0.0242
 8447W        W24581  11.474  12.887   1.681  0.0152  0.0372  0.1897
 8448W        W24582   5.665   3.830   0.639 -0.2462 -0.2706 -0.0635
 8449W        W24583  13.472  12.990  12.641  0.0566  0.3203 -0.1171
 8450W        W24584   2.339   8.263  12.377 -0.0010 -0.1993  0.2833
 8451W        W24585   2.085   3.449  10.399 -0.1364  0.3619  0.1445
 8452W        W24586   7.474  11.197   5.060 -0.2550  0.1307  0.1736
 8453W        W24587  16.888   5.289   3.032  0.1541  0.1243  0.1008
 8454W        W24588  14.533  18.913  11.030 -0.1938 -0.0992 -0.0536
 8455W        W24589   2.246   6.988   1.199 -0.1419 -0.2502 -0.1682
 8456W        W24590   8.886   8.119  15.006 -0.2048  0.0456  0.0190
 8457W        W24591   1.989   2.412  14.235 -0.2356  0.0872  0.1235
 8458W        W24592   2.792  17.535  11.378  0.0810 -0.2938  0.1556
 8459W        W24593  12.029  13.529  11.313  0.0497  0.1221 -0.0661
 8460W        W24594  11.450   7.943   0.219  0.3019  0.0608 -0.1208
 8461W        W24595  16.349   7.141  13.304 -0.1265  0.1048 -0.1179
 8462W        W24596   2.659   4.984   4.218 -0.0521  0.0220  0.1058
 8463W        W24597  10.461  11.433   0.003  0.1405 -0.0893 -0.1739
 8464W        W24598  13.726   6.467  14.469 -0.3488  0.2214 -0.1506
 8465W        W24599   2.585   3.010  13.326  0.4183  0.0722  0.1995
 8466W        W24600   4.679  11.898   2.886  0.1090 -0.1020  0.4082
 8467W        W24601  16.275  11.772   4.057 -0.1940 -0.2475  0.1343
 8468W        W24602  18.985   0.045   0.381 -0.0603  0.2930  0.1140
 8469W        W24603  18.025   2.728  14.632 -0.1475  0.0257 -0.1743
 8470W        W24604  12.088   6.416  11.135 -0.1649  0.2182 -0.2190
 8471W        W24605  16.089   1.233  10.466  0.2529 -0.0558 -0.1881
 8472W        W24606  11.175  11.633   1.965 -0.0289  0.2684  0.1744
 8473W        W24607   9.354  11.971  14.569  0.0574 -0.2329 -0.1269
 8474W        W24608   8.900  18.466   3.396  0.2797  0.1953  0.0438
 8475W        W24609  15.667  18.703   5.309 -0.2977 -0.0830 -0.1961
 8476W        W24610  14.338  12.625  15.124  0.2370  0.1648 -0.3992
 8477W        W24611   6.283  11.811   1.138  0.2045 -0.0133  0.4172
 8478W        W24612  14.796  10.053   1.090  0.0156 -0.0340  0.1748
 8479W        W24613  16.744   3.876   2.025 -0.0231 -0.4037 -0.4013
 8480W        W24614   0.845   7.152   1.239 -0.0011  0.0309  0.1474
 8481W        W24615   0.586   0.397   3.493 -0.2962 -0.1818 -0.1139
 8482W        W24616   9.963  12.454   3.819 -0.1532  0.2756 -0.0654
 8483W        W24617   3.124   7.335  10.288  0.1251 -0.2479  0.1512
 8484W        W24618   1.547   1.841   2.938 -0.0159 -0.0431  0.1007
 8485W        W24619  12.714   1.181  12.039 -0.0374  0.2260 -0.0188
 8486W        W24620  16.519   8.728   2.910 -0.0263  0.2368  0.1896
 8487W        W24621  17.614   2.999  14.487  0.0553 -0.2160  0.0127
 8488W        W24622  17.413   8.799   0.383 -0.1407  0.0670 -0.2164
 8489W        W24623   4.111  18.311   2.962 -0.1136  0.2112  0.0822
 8490W        W24624   0.872  16.040  11.191  0.1913  0.0305 -0.1361
 8491W        W24625  14.344  11.968   2.029  0.4345  0.1459 -0.2801
 8492W        W24626  15.040  16.274   3.057  0.0612 -0.1015  0.2281
 8493W        W24627   1.526   2.450  12.716  0.1819  0.1712 -0.0424
 8494W        W24628   8.177  14.765  10.870 -0.0337 -0.1510 -0.3385
 8495W        W24629   6.671  12.737  14.569  0.2487 -0.0248  0.2541
 8496W        W24630  17.125   9.877  14.565  0.0304  0.1151 -0.2591
 8497W        W24631   7.298   9.353   4.897  0.0206 -0.0955 -0.1310
 8498W        W24632   6.271  17.388   4.998  0.0203 -0.0410 -0.0082
 8499W        W24633  12.209   6.689   1.499  0.0989  0.0168  0.2654
 8500W        W24634  16.703   0.271   1.039 -0.3609  0.0760 -0.1105
 8501W        W24635   0.862  18.794  12.640 -0.1489  0.1046  0.2132
 8502W        W24636   1.469  16.174  10.514  0.1936 -0.0968  0.1114
 8503W        W24637  12.294  17.015   4.576 -0.2507  0.2517  0.0326
 8504W        W24638   1.537   1.999  11.997 -0.2716 -0.4275 -0.0420
 8505W        W24639   9.647  10.207   1.661  0.0191 -0.1676  0.1793
 8506W        W24640  11.993   7.039  12.987 -0.1124 -0.0143  0.2937
 8507W        W24641   7.033   6.991   4.015  0.0815 -0.0435 -0.2651
 8508W        W24642  14.417   5.611   0.830 -0.2280  0.0666 -0.5329
 8509W        W24643   5.589   7.036   3.713  0.2949  0.3502 -0.0954
 8510W        W24644   4.729   8.484  15.135 -0.0726  0.0209  0.1913
 8511W        W24645   9.757   4.846   2.098 -0.0000  0.0720  0.1486
 8512W        W24646   9.081  11.620  10.883 -0.0270  0.1908 -0.1768
 8513W        W24647   2.140   6.269   1.885  0.1240 -0.0094 -0.1651
 8514W        W24648   2.110  15.482   4.291  0.1951  0.0292  0.0342
 8515W        W24649  12.061   2.343   1.192 -0.1999 -0.1385  0.0462
 8516W        W24650  14.350   5.497   3.160  0.0930  0.0044 -0.1952
 8517W        W24651  14.051  10.494  11.993 -0.0063  0.2382  0.0337
 8518W        W24652   5.013   5.910   1.268  0.1678 -0.0994  0.0787
 8519W        W24653  14.778  12.719  12.432  0.1612 -0.2908 -0.1243
 8520W        W24654  18.906  17.230   0.842 -0.3870  0.2872 -0.1621
 8521W        W24655  13.157   4.636  10.942 -0.0576 -0.0019  0.0422
 8522W        W24656   5.696  11.612   1.280 -0.1798  0.4391  0.0675
 8523W        W24657   0.751   4.712  11.659 -0.1641 -0.2040 -0.1897
 8524W        W24658   0.007  11.894  10.738  0.3448  0.0787 -0.0780
 8525W        W24659   8.498   3.071   0.523  0.3933 -0.2302 -0.0942
 8526W        W24660  11.688  14.149   4.303 -0.1465  0.3156  0.1729
 8527W        W24661  16.141   5.368   1.321 -0.0459  0.2244 -0.0232
 8528W        W24662  14.176  15.527   4.184 -0.1296 -0.0190 -0.1103
 8529W        W24663   7.114  13.506   0.300  0.0347  0.0202  0.0260
 8530W        W24664   3.005  12.356   4.443  0.3364 -0.0875  0.0581
 8531W        W24665   8.970  18.456  13.638  0.1215 -0.0526  0.1140
 8532W        W24666  17.664   0.388   4.182  0.2132  0.0201  0.3196
 8533W        W24667  12.418   3.963  14.851 -0.0309 -0.0476 -0.0580
 8534W        W24668  11.594   9.175   0.310  0.0169 -0.3410 -0.4264
 8535W        W24669   9.277   9.854  12.407 -0.2353 -0.0978 -0.0905
 8536W        W24670   3.442   7.004  10.730  0.1777 -0.0353 -0.2978
 8537W        W24671  16.757  11.442  14.780 -0.1923  0.0042 -0.2536
 8538W        W24672   9.519  16.680   0.338  0.0816 -0.2030 -0.0742
 8539W        W24673  11.542   0.425   0.168  0.1163 -0.1681  0.1481
 8540W        W24674   0.384   4.121  14.111  0.1939  0.0938 -0.2229
 8541W        W24675  16.073  13.484   2.607  0.1023 -0.2432  0.0921
 8542W        W24676   6.670   9.883  13.158 -0.0843 -0.0154  0.0417
 8543W        W24677  11.165  14.277   2.204  0.0764  0.0754 -0.0351
 8544W        W24678   9.258   7.261   4.803  0.1220 -0.3423 -0.2241
 8545W        W24679  17.047   1.067  14.451  0.1253  0.0447 -0.2444
 8546W        W24680  13.941  15.090   2.645 -0.1017 -0.0479  0.5107
 8547W        W24681  12.606  14.549  10.439 -0.0773  0.0709  0.1503
 8548W        W24682  18.166   6.526  12.870  0.2805 -0.1096 -0.0837
 8549W        W24683   5.424   7.582   5.391  0.0437  0.1134  0.0988
 8550W        W24684  15.357   4.683  12.204  0.1744  0.0316 -0.2108
 8551W        W24685   2.721  11.570   2.468  0.0467  0.2283 -0.1637
 8552W        W24686  14.154  16.367  12.001 -0.1424 -0.2148 -0.0379
 8553W        W24687  10.155   1.628  14.454  0.1346 -0.0370 -0.2023
 8554W        W24688   4.102   0.247  11.300 -0.1586  0.0867 -0.1400
 8555W        W24689  19.080   2.522   0.253  0.0211 -0.0520  0.1734
 8556W        W24690  15.646   8.979  11.273  0.1431  0.1827  0.0452
 8557W        W24691   2.348   2.013  11.509 -0.3057  0.0097 -0.1668
 8558W        W24692   4.626  18.644   1.694 -0.0776 -0.0818  0.1854
 8559W        W24693   7.330   2.921  14.020  0.0306  0.1171 -0.0760
 8560W        W24694  16.398  13.022   4.194 -0.0319  0.2336  0.1501
 8561W        W24695  11.500  11.221   0.474  0.0030 -0.0135  0.1133
 8562W        W24696   1.159  14.598  13.262  0.0135  0.1234 -0.0183
 8563W        W24697  13.357   0.403   4.176  0.3360  0.2555  0.1351
 8564W        W24698   2.803   0.261   3.267  0.1904  0.2895  0.1109
 8565W        W24699   0.241  17.303  12.681  0.2563  0.2920  0.2876
 8566W        W24700   1.847   6.585   2.134  0.2889 -0.2101  0.2179
 8567W        W24701   9.811   0.488  12.353 -0.3288 -0.0661 -0.2843
 8568W        W24702  17.580   7.915   2.343  0.0384  0.2400 -0.1218
 8569W        W24703   4.155   0.658   2.707 -0.2930 -0.0366  0.0532
 8570W        W24704  13.124  15.685   0.848  0.0975 -0.2280 -0.1674
 8571W        W24705  18.699  16.311   2.679 -0.1762 -0.4643 -0.0813
 8572W        W24706  15.797  17.895   2.850  0.0714  0.0208  0.1896
 8573W        W24707  17.483  11.605   4.016  0.0388  0.0956  0.2291
 8574W        W24708  17.529  11.405   0.667 -0.0612 -0.0776  0.1300
 8575W        W24709   5.705   6.603   3.549 -0.0999  0.1076 -0.1311
 8576W        W24710   1.953  10.205   0.957  0.1835 -0.0256  0.1254
 8577W        W24711   8.746  17.094  10.717  0.0105 -0.3689  0.2182
 8578W        W24712  16.889   4.960   1.571 -0.5545 -0.3138 -0.4741
 8579W        W24713  17.479  16.104  13.472 -0.1266  0.2862  0.2235
 8580W        W24714   5.789   6.797   4.167 -0.2867 -0.3407  0.1693
 8581W        W24715  16.964   5.800   0.158  0.0171 -0.1713  0.1134
 8582W        W24716   6.138  15.788   1.075  0.0993  0.0355 -0.1147
 8583W        W24717   4.187   2.337   0.786  0.1055 -0.2057 -0.4068
 8584W        W24718  18.975   9.568  12.987  0.1050  0.1073  0.2416
 8585W        W24719   2.876   5.584   3.627 -0.0309  0.0693  0.0771
 8586W        W24720  11.453  10.054   1.963  0.0494  0.2275  0.0978
 8587W        W24721  17.433  18.639   1.154  0.3380 -0.0991  0.0893
 8588W        W24722  10.222  14.422  11.089 -0.2045 -0.1145  0.2021
 8589W        W24723   8.426  14.825   3.961  0.1817 -0.0874  0.0783
 8590W        W24724   3.778  13.492  12.816 -0.1069  0.0765  0.3119
 8591W        W24725  15.624   9.988   1.327  0.0720  0.1665 -0.6412
 8592W        W24726  14.072   1.591   1.398 -0.2882  0.2710 -0.1917
 8593W        W24727   5.654  16.084   3.311  0.0248 -0.0051  0.1776
 8594W        W24728   6.014  13.306   3.533 -0.1701  0.3347  0.2820
 8595W        W24729   2.701   1.500  13.754  0.0045  0.0464  0.1434
 8596W        W24730  11.989   2.593   1.637  0.0786  0.0206  0.1567
 8597W        W24731   9.278   8.485   0.637  0.0911 -0.1231 -0.0488
 8598W        W24732   8.435  16.876   0.999  0.2220 -0.0670  0.1925
 8599W        W24733  18.213  13.414  11.228 -0.0079  0.1175 -0.2368
 8600W        W24734  14.489  14.515   5.449 -0.0541 -0.1749 -0.0299
 8601W        W24735   1.515   1.253  15.061 -0.1229 -0.0413 -0.0606
 8602W        W24736  18.689  10.895  13.478  0.0141  0.2686 -0.2548
 8603W        W24737  16.504  17.606  12.577  0.2831  0.0006  0.2906
 8604W        W24738  10.805   8.955   4.902 -0.1460 -0.1133 -0.0589
 8605W        W24739  17.974  16.667   0.680  0.0781 -0.0529  0.0104
 8606W        W24740   9.029  13.077  11.665  0.1923  0.0817 -0.0935
 8607W        W24741   1.456  13.629   0.543  0.3391 -0.1938  0.3077
 8608W        W24742   0.425   8.706  15.134  0.1823  0.0961 -0.2871
 8609W        W24743   6.905   2.611  10.157  0.3478 -0.0066  0.0118
 8610W        W24744   3.990  18.142  10.114 -0.0764  0.2318 -0.0810
 8611W        W24745  15.308   7.574   2.828 -0.3142  0.0184 -0.1334
 8612W        W24746  16.633   6.636  12.478 -0.3254 -0.1433  0.2091
 8613W        W24747  15.299  10.306  11.468  0.0625  0.1127  0.1595
 8614W        W24748  12.496  15.498   2.278  0.2573  0.1633  0.0959
 8615W        W24749  16.010  13.157   2.174 -0.1733  0.2419  0.0155
 8616W        W24750  12.306  10.091   4.285 -0.0355 -0.0095  0.2710
 8617W        W24751  10.756   3.943  14.753 -0.2333  0.0612 -0.1527
 8618W        W24752   6.937  15.988  11.643  0.0681 -0.0447 -0.2779
 8619W        W24753   1.695   2.925  12.664 -0.0671 -0.3307 -0.1495
 8620W        W24754  14.042   2.786   3.547  0.0388 -0.0395  0.1284
 8621W        W24755   1.800  11.613  11.462 -0.1722  0.1084 -0.1368
 8622W        W24756  15.633   9.829  12.581 -0.0641  0.3867  0.3121
 8623W        W24757   1.890   6.001  13.088  0.1879  0.1703 -0.0523
 8624W        W24758   6.957  15.443  12.451  0.2259  0.1212  0.1113
 8625W        W24759   0.217  18.330   1.461 -0.0858 -0.2175 -0.0152
 8626W        W24760   8.570  18.869  10.546 -0.1269  0.0117  0.2196
 8627W        W24761   0.276   2.917   0.013  0.2902  0.0658  0.0475
 8628W        W24762  18.173   4.602  13.579 -0.1771  0.2387  0.0369
 8629W        W24763   3.071  13.785  10.189 -0.1270 -0.2080  0.0243
 8630W        W24764  14.362  11.382   4.701  0.0392 -0.0306  0.0261
 8631W        W24765   6.913   8.543   1.513 -0.1916 -0.0253  0.0261
 8632W        W24766  13.881  18.257  14.296  0.0899  0.0448 -0.1185
 8633W        W24767  15.728   5.029   3.403 -0.1638  0.1256 -0.2235
 8634W        W24768   7.250  10.891   0.718  0.1492 -0.2063 -0.0627
 8635W        W24769  17.235  14.510   3.216  0.1156  0.0105 -0.4270
 8636W        W24770   8.652  13.288   1.207 -0.0656 -0.0808 -0.0200
 8637W        W24771   5.665   9.733  11.483 -0.3452 -0.1280  0.0621
 8638W        W24772   4.623  17.754   3.143 -0.3919 -0.0352 -0.1839
 8639W        W24773   2.673   0.956   3.187 -0.0000 -0.0510  0.2103
 8640W        W24774  14.259  12.390   1.502 -0.0410  0.3607  0.2312
 8641W        W24775  14.688  17.031  11.047  0.0650  0.0169  0.0720
 8642W        W24776  12.628   0.659   4.049 -0.3376  0.1419 -0.0035
 8643W        W24777  14.507  18.945  12.245 -0.0967  0.0397  0.0265
 8644W        W24778  18.716   9.821   0.288  0.1533 -0.0162 -0.2683
 8645W        W24779   8.677  12.002   1.751 -0.1017 -0.2843  0.2760
 8646W        W24780   9.087  15.837   0.580 -0.0918  0.1799 -0.3801
 8647W        W24781   7.985   0.685   0.474  0.3049 -0.1686 -0.0250
 8648W        W24782  15.190   3.266   4.564 -0.1011 -0.0577  0.2831
 8649W        W24783  15.451  16.229   0.725  0.0639  0.2316  0.0319
 8650W        W24784  15.666   4.926   0.217  0.0360  0.3081 -0.1245
 8651W        W24785  12.503   2.939  12.044 -0.1608 -0.0526  0.1508
 8652W        W24786   1.441   5.728  11.173 -0.1887 -0.2511 -0.2560
 8653W        W24787   7.472   6.754  11.473  0.1163 -0.1012 -0.0067
 8654W        W24788  10.673   4.699   4.800 -0.0271  0.0679 -0.1617
 8655W        W24789  12.529  13.162   0.332 -0.1787 -0.2633  0.1692
 8656W        W24790   1.069   5.310  12.088  0.1141  0.2343  0.0921
 8657W        W24791  14.399  10.921  11.451  0.0864  0.0654 -0.2041
 8658W        W24792  15.979  13.608   1.404  0.0127  0.2410  0.0971
 8659W        W24793  18.923   9.438  11.470  0.0292  0.1072 -0.0418
 8660W        W24794  13.647   8.365   2.775  0.0539  0.0673  0.0669
 8661W        W24795  14.476  13.388  12.609 -0.4488 -0.0172 -0.3024
 8662W        W24796  18.631  18.520  10.495  0.1302 -0.1122  0.4206
 8663W        W24797  15.220  15.470  13.289 -0.3632  0.2603  0.0403
 8664W        W24798   7.645   0.805  11.836 -0.1522  0.2032  0.1215
 8665W        W24799   6.659   1.483  12.166 -0.2143 -0.0378  0.2353
 8666W        W24800  10.405  18.789  11.376  0.3743  0.0672  0.2505
 8667W        W24801   8.028   8.277   0.497 -0.2313  0.1309 -0.1473
 8668W        W24802  14.259  17.530  12.452  0.1019  0.0538 -0.1514
 8669W        W24803   1.322   6.842   3.262  0.3081  0.2585  0.0825
 8670W        W24804   7.168   8.548   3.555 -0.0450  0.1645  0.0100
 8671W        W24805   6.013   0.304   2.449 -0.2312 -0.1644  0.3093
 8672W        W24806  18.113   2.617   0.419 -0.1931  0.0088  0.1319
 8673W        W24807  17.297   3.041  12.567  0.0555 -0.2201 -0.4854
 8674W        W24808  10.852   4.844  14.468  0.0811  0.3802 -0.2203
 8675W        W24809   7.312   2.488  14.404  0.1876 -0.2044 -0.1374
 8676W        W24810  17.464  14.133  14.392 -0.5527 -0.1913  0.0087
 8677W        W24811  17.654  16.096   2.567 -0.0758 -0.3530 -0.0892
 8678W        W24812  12.783  15.670   2.653 -0.3131  0.2782  0.0630
 8679W        W24813  13.942   7.859  13.387 -0.0758 -0.4112  0.3855
 8680W        W24814   9.225   1.500  11.623 -0.0351 -0.1179  0.0381
 8681W        W24815  14.183   8.352   3.940 -0.0857  0.1014 -0.0329
 8682W        W24816   3.967  12.320   2.108 -0.1271  0.2150 -0.1763
 8683W        W24817  13.863   0.710   3.393  0.3847  0.0019  0.1957
 8684W        W24818  10.084  18.607  14.401 -0.0501 -0.1588  0.0753
 8685W        W24819  15.326  12.638   3.500 -0.0020  0.0196  0.1121
 8686W        W24820  14.148   8.634   2.836  0.0010 -0.0227 -0.0779
 8687W        W24821  12.649  16.225  13.550  0.2341 -0.1521 -0.0653
 8688W        W24822  15.290  12.094   3.347  0.0505 -0.0668 -0.0851
 8689W        W24823   7.046   7.124   1.850  0.3275 -0.1625 -0.0768
 8690W        W24824  10.211   3.657   0.316 -0.1812 -0.0613  0.1321
 8691W        W24825  15.791  10.854   3.142 -0.2859 -0.2755  0.1870
 8692W        W24826  10.850  14.985  14.344 -0.0945  0.1933  0.1151
 8693W        W24827  18.562   0.980   1.381 -0.1337  0.2051  0.2477
 8694W        W24828  16.611   8.247  13.097  0.0950  0.1416  0.1345
 8695W        W24829  13.247   1.109  12.301 -0.3906  0.0086  0.0276
 8696W        W24830  11.038  11.783  14.377 -0.1632 -0.0134 -0.1116
 8697W        W24831   1.458   0.384  11.310 -0.3361 -0.0045 -0.3822
 8698W        W24832   2.598   5.696  13.687  0.1328  0.2002 -0.0849
 8699W        W24833   1.094  19.118  13.540  0.1230  0.0469 -0.0951
 8700W        W24834  18.236  11.241  12.290  0.2032  0.0176 -0.1765
 8701W        W24835   0.270   4.746  10.200 -0.1869  0.0061 -0.2611
 8702W        W24836  16.078   2.843  14.820 -0.3365 -0.3252  0.0042
 8703W        W24837  17.426   1.727   2.228 -0.0858  0.1932  0.1897
 8704W        W24838  18.302   1.881   3.118 -0.0745  0.0685  0.0500
 8705W        W24839  13.927  10.793   3.022 -0.0156 -0.0917 -0.1187
 8706W        W24840  10.675   1.820  10.817  0.0107 -0.1088 -0.1430
 8707W        W24841  16.718  16.871  11.819 -0.1771 -0.1164  0.1391
 8708W        W24842   5.337  10.819  13.780 -0.2200  0.0466 -0.1516
 8709W        W24843   5.178   0.402  12.241  0.2244  0.1296  0.2521
 8710W        W24844  18.891   1.199  11.289 -0.0791 -0.0719  0.1306
 8711W        W24845  12.174   9.132   3.847 -0.4739  0.0498  0.1257
 8712W        W24846  13.696  18.976  14.910 -0.0506 -0.0942  0.1921
 8713W        W24847   6.285   8.971  12.589 -0.2389  0.0364  0.0554
 8714W        W24848   2.562   8.004  15.153 -0.3863  0.0221 -0.2454
 8715W        W24849   3.192  12.772  11.790 -0.0227  0.0412  0.0418
 8716W        W24850  15.598  18.339   9.514 -0.2430 -0.2777 -0.0845
 8717W        W24851  16.040   0.197  13.547 -0.1250 -0.1579  0.0697
 8718W        W24852  11.906  15.208  11.921  0.2266  0.0091  0.5057
 8719W        W24853   7.574   2.181  15.073 -0.1047  0.0230 -0.1331
 8720W        W24854  12.921  14.951  12.261 -0.3463  0.3215  0.2119
 8721W        W24855  17.293   6.403   2.494  0.1711 -0.1469  0.0267
 8722W        W24856   5.718   5.594   0.523  0.0528 -0.1817  0.1193
 8723W        W24857   1.473   1.193  10.298 -0.0715  0.3799  0.0692
 8724W        W24858   7.535  13.717   1.709 -0.0272 -0.1440  0.0681
 8725W        W24859   0.395   1.355   1.659 -0.1499  0.3561 -0.0262
 8726W        W24860   7.669   6.880  11.041  0.2307  0.0793  0.1171
 8727W        W24861  16.943   6.196  12.343 -0.4923 -0.1629 -0.1686
 8728W        W24862  18.324  16.700   2.542 -0.1639  0.1115 -0.1215
 8729W        W24863  14.727   9.083   3.372  0.4017 -0.3280  0.1440
 8730W        W24864   0.765  18.588   1.196  0.0797  0.2054 -0.1675
 8731W        W24865  18.566  11.621   4.026 -0.2636  0.0964  0.0381
 8732W        W24866  12.497  14.103   0.238  0.2447  0.4165 -0.1733
 8733W        W24867  16.120   0.713  10.290 -0.1158  0.2236  0.1955
 8734W        W24868   8.824   9.708  13.283 -0.1869 -0.0774  0.0022
 8735W        W24869  10.002  15.575  11.001 -0.2537  0.1311 -0.1527
 8736W        W24870  15.860  12.863  11.355 -0.0888  0.0877  0.4095
 8737W        W24871  11.105   7.380   4.626 -0.1398 -0.1312 -0.0321
 8738W        W24872  12.902  16.280   4.423  0.1761  0.0062  0.0156
 8739W        W24873   7.564   8.330   3.931 -0.2487  0.1182 -0.1155
 8740W        W24874   9.720  12.700  13.849 -0.1425  0.0736  0.4989
 8741W        W24875  17.925  10.124   0.409  0.1373  0.2191  0.1220
 8742W        W24876   6.306  14.911   4.921  0.0063  0.0926 -0.0377
 8743W        W24877  10.998   7.322   1.856 -0.0394 -0.0320  0.2377
 8744W        W24878  16.549  12.895  12.722  0.0558  0.0489  0.0168
 8745W        W24879   6.324   0.202  14.677 -0.0892 -0.2129 -0.0466
 8746W        W24880   6.499  16.924   2.908 -0.2750  0.2586 -0.2495
 8747W        W24881  13.870  17.770  14.144 -0.2453  0.1448  0.0870
 8748W        W24882   3.362   8.539   0.886 -0.0340 -0.0925  0.0762
 8749W        W24883  12.856   0.542   4.860  0.1251 -0.0344 -0.1606
 8750W        W24884  18.710   0.276  14.948  0.0823  0.2179 -0.4018
 8751W        W24885   4.680   3.007  11.921  0.0048 -0.1398 -0.2659
 8752W        W24886  17.278   4.575  13.820 -0.2099  0.0905 -0.0116
 8753W        W24887   1.064  18.906  11.734  0.1087 -0.1816 -0.1688
 8754W        W24888  13.448  14.163   5.115  0.0908  0.0628 -0.0136
 8755W        W24889   3.951  12.771   0.482  0.1152  0.0096  0.0980
 8756W        W24890  17.104  18.306   4.741 -0.0696 -0.1274 -0.1706
 8757W        W24891   5.354  11.591  11.694 -0.2431  0.1300 -0.1132
 8758W        W24892  10.776   0.088  10.647 -0.1418 -0.1463  0.3164
 8759W        W24893   3.213   4.070  10.529 -0.2630 -0.0139  0.2314
 8760W        W24894  15.171   0.005  12.661  0.0944  0.0508 -0.0885
 8761W        W24895   3.300   1.803  11.230 -0.0859 -0.1467  0.0467
 8762W        W24896  15.314   7.540   3.329  0.1360  0.0423  0.1241
 8763W        W24897  10.945  15.958   2.533  0.1026  0.1062 -0.0858
 8764W        W24898  11.384  18.324   2.884  0.1231  0.3588 -0.0496
 8765W        W24899   0.300  17.377   2.287  0.0382  0.0619 -0.1259
 8766W        W24900   7.487  11.656  14.635 -0.1588 -0.0417 -0.1061
 8767W        W24901   4.920  12.166  12.683 -0.1367 -0.0002  0.0166
 8768W        W24902  11.590  13.304   1.277  0.0950 -0.0214 -0.2255
 8769W        W24903   0.381   7.318   4.656 -0.1988 -0.2525  0.0465
 8770W        W24904  10.331  13.010  10.883  0.2456  0.0032  0.0624
 8771W        W24905  12.665   4.524   0.372  0.1443 -0.0515 -0.2324
 8772W        W24906   4.448   7.727  14.782 -0.1056 -0.1292  0.3266
 8773W        W24907   5.855  10.171   2.331 -0.1104  0.0877  0.1631
 8774W        W24908  14.677  14.808  12.839  0.0440  0.4098 -0.3860
 8775W        W24909  12.284   4.459  13.137 -0.0870 -0.2304  0.1169
 8776W        W24910  15.641   2.039  13.679  0.2835 -0.3168  0.1539
 8777W        W24911   3.439  15.304   3.669 -0.0980  0.0262 -0.1450
 8778W        W24912  13.963   0.081  14.291  0.2614  0.0891 -0.2510
 8779W        W24913   8.851  12.033   4.015 -0.0615  0.0043 -0.1664
 8780W        W24914   7.832  12.151  11.085  0.0562  0.3211  0.0587
 8781W        W24915   6.488  17.996  13.371  0.0641 -0.1028 -0.4886
 8782W        W24916  18.301   8.805  11.936  0.0187 -0.1652 -0.2685
 8783W        W24917  11.489   7.023   4.524  0.1129  0.1302  0.2136
 8784W        W24918   6.867   5.235   0.383  0.1174  0.1695  0.0851
 8785W        W24919   1.074   0.856   0.940 -0.0382  0.0101 -0.1803
 8786W        W24920  17.737  18.160  11.019  0.1927 -0.1241  0.0603
 8787W        W24921   6.369   2.926   2.426 -0.1136  0.0705 -0.1090
 8788W        W24922  16.907   4.169  13.377 -0.0734  0.4231 -0.1358
 8789W        W24923  12.477  18.285   2.558 -0.5037  0.0096 -0.1781
 8790W        W24924   2.066   7.611   1.839  0.2408  0.4350  0.2130
 8791W        W24925   4.163  11.179   2.451 -0.1916 -0.3547  0.1863
 8792W        W24926   2.188   4.731   0.310 -0.1904 -0.1895  0.0802
 8793W        W24927  15.073  14.592  14.366 -0.3157  0.1174  0.1911
 8794W        W24928  15.021   7.965   4.676 -0.0645 -0.2271 -0.0263
 8795W        W24929   2.276  12.134  14.356 -0.3587  0.1603 -0.0488
 8796W        W24930   2.286   7.593   3.372  0.1765  0.0166 -0.0430
 8797W        W24931  12.470  15.010   0.754  0.0941  0.2105  0.2891
 8798W        W24932   2.068  13.993  13.736  0.4271 -0.3866  0.2234
 8799W        W24933  15.369   4.251  11.782 -0.0141 -0.1694  0.1397
 8800W        W24934   4.861  18.923  13.535  0.1319 -0.0321  0.0183
 8801W        W24935   3.879   9.379  10.671 -0.0574 -0.0096  0.0724
 8802W        W24936  12.145   8.226  13.514 -0.0146  0.2212  0.2249
 8803W        W24937   1.717  12.504   1.030 -0.0187 -0.5208  0.1067
 8804W        W24938  13.508   9.388   3.624 -0.0787  0.1236  0.1235
 8805W        W24939   2.713   2.085   3.743 -0.0909 -0.3768  0.2895
 8806W        W24940   8.821   4.201   4.750 -0.1863  0.0878 -0.3449
 8807W        W24941  13.901  10.946   1.576 -0.3188 -0.0163  0.1175
 8808W        W24942  15.940   8.801  10.565 -0.1199 -0.1343 -0.0764
 8809W        W24943  14.610   7.012  14.769 -0.1209  0.2601  0.0195
 8810W        W24944   0.344  10.681   1.863 -0.2414  0.0610  0.0154
 8811W        W24945   1.622  16.126   3.160  0.1289 -0.2376 -0.1349
 8812W        W24946   2.351  18.798   1.656 -0.2253  0.3602 -0.0522
 8813W        W24947   5.722   1.380  13.678  0.2289 -0.1270 -0.0237
 8814W        W24948   4.729  15.826   2.020  0.0421  0.2864  0.1325
 8815W        W24949  18.936  11.673  12.156  0.0440 -0.1672 -0.2766
 8816W        W24950  10.180   8.056   3.984 -0.2643 -0.2303 -0.0561
 8817W        W24951  14.257   7.071   4.102 -0.1014 -0.0868  0.0755
 8818W        W24952   9.208  16.194   5.380  0.0905  0.1392  0.1722
 8819W        W24953   0.568   7.156  14.276  0.0327  0.1482 -0.4676
 8820W        W24954  10.853   1.918  14.181  0.2304 -0.5566  0.1046
 8821W        W24955   2.689   5.568   0.541  0.1513 -0.1780 -0.0635
 8822W        W24956  12.794  11.206  13.490  0.1747 -0.0080 -0.3433
 8823W        W24957  13.797   4.304  11.227 -0.1154  0.4018 -0.1513
 8824W        W24958  15.863  15.342  15.014  0.0976  0.1040  0.3816
 8825W        W24959  13.940   2.105  13.489 -0.0327  0.3870 -0.0641
 8826W        W24960  15.064   9.706   2.772  0.2426  0.1531  0.0321
 8827W        W24961  16.300   4.408  13.867 -0.2436  0.2355 -0.0109
 8828W        W24962   0.340   5.167  15.024 -0.2279 -0.1363 -0.2023
 8829W        W24963   1.168  11.425  13.554 -0.1492  0.2576 -0.1042
 8830W        W24964  18.328  15.364   2.710 -0.0313 -0.2752  0.0920
 8831W        W24965  15.848  14.620   0.956  0.1926  0.3657  0.1886
 8832W        W24966  19.092   6.576   3.073  0.1549  0.4493 -0.0092
 8833W        W24967  11.957  17.728  12.702 -0.2257 -0.4249  0.1326
 8834W        W24968   1.369   9.607  10.642 -0.2522  0.2966 -0.0750
 8835W        W24969   6.996   4.792   5.154 -0.2305  0.1707 -0.0848
 8836W        W24970   6.336  12.302   0.911 -0.2095  0.1498 -0.2014
 8837W        W24971  10.996  17.484   0.262 -0.3197 -0.1826  0.1329
 8838W        W24972   1.157   3.101  10.880  0.2796 -0.0584  0.0296
 8839W        W24973   9.990  17.836   2.365  0.3716  0.0281 -0.0381
 8840W        W24974   2.179   0.028  13.734 -0.0520  0.0513  0.0052
 8841W        W24975   8.207   1.515  11.968 -0.4126 -0.0566  0.1265
 8842W        W24976  10.927   7.295  12.054  0.0412 -0.0042 -0.0032
 8843W        W24977   1.460  15.294   5.745  0.0857  0.2852  0.0145
 8844W        W24978  14.927  10.187  14.246 -0.0981 -0.1456  0.3814
 8845W        W24979   4.143   2.921   1.834  0.1944 -0.0312 -0.0651
 8846W        W24980  17.287   2.223   0.093  0.2316 -0.2626  0.0909
 8847W        W24981   3.356   9.620   1.161 -0.0721 -0.0946  0.1599
 8848W        W24982  11.546   6.074  14.440  0.3881  0.2286 -0.0060
 8849W        W24983  15.809   3.718   4.110 -0.2247  0.2492  0.1976
 8850W        W24984   3.656   6.509   0.205 -0.0168  0.1239  0.0301
 8851W        W24985   8.899  15.382   1.830  0.0844  0.1175  0.0567
 8852W        W24986   6.706   0.846   2.241 -0.0311 -0.2591 -0.0834
 8853W        W24987   6.621   6.465  14.036  0.2828 -0.1577 -0.0350
 8854W        W24988   3.422   5.381   0.994 -0.0235  0.1652 -0.2369
 8855W        W24989  11.595   3.506  14.519  0.1884 -0.3534 -0.0108
 8856W        W24990   8.832  13.867  12.837 -0.1697 -0.5098  0.2764
 8857W        W24991   4.298   2.786  13.252  0.1093  0.1063 -0.2188
 8858W        W24992   3.965   6.108   4.394 -0.1352 -0.2733 -0.3944
 8859W        W24993   0.789   6.952  13.284  0.1049 -0.0255 -0.1609
 8860W        W24994   6.496   2.454  14.151  0.1905 -0.0919  0.1815
 8861W        W24995   7.270   3.912   2.702 -0.3426 -0.2492 -0.1556
 8862W        W24996   1.808   0.935  12.104  0.0513  0.2190 -0.0078
 8863W        W24997  16.000   5.166  13.332 -0.0774 -0.2970  0.1201
 8864W        W24998   2.921  10.533   1.643 -0.0268  0.2871 -0.0087
 8865W        W24999  18.603  17.508  14.588 -0.1716 -0.2004  0.0502
 8866W        W25000  15.246   1.691   2.565 -0.0756 -0.0164 -0.2460
 8867W        W25001  10.875   9.276  15.043 -0.3956  0.1108 -0.1352
 8868W        W25002   8.103   4.985   3.097  0.1073  0.2054 -0.0357
 8869W        W25003   6.704   8.224   9.735  0.0605  0.0124  0.1727
 8870W        W25004  13.460   8.912   4.394  0.2365 -0.0899  0.3851
 8871W        W25005  14.351  18.858   1.758 -0.0396 -0.0765  0.0456
 8872W        W25006  13.442  12.248   2.768  0.2534  0.1209 -0.1369
 8873W        W25007   3.255   3.871  11.334  0.2376  0.0009 -0.1920
 8874W        W25008   8.032  14.084   3.490 -0.1934 -0.1471 -0.0271
 8875W        W25009   1.089   0.258  11.591  0.2302 -0.4160  0.0632
 8876W        W25010  17.409  18.439   5.577  0.2545  0.0505 -0.0374
 8877W        W25011   5.528   9.505  14.557  0.0148  0.1325 -0.1659
 8878W        W25012   8.465   8.191   3.495 -0.1879  0.1417  0.1659
 8879W        W25013  16.095   0.835   3.571  0.0182 -0.1951  0.1779
 8880W        W25014  12.796   2.826  11.660  0.0647 -0.2408 -0.0045
 8881W        W25015   5.837  11.799  11.543  0.0476 -0.1951  0.3379
 8882W        W25016   3.858   4.615  12.423 -0.0276 -0.1894 -0.0063
 8883W        W25017   3.727  16.246  10.620  0.2088 -0.2748 -0.0654
 8884W        W25018  12.070   1.354  14.549 -0.2389 -0.4030  0.0752
 8885W        W25019   1.056  14.851   2.724 -0.2692  0.0605  0.0946
 8886W        W25020   0.875   7.329   2.929 -0.1290 -0.1354 -0.0966
 8887W        W25021   2.600  13.429   0.226 -0.0341  0.0090 -0.1863
 8888W        W25022   4.530  12.527   2.466 -0.3784 -0.1350  0.0449
 8889W        W25023  10.190   0.186   1.568  0.1523 -0.1556  0.0063
 8890W        W25024   3.969  13.997  10.746 -0.1004 -0.1507 -0.1192
 8891W        W25025  10.262   1.928  14.047 -0.2329  0.0456  0.0436
 8892W        W25026   0.814   8.491   0.738  0.1674 -0.2010  0.0330
 8893W        W25027   0.352   4.312   4.192 -0.2511 -0.0453  0.2189
 8894W        W25028  14.804   1.255   1.172 -0.0976 -0.0772 -0.2066
 8895W        W25029   1.634   8.507   5.269 -0.2735  0.0779  0.0786
 8896W        W25030  12.909  17.050  11.154  0.1473 -0.1322 -0.1107
 8897W        W25031  14.283  12.159  12.861  0.0920  0.1205  0.1821
 8898W        W25032  18.380  15.857  14.105  0.1124  0.1059  0.1314
 8899W        W25033  12.235   4.950  12.529 -0.3676 -0.1551 -0.1453
 8900W        W25034  13.080   5.137  15.082  0.0605  0.0871  0.1898
 8901W        W25035   2.226   9.506   3.439  0.0682  0.1641  0.0220
 8902W        W25036  16.201  14.387  13.079 -0.0270 -0.0868 -0.2142
 8903W        W25037   3.988   4.741   3.161 -0.1657  0.1143 -0.0855
 8904W        W25038   4.110   2.788  11.348  0.0731 -0.0989 -0.1160
 8905W        W25039   9.362   8.533  11.388  0.0694  0.0233 -0.0568
 8906W        W25040  16.660   5.682  12.267  0.0947 -0.1537 -0.0651
 8907W        W25041  10.413  15.977  13.246  0.0722  0.1169  0.0494
 8908W        W25042  10.394   1.106   4.381 -0.1651 -0.3970  0.0246
 8909W        W25043   7.140  17.417   5.088  0.4073 -0.3136 -0.1268
 8910W        W25044   1.639   6.318  12.821 -0.0115  0.0380 -0.1738
 8911W        W25045  10.922  16.811   0.702 -0.0497  0.5172  0.3150
 8912W        W25046   0.744   5.381   1.180  0.0907  0.1979 -0.1328
 8913W        W25047   2.138   6.615   4.037 -0.3006  0.4458 -0.0354
 8914W        W25048  10.001   5.352   2.405 -0.1352  0.1070 -0.1930
 8915W        W25049   8.187   8.143  15.037  0.2838  0.4451  0.2983
 8916W        W25050  13.111  10.761   4.189  0.2126 -0.0291 -0.0757
 8917W        W25051  15.992   4.458   1.678 -0.0894  0.0570 -0.0583
 8918W        W25052   0.394   4.069  11.244 -0.0888 -0.0938 -0.2448
 8919W        W25053   3.980  12.623  12.931 -0.0304  0.0655  0.1331
 8920W        W25054   1.790  12.180  11.365 -0.2303  0.1720 -0.0102
 8921W        W25055  11.269   2.732   4.051  0.1616 -0.1833 -0.2275
 8922W        W25056   8.170  18.204   4.371  0.3587  0.1344 -0.0498
 8923W        W25057   9.252  16.040   4.904 -0.1100  0.0590  0.2396
 8924W        W25058  10.869   0.882   1.471  0.4146 -0.0319  0.0871
 8925W        W25059   6.801   7.877  14.016  0.1824  0.0233  0.1518
 8926W        W25060  10.594  12.006   3.775  0.2770 -0.2009 -0.1478
 8927W        W25061   4.792   0.002   2.474  0.2227 -0.0550  0.1153
 8928W        W25062  18.028  13.906  15.039 -0.0121 -0.2121  0.3404
 8929W        W25063  16.983  12.354  13.712  0.1825 -0.1846 -0.0087
 8930W        W25064  12.353   4.692   2.028  0.0026 -0.0707  0.0778
 8931W        W25065  12.923  17.115   9.769 -0.2150 -0.1241 -0.0122
 8932W        W25066  15.928   7.705   2.020  0.0484  0.0531 -0.2384
 8933W        W25067  16.917  17.493  14.312  0.3679 -0.1431 -0.1903
 8934W        W25068   2.863  18.857   3.593  0.2326 -0.0527  0.0737
 8935W        W25069  17.689  13.125  15.144 -0.0704 -0.1804  0.1479
 8936W        W25070  18.296   5.716   1.699  0.2430  0.1193 -0.1807
 8937W        W25071  13.741   4.015   1.410 -0.3045 -0.1537 -0.2021
 8938W        W25072   8.336  11.432  15.180 -0.2463  0.0898  0.0192
 8939W        W25073  12.378  15.021   2.280 -0.3778  0.1191 -0.0162
 8940W        W25074  19.067  16.335  13.768 -0.0208  0.1214 -0.1081
 8941W        W25075   1.558   0.133   2.739  0.0316 -0.2117  0.1538
 8942W        W25076   4.586  10.531   2.047  0.3851  0.3122  0.2789
 8943W        W25077  11.921   3.264   0.882  0.0500 -0.0058 -0.1635
 8944W        W25078   9.059  11.787  15.047  0.0344  0.3237 -0.1463
 8945W        W25079   1.622  17.777   3.155 -0.1498 -0.1469 -0.2196
 8946W        W25080  18.092  12.153  11.973  0.1191 -0.0108  0.1106
 8947W        W25081   1.272  12.968  14.271  0.2256 -0.2292 -0.2519
 8948W        W25082   8.229   5.294  13.590 -0.0308 -0.3052  0.0758
 8949W        W25083  18.993  14.635  13.571 -0.1747 -0.0266 -0.0953
 8950W        W25084  13.666   1.170   4.916  0.2535  0.2023  0.2543
 8951W        W25085  18.460  11.351   4.769 -0.0281  0.0707  0.5366
 8952W        W25086  13.823   3.662  13.602 -0.0619 -0.0496 -0.1017
 8953W        W25087  16.308  17.083   4.406  0.2023 -0.0401  0.1291
 8954W        W25088   9.836  15.692   4.232 -0.0530  0.2375 -0.0318
 8955W        W25089  14.552   7.638   1.191 -0.2919 -0.0926 -0.3560
 8956W        W25090   1.462   3.698  12.366 -0.0925  0.0619  0.1724
 8957W        W25091   9.289   6.948  12.406 -0.3086 -0.3770 -0.1811
 8958W        W25092  11.757   4.499  11.675  0.0199  0.3382 -0.0970
 8959W        W25093   3.062   1.765   3.770 -0.0176  0.0521 -0.0620
 8960W        W25094   8.975   1.373   2.617 -0.1583  0.1990  0.0950
 8961W        W25095  11.133  11.931  11.308 -0.4075  0.0913 -0.4572
 8962W        W25096  10.585   9.149   2.887 -0.2116 -0.0095  0.0924
 8963W        W25097   7.240  11.730   1.270  0.1957  0.1698 -0.0311
 8964W        W25098   6.350  19.041   1.182 -0.0999 -0.2590  0.0194
 8965W        W25099   7.909   0.164   0.566  0.0778 -0.1908  0.2042
 8966W        W25100  18.062  19.036   0.433 -0.0568 -0.1189  0.0438
 8967W        W25101  15.643  16.758  13.642 -0.1187 -0.1243  0.0027
 8968W        W25102  17.875  12.923   1.987  0.4536 -0.2999  0.0123
 8969W        W25103  13.727   7.879   2.618 -0.0108 -0.0030 -0.2730
 8970W        W25104  12.434  17.108   3.639  0.5719 -0.5392  0.0752
 8971W        W25105  18.791   1.082   2.055  0.2579  0.1133 -0.1942
 8972W        W25106   2.651  18.727  12.949 -0.2196  0.2576  0.1125
 8973W        W25107   1.807   2.672  13.102 -0.1679  0.1644  0.0181
 8974W        W25108  11.054  14.843  11.675  0.3319  0.2121  0.0276
 8975W        W25109   2.828  10.047  11.814  0.0804  0.3240 -0.1400
 8976W        W25110  14.038   6.453   4.710  0.0658 -0.3532  0.3716
 8977W        W25111  14.952   8.340   3.429 -0.1082 -0.1460  0.0747
 8978W        W25112   8.921   8.651   5.604  0.2102  0.0172 -0.2018
 8979W        W25113   2.830   7.821  10.453  0.1262 -0.0458  0.1915
 8980W        W25114   5.721   9.183  14.926 -0.0904  0.0332  0.1678
 8981W        W25115   2.291  11.514   4.085  0.2238 -0.1333  0.1394
 8982W        W25116  14.878  16.337  15.105  0.2951  0.0899 -0.0761
 8983W        W25117   9.524  16.791   2.990 -0.1384  0.0026  0.4231
 8984W        W25118   6.883  17.414   0.771 -0.0199 -0.3717 -0.1203
 8985W        W25119  14.025  16.755   3.156 -0.2027 -0.2431 -0.3449
 8986W        W25120  12.079   0.256   4.587 -0.0776  0.3225  0.0098
 8987W        W25121   4.211   9.156   3.635  0.2719 -0.3856 -0.0940
 8988W        W25122  18.875   9.854  11.110 -0.1426  0.2760 -0.0414
 8989W        W25123  16.818   7.224   4.309  0.2815  0.0394 -0.1508
 8990W        W25124   5.821  15.024  11.947  0.3598  0.1770  0.3545
 8991W        W25125   9.950   4.383  14.990  0.3948  0.0661 -0.2158
 8992W        W25126  12.234   5.685  14.967 -0.0697 -0.0605 -0.0351
 8993W        W25127  15.603   2.553  13.926  0.1933  0.2518  0.0227
 8994W        W25128   0.513  17.241   1.472 -0.0143  0.0599 -0.0504
 8995W        W25129   0.281  15.409  10.578  0.1928 -0.3375 -0.1314
 8996W        W25130  15.063   0.647   1.931 -0.1876  0.1094  0.1018
 8997W        W25131   1.769   6.643  12.384 -0.2325  0.0594 -0.1948
 8998W        W25132  16.839  10.376  15.041 -0.0434 -0.1237 -0.1671
 8999W        W25133  12.094   7.418  14.837 -0.2853 -0.1074  0.0194
 9000W        W25134   2.050  18.836   1.198 -0.0005  0.2787 -0.0489
 9001W        W25135  12.991  13.465   5.219  0.4257 -0.1285 -0.2793
 9002W        W25136   7.491   3.772   3.479  0.0322  0.1501  0.1803
 9003W        W25137   0.397  18.643   0.366  0.2157  0.1066  0.2711
 9004W        W25138  17.051   1.562   3.243 -0.0005 -0.2751  0.0612
 9005W        W25139   6.882  10.079  12.525 -0.1271 -0.0719  0.1258
 9006W        W25140   3.750   5.151  12.537 -0.2748  0.3243  0.3677
 9007W        W25141   2.872  15.596  12.481  0.2492  0.2479 -0.1435
 9008W        W25142  11.933   5.285  12.784 -0.0186 -0.0007 -0.0860
 9009W        W25143   6.393   9.156   3.686  0.1776 -0.1308  0.0277
 9010W        W25144   3.140  17.657  14.889 -0.1314  0.0855 -0.0071
 9011W        W25145  13.389   9.103  10.896 -0.3374 -0.0450  0.6538
 9012W        W25146  14.864   4.649   3.385 -0.0956 -0.0466  0.3744
 9013W        W25147   2.283  17.803   2.846  0.2680  0.0581 -0.0290
 9014W        W25148   2.272  10.032  10.624 -0.2419 -0.1092 -0.4737
 9015W        W25149   2.775  15.279  14.287  0.1062 -0.1939 -0.1886
 9016W        W25150  11.186  19.066   3.215 -0.3050 -0.0742 -0.3105
 9017W        W25151  11.372   3.911   0.319  0.2695 -0.1018 -0.0961
 9018W        W25152   7.870   2.166   5.332 -0.0960 -0.1928  0.0641
 9019W        W25153   9.554  12.315   2.107  0.2139 -0.3206 -0.1395
 9020W        W25154   0.963  10.974   0.947 -0.1734  0.0914  0.0440
 9021W        W25155  11.683  13.302  12.274 -0.2430 -0.2783  0.0673
 9022W        W25156  13.511  13.663  14.623  0.2099 -0.0472 -0.1463
 9023W        W25157  16.099  14.685   2.562 -0.1252  0.1851 -0.1333
 9024W        W25158  15.630   8.560  14.644  0.0061 -0.0472  0.1912
 9025W        W25159  13.126   8.750   0.892  0.0620 -0.0235  0.2264
 9026W        W25160   9.169   0.110  14.831 -0.1221 -0.1737  0.0237
 9027W        W25161  13.583  10.534  14.203 -0.0190  0.0197  0.2389
 9028W        W25162   5.774   5.575   4.618  0.0472 -0.0003  0.0015
 9029W        W25163  10.016  15.071  14.681  0.1057  0.3655 -0.2536
 9030W        W25164   4.534  17.400   5.224  0.0783 -0.0866 -0.1243
 9031W        W25165   2.565   1.575   0.171 -0.2436 -0.0577  0.1620
 9032W        W25166  18.845  14.125  14.284  0.1594 -0.2043  0.0269
 9033W        W25167   7.107  18.479   2.622 -0.0470 -0.0595 -0.1573
 9034W        W25168  18.417   7.903   9.231 -0.1229 -0.1808  0.1467
 9035W        W25169   6.656   7.766   5.591  0.2950 -0.3127 -0.1505
 9036W        W25170  12.583  13.777   1.984  0.2693  0.0912  0.2142
 9037W        W25171   1.170  16.609   5.023 -0.2768 -0.0885  0.0849
 9038W        W25172  17.676  18.529  13.629  0.1281  0.2647  0.2895
 9039W        W25173  12.564   0.469   1.771 -0.0408 -0.1068  0.3931
 9040W        W25174   7.432   5.254  14.859 -0.1374 -0.0075 -0.0573
 9041W        W25175  17.799  14.856   3.805  0.1762  0.0981 -0.0512
 9042W        W25176   5.211  14.685   1.755 -0.0379  0.2080 -0.0359
 9043W        W25177   7.963   4.803  14.353  0.0593  0.0147 -0.4259
 9044W        W25178   4.000   2.815  11.905  0.2140 -0.1549  0.0070
 9045W        W25179   2.537   3.298  10.584  0.0197 -0.2017 -0.0826
 9046W        W25180  15.381  10.687   2.632 -0.1603 -0.2164 -0.0773
 9047W        W25181   5.730   0.613  13.175  0.2699 -0.0279 -0.1397
 9048W        W25182   2.331  13.499   2.989  0.1483 -0.1613  0.4136
 9049W        W25183   7.226   9.346  14.424  0.2140  0.1809 -0.1130
 9050W        W25184  17.129   0.126   4.436  0.0839 -0.2884  0.1185
 9051W        W25185  11.543  15.234  14.021  0.0391  0.3185  0.4042
 9052W        W25186   6.888   5.448   4.405  0.1305  0.0383 -0.3033
 9053W        W25187  18.903  11.912  11.156  0.2598  0.0555 -0.1974
 9054W        W25188  15.811   0.014   4.108 -0.3885 -0.2661 -0.0278
 9055W        W25189   2.092   1.881   4.422  0.0601 -0.0972  0.1455
 9056W        W25190  17.858   6.470   2.779  0.0310 -0.1347  0.0052
 9057W        W25191   5.546  15.994  14.742 -0.3329 -0.2927 -0.1064
 9058W        W25192   8.033   8.230   1.363 -0.0928 -0.0883 -0.0122
 9059W        W25193  16.913  11.097   3.396 -0.0400  0.2974  0.1728
 9060W        W25194  13.014   2.840  15.123 -0.3382  0.2634 -0.0076
 9061W        W25195  18.468  14.255   3.008 -0.0722  0.0871  0.0771
 9062W        W25196   9.195  16.041  10.808  0.2427  0.3374  0.0311
 9063W        W25197   2.944  18.905   2.547  0.3338  0.3490 -0.0776
 9064W        W25198   9.972   5.155  13.160  0.0529  0.1064  0.0438
 9065W        W25199   9.084   7.073   0.212 -0.0311  0.1513 -0.2738
 9066W        W25200   2.030  12.930  11.497  0.1539  0.0704  0.1074
 9067W        W25201   6.396   0.055  11.717 -0.0007  0.2537 -0.3841
 9068W        W25202   5.182  16.432  15.165  0.1691 -0.1986  0.2461
 9069W        W25203  16.587   1.113   3.274 -0.3751 -0.1210 -0.1850
 9070W        W25204   4.049   7.836   3.005 -0.2265 -0.0431 -0.1718
 9071W        W25205  11.961  12.444   1.148 -0.1353  0.0908  0.0689
 9072W        W25206   7.801  15.030   2.102  0.0697 -0.0336 -0.0025
 9073W        W25207  14.266  12.944  12.629  0.0306 -0.3325 -0.3054
 9074W        W25208  14.781  10.053   0.405  0.2632  0.3349  0.1802
 9075W        W25209  14.004   5.050   0.162  0.0807 -0.3712 -0.2139
 9076W        W25210  18.073   0.545  12.896 -0.1477  0.2081  0.0188
 9077W        W25211  13.428  15.674  11.913  0.2055  0.3007  0.1322
 9078W        W25212  12.357   6.581   2.613  0.0812 -0.0652  0.0989
 9079W        W25213   1.299   2.259   1.602 -0.0147  0.1061  0.4972
 9080W        W25214  11.308  16.128   3.972 -0.1277 -0.1672  0.1013
 9081W        W25215  14.434   5.961   3.024 -0.3157 -0.2626  0.4201
 9082W        W25216  12.577  14.206   2.344  0.2850  0.0763  0.3013
 9083W        W25217  17.984  12.124   3.860 -0.1498 -0.0439  0.4385
 9084W        W25218  15.789  14.607   3.738 -0.0953 -0.1161  0.2368
 9085W        W25219  10.298   7.408  14.985 -0.0748 -0.2479  0.2402
 9086W        W25220   5.455  11.314  13.963  0.2413 -0.2370  0.0675
 9087W        W25221  16.804   9.398  14.609  0.1011  0.0661  0.4631
 9088W        W25222   1.896   4.847   1.211  0.3399 -0.1751  0.0898
 9089W        W25223   5.214  12.775   2.355  0.0275  0.5790 -0.1595
 9090W        W25224  10.812  11.957   4.440 -0.0242  0.0494  0.1141
 9091W        W25225   3.562   0.035  11.599 -0.1213 -0.0340 -0.0146
 9092W        W25226  14.913   5.655   3.232 -0.1627 -0.2123 -0.0385
 9093W        W25227   1.631   7.218   4.665 -0.1490  0.2137 -0.2005
 9094W        W25228  14.229   2.314  14.570 -0.1879  0.0667 -0.0561
 9095W        W25229  11.987   3.276   3.883  0.3095 -0.2073 -0.3564
 9096W        W25230   7.360  17.546  13.159  0.1134  0.1371  0.2050
 9097W        W25231   4.974  17.669  14.809  0.2007 -0.1481 -0.1573
 9098W        W25232   9.663  16.102   5.245  0.0823 -0.1538 -0.1055
 9099W        W25233  15.416  11.686  11.008  0.1955 -0.0466 -0.1615
 9100W        W25234  13.738  16.796   3.608  0.0477 -0.0401  0.0907
 9101W        W25235   5.838  16.500  11.991  0.1053  0.0767 -0.2222
 9102W        W25236   4.592  12.033  11.044 -0.3331 -0.3184 -0.1766
 9103W        W25237   6.690  18.250  12.311  0.2713  0.1478 -0.2481
 9104W        W25238   3.664  12.441  11.161  0.0276 -0.0658 -0.3177
 9105W        W25239  18.282   0.344   0.036 -0.1850  0.1453 -0.4897
 9106W        W25240  14.201  18.889   0.932 -0.1662  0.0007  0.2558
 9107W        W25241  17.951   1.958  12.990  0.1263  0.0797  0.1625
 9108W        W25242   6.506   6.830  10.648 -0.0297 -0.2362  0.1537
 9109W        W25243  12.899   4.264   2.425  0.1192  0.0848 -0.1744
 9110W        W25244   4.446  15.900   3.251 -0.0590 -0.1791  0.1389
 9111W        W25245  10.047   2.570  12.337  0.0794 -0.1224 -0.0803
 9112W        W25246  10.795   6.183   4.222  0.4468  0.1239 -0.0787
 9113W        W25247  13.618  14.330   3.340 -0.2381  0.0635  0.0733
 9114W        W25248  11.962  10.752  11.558  0.1925  0.3629  0.2725
 9115W        W25249   5.581  14.371   5.450  0.1811  0.3831  0.2080
 9116W        W25250   3.577   6.531   4.580  0.0636  0.3665  0.0887
 9117W        W25251  15.581   5.907   0.796 -0.1310 -0.0259  0.4773
 9118W        W25252   4.409  18.207   0.124  0.0133  0.3818  0.1006
 9119W        W25253   5.521   4.595   2.657  0.1495  0.2487 -0.0194
 9120W        W25254   1.993   1.458  10.733 -0.1825 -0.2725 -0.3473
 9121W        W25255  18.082  10.596  11.592 -0.1313  0.2015  0.2076
 9122W        W25256  17.074  17.036   3.811 -0.0201 -0.2388  0.0353
 9123W        W25257   2.908   3.395  13.682 -0.1679  0.0391 -0.2742
 9124W        W25258   2.948   9.638   2.036 -0.0350  0.2436 -0.1544
 9125W        W25259   7.182   6.658  12.974  0.0898 -0.1713 -0.1380
 9126W        W25260  18.411   0.741   4.568  0.0241  0.0014  0.4321
 9127W        W25261   4.807  14.196   4.684  0.0175 -0.0293  0.0883
 9128W        W25262   2.076   9.371  10.017  0.0210 -0.2016  0.2134
 9129W        W25263   2.657  12.572   2.809 -0.1785 -0.0101 -0.0040
 9130W        W25264   9.772  11.189   0.921  0.1212  0.3124  0.3025
 9131W        W25265  16.310  12.384   4.858  0.1177 -0.0788 -0.0321
 9132W        W25266   2.660   2.549  14.794 -0.0684 -0.1023  0.3707
 9133W        W25267  15.504  15.031   0.008  0.0620 -0.1258  0.1362
 9134W        W25268   6.551   6.680   2.902 -0.0058 -0.0988 -0.0339
 9135W        W25269  14.627  10.897  14.522 -0.1663 -0.0631  0.2089
 9136W        W25270  17.886  14.507   5.299 -0.0715  0.0164 -0.1588
 9137W        W25271  13.301   6.370  15.204  0.1797 -0.1880  0.0377
 9138W        W25272  13.462  11.328  11.228  0.1742  0.2089 -0.0376
 9139W        W25273  17.147   0.543   2.263  0.2824  0.1069  0.2213
 9140W        W25274   2.201   7.741  13.862  0.2720  0.0509  0.0716
 9141W        W25275  14.846   1.912  11.933 -0.0428 -0.1339  0.0757
 9142W        W25276  11.594   2.289   0.937  0.1553  0.3292  0.2167
 9143W        W25277  15.659   6.764  10.960 -0.1343 -0.1065  0.1088
 9144W        W25278   3.936  14.211  13.235  0.1257  0.0425 -0.2825
 9145W        W25279  11.163   6.394  14.577 -0.3533  0.0850 -0.2512
 9146W        W25280   5.899   6.914  13.481 -0.3608  0.0802 -0.1589
 9147W        W25281   4.125  13.253   2.971  0.0871 -0.1543 -0.2122
 9148W        W25282   6.553   6.887  14.979  0.0069  0.1516 -0.1217
 9149W        W25283   0.979   5.263   2.460 -0.0406 -0.0303  0.2862
 9150W        W25284   6.738   1.886   1.567 -0.4570  0.1244 -0.0814
 9151W        W25285  17.515   9.556  13.768 -0.1585 -0.1462 -0.3184
 9152W        W25286   9.900   7.100  14.915 -0.2389  0.1908  0.1561
 9153W        W25287   3.374  12.717  15.103  0.3379  0.1839 -0.1373
 9154W        W25288   3.376   3.663  14.153 -0.1156  0.1218  0.1284
 9155W        W25289  13.640   4.669   2.101 -0.1784  0.0229  0.0208
 9156W        W25290  12.637   6.576  12.460 -0.2544  0.0543  0.2353
 9157W        W25291  14.438  15.295   1.485  0.0453  0.0474 -0.1252
 9158W        W25292  18.230  12.717   0.655  0.1140 -0.3663 -0.1988
 9159W        W25293   6.080   3.526  10.810  0.0055 -0.2294 -0.0341
 9160W        W25294  15.439   4.637   1.429  0.2016 -0.3803 -0.2392
 9161W        W25295  17.944   7.928   4.388  0.2180  0.1137 -0.0861
 9162W        W25296   3.059   2.260  14.983 -0.3445  0.0101 -0.2299
 9163W        W25297   9.182   1.145   5.788 -0.0375  0.0243 -0.4437
 9164W        W25298  17.024  16.359  14.772 -0.1667  0.1869  0.0302
 9165W        W25299  13.295   5.103  13.808 -0.2407 -0.0700 -0.2022
 9166W        W25300  13.264   2.534  13.622  0.0669  0.2869  0.1582
 9167W        W25301   0.881   3.087  12.189 -0.2251  0.0280 -0.2415
 9168W        W25302  10.302   5.230  14.764  0.1416  0.2361  0.1687
 9169W        W25303  17.730   7.862  13.893  0.0120 -0.2294  0.2916
 9170W        W25304  15.032  11.148  13.636  0.0296 -0.1827  0.0397
 9171W        W25305  12.851   0.038   5.616 -0.2029  0.1433 -0.0919
 9172W        W25306   4.751   1.259  14.047  0.0780  0.0868 -0.0413
 9173W        W25307   1.406  14.573  12.839 -0.0367 -0.1545 -0.3052
 9174W        W25308   8.170  18.766  13.560  0.0845 -0.0779  0.1093
 9175W        W25309   1.884  17.281  12.252  0.2691  0.1696  0.0736
 9176W        W25310   9.906  18.661  12.697 -0.3081 -0.0266 -0.1843
 9177W        W25311  14.089  17.319  10.246  0.1989  0.7039 -0.0702
 9178W        W25312  18.790   3.729   5.796 -0.0587  0.0251 -0.2513
 9179W        W25313  18.778   4.605   2.615  0.2551 -0.1647 -0.2943
 9180W        W25314  10.781  19.087   1.738  0.1715 -0.2926 -0.2425
 9181W        W25315  17.476  19.121  13.347  0.1969  0.1529 -0.1637
 9182W        W25316   0.158  11.687   4.361  0.0279  0.2885 -0.3774
 9183W        W25317   8.392  13.234  11.202  0.2244 -0.1652  0.1150
 9184W        W25318  18.925   7.152  13.598  0.4233  0.0771  0.1506
 9185W        W25319   8.198  16.084  11.224  0.1900 -0.1645 -0.1991
 9186W        W25320   3.300   8.010   0.148  0.3075 -0.1493  0.0010
 9187W        W25321  13.913   1.444  12.280  0.2831  0.4462  0.2318
 9188W        W25322   5.696   0.643  13.886  0.1020 -0.0138  0.0327
 9189W        W25323   5.456   1.327   0.754 -0.0801 -0.1326  0.1644
 9190W        W25324  14.057  10.404   0.609  0.0967  0.2677 -0.0829
 9191W        W25325   5.831   6.316   3.934 -0.2685 -0.1034 -0.0095
 9192W        W25326  16.864   3.753  12.988 -0.5609  0.3175 -0.0009
 9193W        W25327  13.631   0.241  13.344 -0.3183 -0.3191  0.0205
 9194W        W25328  12.606   0.945  11.598 -0.3874 -0.1289  0.2303
 9195W        W25329   7.869   2.903   4.033  0.0671 -0.1362  0.0159
 9196W        W25330   5.323   0.532   4.245  0.1144 -0.0582  0.1527
 9197W        W25331   0.821  17.047  10.360 -0.0415  0.5259 -0.0243
 9198W        W25332  14.618   1.425   0.214 -0.1603  0.3430  0.0960
 9199W        W25333   5.099  13.924  14.432  0.0833  0.0138 -0.1731
 9200W        W25334   7.263  11.002  12.680 -0.0273 -0.2402 -0.0367
 9201W        W25335  15.362  12.785  11.186 -0.0343 -0.1317 -0.1900
 9202W        W25336  18.246  11.453  11.725 -0.0531 -0.1353  0.1476
 9203W        W25337   6.927   2.823   1.158  0.1347  0.0856 -0.0574
 9204W        W25338  17.139  15.575  11.103  0.0437  0.0190 -0.3103
 9205W        W25339   4.091   6.501   3.972 -0.0495 -0.0701 -0.1069
 9206W        W25340  11.226   0.450   2.300  0.0646  0.2959 -0.0503
 9207W        W25341  10.356  12.970  12.810  0.2829 -0.0681 -0.0385
 9208W        W25342   8.353  18.293  12.940  0.1061  0.0736 -0.0279
 9209W        W25343   0.931   9.846   0.113 -0.1855 -0.0232  0.2929
 9210W        W25344   0.385   0.877   1.440 -0.0937 -0.0451 -0.2203
 9211W        W25345  15.116  10.902   1.298 -0.3190  0.1697 -0.2287
 9212W        W25346  18.718  13.677  14.929  0.1096 -0.1681 -0.2375
 9213W        W25347   3.382   3.614   0.949  0.5901 -0.2253 -0.2255
 9214W        W25348   9.362  12.367  13.709  0.2316  0.3854  0.2203
 9215W        W25349  14.369  17.320   1.708 -0.1781 -0.1393  0.1505
 9216W        W25350  14.105  13.268   3.973  0.1588 -0.3172  0.1530
 9217W        W25351   3.583  15.614   0.504 -0.0511 -0.4806 -0.4368
 9218W        W25352   3.117   5.375  14.366  0.1988 -0.0598 -0.1323
 9219W        W25353  15.269  16.993  13.855  0.1172  0.1331  0.0492
 9220W        W25354   5.310  13.381   2.882 -0.0928 -0.1673 -0.1139
 9221W        W25355  16.468   7.460   1.936  0.0983  0.3149  0.0008
 9222W        W25356   9.811  12.812  12.879  0.3108  0.0797  0.0141
 9223W        W25357  12.379   2.980   4.486  0.1903  0.5816  0.0534
 9224W        W25358  12.594  18.456   3.537 -0.2152 -0.2038 -0.1876
 9225W        W25359  11.480   3.213   9.851 -0.0871 -0.2000 -0.1750
 9226W        W25360  18.449  14.765   3.021  0.1451  0.1136 -0.1360
 9227W        W25361   7.947  12.635   9.889 -0.0937 -0.3532  0.0877
 9228W        W25362  15.769  13.885  11.285 -0.1462 -0.0448 -0.1797
 9229W        W25363  17.915   6.724  14.858 -0.2475  0.0443 -0.0399
 9230W        W25364  18.067   4.110   3.830  0.3395 -0.2424  0.0055
 9231W        W25365  16.698  15.863   1.765  0.3322 -0.3467  0.1237
 9232W        W25366   2.455   6.088  10.152 -0.3190 -0.1117  0.0011
 9233W        W25367   1.174  11.049   3.858 -0.1408  0.0065  0.2789
 9234W        W25368   4.906   2.613   2.178  0.2587  0.1597 -0.1956
 9235W        W25369  14.259   0.755  13.136 -0.0497 -0.1208 -0.0250
 9236W        W25370   6.567  11.485  12.950  0.1732  0.0109  0.0971
 9237W        W25371  11.060  11.217  12.111 -0.1977 -0.0437 -0.0902
 9238W        W25372   5.591   0.838   1.788  0.3146  0.2862  0.1854
 9239W        W25373  13.382   2.585   1.359 -0.2258 -0.0117 -0.2580
 9240W        W25374  10.810   9.698   3.774  0.1323  0.0636  0.0470
 9241W        W25375  16.671   2.762  14.718 -0.0595 -0.0483  0.1073
 9242W        W25376  15.606  11.891  10.630  0.0133 -0.0811 -0.0546
 9243W        W25377   2.906   8.515   0.658 -0.3311  0.3623  0.2929
 9244W        W25378   4.509  11.017  13.387 -0.1500 -0.0485  0.3010
 9245W        W25379   5.944   9.319   3.395 -0.1812  0.0408  0.1447
 9246W        W25380   5.801   9.456   1.119 -0.3933  0.2204 -0.3195
 9247W        W25381  17.841   5.295  10.294 -0.0855 -0.1579 -0.0348
 9248W        W25382   1.815   2.485  10.298 -0.1775  0.0060 -0.3405
 9249W        W25383   5.647  12.574  14.774 -0.0562  0.0578  0.1583
 9250W        W25384   7.374  16.600   0.548 -0.2076 -0.3329 -0.3259
 9251W        W25385  14.263   3.249   1.097  0.4406  0.0385  0.0793
 9252W        W25386  18.671   1.499   2.997 -0.1647 -0.0121  0.0090
 9253W        W25387   6.455   6.569  11.711 -0.0646 -0.1706 -0.0312
 9254W        W25388   6.141   2.159   2.221 -0.0895 -0.0875  0.0839
 9255W        W25389   8.066   3.303  11.664  0.0872  0.0853 -0.1616
 9256W        W25390   6.771   3.989  10.620 -0.3614  0.0559  0.1986
 9257W        W25391   5.699  16.280   1.632  0.0001 -0.0150 -0.1361
 9258W        W25392  15.629  12.272   0.270 -0.1550  0.0755  0.3848
 9259W        W25393  14.927   0.089  11.949  0.2279 -0.1580  0.0505
 9260W        W25394   1.740   3.737  14.346 -0.1258 -0.1136 -0.0818
 9261W        W25395   9.625   9.368   2.954 -0.0380  0.2418  0.4556
 9262W        W25396   5.349   0.438  13.627  0.3864 -0.1039 -0.1104
 9263W        W25397   2.573   8.441   3.537 -0.1004  0.1693 -0.0525
 9264W        W25398  12.969   0.272   0.500 -0.0434 -0.1133 -0.0082
 9265W        W25399   1.304   9.759   3.261 -0.0594 -0.1659 -0.2649
 9266W        W25400   9.195   2.025   4.276  0.0535  0.0335 -0.1556
 9267W        W25401   7.486   3.321   3.269  0.0572 -0.1181  0.0422
 9268W        W25402  11.540   2.881   1.568  0.3437 -0.2543 -0.0429
 9269W        W25403  14.484  15.782   2.615 -0.0255  0.1419  0.1128
 9270W        W25404  14.848  18.124  11.177  0.5186  0.4552  0.0857
 9271W        W25405  11.511  11.591  11.297  0.3099 -0.0944  0.1935
 9272W        W25406  13.875   2.287   0.739  0.0843  0.0981  0.1209
 9273W        W25407   2.977   2.428   1.877  0.0888  0.2499  0.0206
 9274W        W25408  13.808  18.770   4.359  0.1988  0.0560 -0.0997
 9275W        W25409  18.508   0.414  12.676  0.1871 -0.1095  0.2846
 9276W        W25410   5.109  12.101  13.530 -0.2817  0.3246  0.0893
 9277W        W25411   8.705  11.111   0.320  0.0316  0.1009  0.1890
 9278W        W25412  12.621   2.225   5.348 -0.1574 -0.1219  0.0972
 9279W        W25413  13.637   0.220   9.857 -0.1749 -0.3424  0.2081
 9280W        W25414   6.188  14.928  14.594 -0.2681 -0.1859 -0.0549
 9281W        W25415   4.471  13.602   2.124 -0.0394  0.0890 -0.0432
 9282W        W25416   6.552  11.031  11.018  0.1305  0.3633  0.1620
 9283W        W25417   2.696  14.043  13.601 -0.2018  0.2637 -0.0398
 9284W        W25418   3.968   5.106   4.346  0.2539  0.2450 -0.5525
 9285W        W25419   8.726  10.132  13.610 -0.2511 -0.0481  0.0400
 9286W        W25420  11.820   7.842   2.980 -0.0412 -0.2493 -0.0450
 9287W        W25421   1.028   3.816   5.573  0.0221  0.0471 -0.2049
 9288W        W25422   7.693   7.352  13.085  0.0434 -0.2109 -0.1000
 9289W        W25423  15.413   3.586   0.022 -0.0774  0.1319 -0.2659
 9290W        W25424  17.685   0.949  10.141  0.0528  0.4496 -0.2690
 9291W        W25425   8.933  15.498  13.962  0.2336  0.1529 -0.3406
 9292W        W25426  13.527  11.968  11.992 -0.1922 -0.0595  0.3747
 9293W        W25427  15.218   0.127   3.480 -0.1404  0.0945  0.1423
 9294W        W25428  17.623  19.019  12.482  0.0304 -0.0119  0.0575
 9295W        W25429   3.090   1.138   1.560  0.2034  0.1053  0.3111
 9296W        W25430  16.358   9.110   0.343  0.3375 -0.1158 -0.1049
 9297W        W25431  13.126   8.174   1.905  0.1651 -0.2241 -0.2001
 9298W        W25432   3.396   8.397  10.929 -0.3640  0.2217  0.2785
 9299W        W25433  12.232   2.575  13.487 -0.0444 -0.1401  0.0926
 9300W        W25434   6.613  11.323   4.786 -0.0952 -0.0885  0.0549
 9301W        W25435   2.497   8.617   9.511  0.2453  0.1557 -0.2935
 9302W        W25436   6.850  11.737   2.165 -0.2437 -0.0909  0.3163
 9303W        W25437   0.009  15.607  13.157 -0.0842  0.1338 -0.0441
 9304W        W25438  17.468   2.442  14.507 -0.2103 -0.4110  0.0100
 9305W        W25439  14.983   6.827  11.734 -0.2751 -0.0433 -0.1374
 9306W        W25440   1.298  12.421   5.257  0.0914  0.0937 -0.1660
 9307W        W25441   1.671   1.402   1.899 -0.0786 -0.1956  0.1623
 9308W        W25442   2.908   2.000  14.558  0.2048  0.1191 -0.2634
 9309W        W25443  18.603   4.911   2.308 -0.1743 -0.1623  0.1308
 9310W        W25444   2.731  15.539   4.755  0.0108  0.0667  0.3839
 9311W        W25445  11.243   2.895  10.954  0.0243 -0.2864 -0.0395
 9312W        W25446  16.720  11.043  12.236 -0.1550 -0.1988  0.1024
 9313W        W25447   1.331   4.355   4.102 -0.4701  0.0283  0.3834
 9314W        W25448  17.652  16.944  10.817 -0.1751 -0.1539 -0.0719
 9315W        W25449   9.316  13.293   4.757  0.4182  0.2029 -0.0788
 9316W        W25450   9.220  18.520   2.448 -0.1269 -0.1300  0.0204
 9317W        W25451   6.378   3.731  14.996 -0.2077 -0.2261  0.0566
 9318W        W25452  17.139   5.344   1.310  0.0588 -0.1642 -0.0358
 9319W        W25453  10.022  10.521  10.292 -0.0856 -0.2266 -0.1411
 9320W        W25454   0.712  11.891  11.965  0.1968 -0.1129  0.1586
 9321W        W25455   0.607   0.639  14.131 -0.0526 -0.3280  0.2374
 9322W        W25456   4.651   3.113  14.393 -0.0583 -0.2406 -0.1501
 9323W        W25457  15.338  14.397   4.572  0.0080 -0.0265  0.0593
 9324W        W25458  11.002   1.991   4.725  0.0656 -0.3571 -0.1120
 9325W        W25459  12.771  10.858  12.479 -0.0635 -0.0260  0.1626
 9326W        W25460  15.096   4.686   4.283  0.0635 -0.0112  0.3835
 9327W        W25461  10.602   2.334   2.594 -0.4221 -0.0502 -0.0025
 9328W        W25462  10.929   0.520   1.107 -0.0321  0.0927  0.1294
 9329W        W25463  12.480  11.008  11.160 -0.0693 -0.0253 -0.0904
 9330W        W25464  12.211  14.819   4.355 -0.1598  0.0424 -0.0662
 9331W        W25465   9.708  10.273  12.003 -0.1176  0.0775 -0.1578
 9332W        W25466   4.874  10.504   9.743  0.0309  0.1776  0.4300
 9333W        W25467  14.231   7.443  10.693  0.1770 -0.3894 -0.0196
 9334W        W25468   3.970   3.857   4.037  0.2377 -0.0291  0.0883
 9335W        W25469  14.630   0.825   2.671  0.1925  0.0942  0.3098
 9336W        W25470   6.477   1.015  13.260  0.3729  0.2522 -0.3117
 9337W        W25471   2.464   3.711  12.547 -0.2457  0.2583 -0.3567
 9338W        W25472  18.960   2.139  13.714 -0.3497  0.2371  0.1524
 9339W        W25473   8.464   8.676   0.500 -0.1209  0.0260  0.1598
 9340W        W25474  15.080  10.470  13.292 -0.2592 -0.1053  0.0949
 9341W        W25475   4.000  14.254   1.822 -0.0015 -0.0052  0.1552
 9342W        W25476  17.222   0.719  14.003  0.1755 -0.2231  0.0587
 9343W        W25477   0.999  17.260   1.407 -0.1468  0.2612 -0.0246
 9344W        W25478  18.017  16.694  13.865 -0.2106 -0.3147  0.0769
 9345W        W25479   5.618   8.619   2.871 -0.2270  0.0024  0.1420
 9346W        W25480  14.027   0.223  14.741 -0.2246  0.1075  0.2248
 9347W        W25481   3.607   3.863  13.746  0.2678 -0.0251  0.1042
 9348W        W25482  14.991  10.079  13.611 -0.0420 -0.0100 -0.0654
 9349W        W25483  11.592  15.192   1.303  0.1097  0.0620 -0.1205
 9350W        W25484   5.345  12.004   3.947 -0.2122 -0.2824  0.0866
 9351W        W25485  15.469  14.388   1.205 -0.0805  0.0372 -0.7319
 9352W        W25486   8.322  11.434  13.821  0.1122  0.2698  0.0206
 9353W        W25487   1.935   6.642   0.309  0.2606 -0.1274  0.0527
 9354W        W25488   3.346   7.847  10.206  0.3534  0.0998 -0.1748
 9355W        W25489  14.847  10.481   3.191  0.0574 -0.0729 -0.2315
 9356W        W25490   0.779   9.189   2.626 -0.1756  0.1769 -0.2068
 9357W        W25491   2.559  12.887  12.635  0.0852 -0.2008  0.2324
 9358W        W25492  17.552  16.532  11.065  0.1974  0.0214 -0.0003
 9359W        W25493  15.398  17.660   1.086 -0.0160 -0.2119 -0.2577
 9360W        W25494   4.874  13.013  14.326  0.2735 -0.0976 -0.2215
 9361W        W25495   5.508   2.811  10.990  0.2585 -0.2654  0.2053
 9362W        W25496   0.026   9.108   9.997 -0.0739 -0.1417  0.1967
 9363W        W25497  17.860  17.751  15.060  0.2234 -0.3645 -0.2676
 9364W        W25498  16.781   5.134  12.520 -0.2365 -0.0123  0.2389
 9365W        W25499   1.546   5.999   1.726 -0.2614  0.1834  0.2615
 9366W        W25500  11.810   6.037   5.812 -0.0351  0.0652  0.3332
 9367W        W25501  12.067   0.545  12.168 -0.0080  0.1650 -0.0818
 9368W        W25502  12.428  14.912  13.456 -0.2320  0.2579 -0.0625
 9369W        W25503   9.490  15.550  10.976  0.0596 -0.4750  0.4771
 9370W        W25504   6.151   8.307  12.439  0.2883 -0.0273  0.2154
 9371W        W25505   7.378   7.522   1.577 -0.2885 -0.4027  0.0001
 9372W        W25506   0.444  10.930   4.655  0.0752 -0.1771 -0.4789
 9373W        W25507   4.341   2.373  13.838  0.0376  0.2493 -0.0710
 9374W        W25508   5.734   0.364  10.639  0.2982  0.0821 -0.1270
 9375W        W25509   8.880   2.944   3.158 -0.2030  0.0713 -0.3387
 9376W        W25510   9.916  18.242   0.151  0.1262 -0.1084  0.0522
 9377W        W25511   3.706   0.526   0.049 -0.3718  0.0106 -0.2304
 9378W        W25512   8.929  18.329  11.892 -0.3280 -0.0915 -0.1234
 9379W        W25513   0.275  18.551   4.440 -0.1291  0.2749 -0.1089
 9380W        W25514   6.951   4.777  11.261  0.0727  0.0480  0.0295
 9381W        W25515   9.584   9.068   4.581 -0.1452 -0.0565 -0.5566
 9382W        W25516   4.785   2.709   3.033 -0.0711 -0.0954  0.1118
 9383W        W25517  13.029  18.656  14.550  0.1721 -0.2506 -0.1285
 9384W        W25518  10.193   6.467  12.639  0.0033  0.0152 -0.1392
 9385W        W25519   0.534  15.224  13.165  0.0275 -0.1318  0.0488
 9386W        W25520  12.976  15.256   4.973 -0.2273  0.0023  0.0429
 9387W        W25521  17.745  11.288  12.562  0.4176  0.3320  0.2443
 9388W        W25522  10.689  13.341  12.735 -0.1315  0.2945  0.1310
 9389W        W25523   7.733   1.702   5.055 -0.0493  0.2544 -0.3623
 9390W        W25524   2.420   8.859   1.683 -0.2867  0.1290  0.3129
 9391W        W25525  17.303   6.233  13.734 -0.0983 -0.0699  0.3198
 9392W        W25526   3.656   0.075  13.109  0.0447  0.1634 -0.4527
 9393W        W25527   4.811   0.869   2.588 -0.1134  0.5559 -0.0997
 9394W        W25528  18.357   2.714   3.045  0.4752 -0.2845 -0.2757
 9395W        W25529  14.066  17.007   9.809  0.0046  0.3784  0.3225
 9396W        W25530   1.059   8.232   1.872  0.0156 -0.2413 -0.2682
 9397W        W25531  10.894  15.588   0.755 -0.1554 -0.1878 -0.0005
 9398W        W25532   8.965   8.325  11.845 -0.2332  0.3078  0.2195
 9399W        W25533   8.493  12.495   5.372  0.2348 -0.0791  0.2921
 9400W        W25534  18.681   6.171  12.535 -0.1991 -0.1439 -0.0014
 9401W        W25535  12.891   0.377  10.291  0.0596 -0.3704 -0.0557
 9402W        W25536  12.290   6.018  12.207 -0.0852 -0.0443 -0.0683
 9403W        W25537   2.939  18.726  13.413  0.0010 -0.0592 -0.0886
 9404W        W25538  12.497  15.805  12.268  0.1587 -0.0288  0.0166
 9405W        W25539  14.358   1.369   1.032 -0.1704  0.0273 -0.3357
 9406W        W25540  15.239  18.041   2.782 -0.1595 -0.0055 -0.2415
 9407W        W25541  14.923  14.896  10.964 -0.2929 -0.0566 -0.0632
 9408W        W25542   3.963  16.100  11.046 -0.0504  0.1286  0.3066
 9409W        W25543  11.098  16.763  14.487 -0.0406 -0.2407 -0.2650
 9410W        W25544   0.361   3.121  11.431  0.4526  0.3325 -0.1385
 9411W        W25545  11.440   8.221   1.658  0.3540 -0.2326  0.0275
 9412W        W25546   0.155   6.206   1.145  0.4533 -0.0649 -0.1683
 9413W        W25547   4.595   5.746   3.369  0.1231  0.3245  0.2575
 9414W        W25548  13.692   8.191  11.396  0.3866  0.1509  0.1127
 9415W        W25549  10.649  14.050   2.245 -0.2982 -0.0363 -0.1516
 9416W        W25550   2.435   8.670  13.501 -0.3080  0.2277  0.3337
 9417W        W25551   1.623  16.398  14.922  0.0156  0.2010 -0.2251
 9418W        W25552  19.141   9.724   0.712  0.1788  0.1279 -0.0907
 9419W        W25553  10.166   1.187  14.823 -0.2996  0.1330 -0.1615
 9420W        W25554  13.301   9.489   2.049  0.1269  0.0021  0.2059
 9421W        W25555  17.950  18.952  14.343  0.2987 -0.0746  0.0557
 9422W        W25556  12.203   0.546  11.606  0.1825 -0.0689  0.1446
 9423W        W25557   6.154   8.899   0.479 -0.2253  0.1751 -0.2396
 9424W        W25558   4.446  17.029   2.486 -0.2827  0.2897  0.0704
 9425W        W25559   4.872  15.584  12.011  0.1200 -0.0257  0.0816
 9426W        W25560   6.289   4.784   4.898 -0.1053  0.0600  0.1892
 9427W        W25561  14.012   3.035  11.223  0.0138 -0.1597  0.0264
 9428W        W25562   1.927   9.014   0.230 -0.2757  0.0198 -0.1029
 9429W        W25563  10.475  13.280   0.090 -0.0547 -0.2127  0.2137
 9430W        W25564   6.200  14.543   2.322 -0.1327 -0.1704  0.0611
 9431W        W25565  11.904   1.379  13.496  0.0542  0.0722  0.1597
 9432W        W25566  16.388   6.809  11.445 -0.2541  0.0158  0.0231
 9433W        W25567  11.170  13.590  13.186 -0.0352  0.0367  0.0128
 9434W        W25568  10.884  15.778  11.906 -0.1913 -0.1949  0.0010
 9435W        W25569   8.926   5.793  11.668  0.2026  0.0853  0.5604
 9436W        W25570  11.999  14.369  15.161  0.2041  0.1797  0.0546
 9437W        W25571  15.011  14.105  10.560  0.0115 -0.3293 -0.0260
 9438W        W25572   0.302  13.807  10.792 -0.0459  0.2117 -0.3216
 9439W        W25573  12.584   0.657  11.140 -0.0464  0.0395 -0.2030
 9440W        W25574   0.810   7.614   0.858 -0.2757 -0.2233  0.1636
 9441W        W25575  18.962   1.557   1.909  0.3231  0.1887  0.0744
 9442W        W25576  14.953   9.068   1.077  0.3937  0.1441  0.3446
 9443W        W25577  10.805  17.921  11.840 -0.1439  0.0723 -0.2720
 9444W        W25578   2.797   7.530   0.824 -0.1820  0.0239  0.1292
 9445W        W25579  15.415   5.619  12.113 -0.0319 -0.0387  0.0250
 9446W        W25580   7.975   5.182   0.150 -0.0197 -0.1238 -0.1110
 9447W        W25581  11.642  15.115   1.799  0.0088  0.2066 -0.0800
 9448W        W25582  12.707   3.698   0.012 -0.0387 -0.2931  0.3647
 9449W        W25583   6.342  14.701   1.870 -0.0991  0.0341  0.0861
 9450W        W25584   0.492   5.744  10.287 -0.1380  0.2012 -0.0058
 9451W        W25585   1.468  14.662   4.490  0.2442 -0.1019  0.2000
 9452W        W25586  18.162  15.784   5.232  0.0601  0.2582 -0.4829
 9453W        W25587  14.342   3.521   4.266 -0.0358 -0.3058  0.1541
 9454W        W25588  10.109   4.932   1.189  0.0226 -0.1123  0.3092
 9455W        W25589  12.999  13.736  14.885 -0.0397  0.4712 -0.2597
 9456W        W25590   2.974   9.761   0.287 -0.2386  0.0754 -0.3247
 9457W        W25591  12.920  14.264  14.667  0.0147  0.3458  0.1339
 9458W        W25592  11.376   8.151   2.230 -0.0944 -0.0798 -0.3033
 9459W        W25593  11.255  10.807  14.821 -0.1146 -0.1814  0.1521
 9460W        W25594   5.600  12.231  14.230  0.0913  0.1006  0.0756
 9461W        W25595   9.575  14.249   3.190 -0.0810 -0.2050  0.0981
 9462W        W25596  15.704   7.280  11.806 -0.1206 -0.1538  0.2287
 9463W        W25597  16.680   2.138   1.342  0.1282 -0.0360  0.0221
 9464W        W25598   0.686   1.789   4.213  0.0457 -0.0848  0.1983
 9465W        W25599   5.877  12.393   0.027  0.2100 -0.1165  0.0335
 9466W        W25600  12.471   9.966   1.515  0.0402 -0.0187  0.1145
 9467W        W25601  15.141  16.613   4.674 -0.0606  0.0303 -0.0125
 9468W        W25602   0.850  11.549  11.238  0.1238 -0.0113 -0.0902
 9469W        W25603   6.600  10.008   0.125  0.0946 -0.1421  0.0227
 9470W        W25604   8.666  18.911  13.744  0.1200 -0.4538 -0.1230
 9471W        W25605  13.930   7.012   4.999 -0.3660 -0.2901 -0.4768
 9472W        W25606   9.126   0.329   3.385 -0.0691  0.2154 -0.3123
 9473W        W25607  14.265  11.299   1.507 -0.1249 -0.2496 -0.1895
 9474W        W25608   0.650  11.910   1.607 -0.0202  0.0854  0.0850
 9475W        W25609   6.855   3.627  11.464 -0.0011  0.0326 -0.0430
 9476W        W25610   0.415   7.010   5.026  0.2922  0.0184 -0.1389
 9477W        W25611   8.279  13.571  11.561  0.0090 -0.0710  0.4659
 9478W        W25612  14.305   1.044   2.182 -0.1857 -0.0225  0.1592
 9479W        W25613   1.376   5.414   4.934 -0.2372  0.0612  0.0910
 9480W        W25614   0.804   9.093  13.232 -0.0616 -0.0648  0.2680
 9481W        W25615  14.263   6.396  11.159 -0.0246  0.3065  0.1214
 9482W        W25616  11.910   8.505   4.595 -0.0580  0.0947  0.4583
 9483W        W25617   0.471   4.928   1.674 -0.0782 -0.0324  0.1559
 9484W        W25618  15.740   9.331   3.492 -0.3229  0.2432 -0.5258
 9485W        W25619  10.270   9.991   0.485 -0.0726  0.4955  0.3528
 9486W        W25620  15.349  12.016  14.665 -0.0171  0.2221  0.1961
 9487W        W25621   9.642  14.182   4.516  0.2351 -0.0368  0.1551
 9488W        W25622   2.513   4.798   4.696  0.6789 -0.2486 -0.0633
 9489W        W25623  15.151   7.477   2.325 -0.1917 -0.0274  0.0540
 9490W        W25624   3.480   2.346   1.470  0.1025  0.1045  0.0081
 9491W        W25625   1.965   1.891  14.325 -0.4623  0.1471 -0.1818
 9492W        W25626   4.542   2.512   1.895  0.1129 -0.0889 -0.3407
 9493W        W25627  12.592  18.036  12.359 -0.0264 -0.0620 -0.3122
 9494W        W25628  12.172   0.704   3.079 -0.1489 -0.1039  0.0948
 9495W        W25629   1.797  10.375   1.780  0.1820  0.1776  0.2838
 9496W        W25630   4.765  17.760  13.648  0.2007  0.0454 -0.0020
 9497W        W25631  14.242   3.489  13.720  0.2864  0.0790  0.1310
 9498W        W25632   7.798  14.085   5.062 -0.0177  0.1459  0.1368
 9499W        W25633  17.684   1.268   1.018  0.0525  0.1830 -0.1613
 9500W        W25634   7.319  16.956  12.376 -0.0813 -0.1406 -0.1257
 9501W        W25635  12.810   6.420   2.411 -0.2664  0.2299  0.0393
 9502W        W25636  10.514  12.174  12.723 -0.1019  0.0053  0.0024
 9503W        W25637  18.498   2.889  10.737 -0.1344  0.1031 -0.0169
 9504W        W25638   4.677  13.654   4.095 -0.1662 -0.3728 -0.2520
 9505W        W25639  12.014   5.109   3.491  0.0562 -0.0550 -0.1934
 9506W        W25640  10.058  13.501   1.005 -0.1678  0.1651 -0.1196
 9507W        W25641   8.653  15.066   1.129  0.2490  0.0470  0.2411
 9508W        W25642  14.758  17.228  13.371  0.0510  0.0290 -0.0374
 9509W        W25643   9.076   6.590  12.672 -0.1808  0.1507 -0.1830
 9510W        W25644  15.768  14.095  13.352 -0.2578  0.2381  0.1505
 9511W        W25645  10.905   8.656   5.658  0.2242 -0.2059 -0.0717
 9512W        W25646   1.136   5.910  14.771 -0.0556  0.6414  0.3680
 9513W        W25647   4.448  18.725  13.268 -0.0954  0.0638 -0.1338
 9514W        W25648   5.677   0.195   4.844 -0.1588  0.1043  0.1592
 9515W        W25649  14.317  18.868  14.188  0.1674 -0.0223 -0.1391
 9516W        W25650  10.292   2.634  14.509  0.2959  0.0677  0.1791
 9517W        W25651   4.885  17.546   2.142  0.0750  0.1674 -0.2940
 9518W        W25652   7.728   0.906   1.298 -0.2176  0.3922 -0.3025
 9519W        W25653  10.553   6.843   3.484 -0.2126 -0.2331  0.0301
 9520W        W25654  16.282   1.523   0.128 -0.0993 -0.0139  0.0718
 9521W        W25655   6.451  18.565   2.724 -0.1956  0.0192  0.2428
 9522W        W25656   5.683   9.757   4.236  0.1794 -0.0005  0.0607
 9523W        W25657   8.467  18.417  12.082  0.1028 -0.1526  0.0888
 9524W        W25658  16.417  10.452   3.699 -0.1620 -0.0302 -0.2592
 9525W        W25659  13.072   1.794  14.310 -0.0041 -0.1856  0.3107
 9526W        W25660  13.560  14.248  10.206 -0.2224  0.2519 -0.2385
 9527W        W25661  16.346   7.691   0.333  0.0099  0.0619  0.0546
 9528W        W25662   3.376   9.437  11.282 -0.1583 -0.1259 -0.2108
 9529W        W25663   0.194  15.859   2.190  0.3246  0.0161 -0.2571
 9530W        W25664  12.098   7.849  11.114 -0.1052 -0.0777  0.2523
 9531W        W25665   6.256  11.315  14.792  0.3102  0.1406  0.0311
 9532W        W25666  17.114  15.980  13.123 -0.0517 -0.2161  0.1001
 9533W        W25667   4.182  13.535  14.357 -0.2751 -0.0673  0.0288
 9534W        W25668  14.306   3.819   0.299  0.3157  0.0963  0.2212
 9535W        W25669   3.761  15.439   5.637 -0.3388 -0.2611 -0.0075
 9536W        W25670   0.632   3.832   2.290  0.1644 -0.1654  0.1881
 9537W        W25671  12.408   9.037   2.955  0.1767 -0.0769  0.0478
 9538W        W25672   9.500  16.851  10.283  0.2581  0.3736  0.3338
 9539W        W25673  13.123  18.453  11.118 -0.1074  0.1712 -0.0915
 9540W        W25674   4.438  17.224   0.919  0.1573  0.2544  0.1515
 9541W        W25675   2.712  18.854  14.886  0.0545 -0.4248  0.1913
 9542W        W25676  10.109  11.434  12.586  0.0324  0.1031  0.0912
 9543W        W25677  15.842  16.518  14.239  0.1172 -0.1191  0.2456
 9544W        W25678   9.604   0.631   4.289  0.0040  0.0531 -0.0403
 9545W        W25679   2.629  10.208  11.400  0.0738 -0.1025 -0.0437
 9546W        W25680  16.013   7.203   2.018 -0.0242 -0.1196 -0.0881
 9547W        W25681  19.141   4.972   0.921 -0.2292  0.2692 -0.1113
 9548W        W25682  17.845   6.485  13.849 -0.1589  0.1520 -0.2129
 9549W        W25683  12.064   3.185  12.428  0.2744  0.3106  0.2026
 9550W        W25684  13.590  18.753  10.575  0.0123  0.2494  0.0199
 9551W        W25685   0.300   8.850   5.078 -0.4580  0.2094  0.0254
 9552W        W25686   5.537   4.676   2.158 -0.0513  0.0637  0.0367
 9553W        W25687  14.766  16.421   4.372 -0.0990 -0.5338 -0.2256
 9554W        W25688   9.897  18.638  11.178 -0.0392 -0.2299 -0.0613
 9555W        W25689  16.207   8.988  11.518  0.2636 -0.2414 -0.2858
 9556W        W25690   9.283   8.137   5.078 -0.1906  0.1880 -0.0960
 9557W        W25691  14.048   4.599   4.855  0.1466 -0.0013  0.0512
 9558W        W25692  11.072  14.285  14.836 -0.2707 -0.3079  0.0565
 9559W        W25693  15.553  14.758   2.735 -0.2179 -0.0583  0.1165
 9560W        W25694  11.374  18.513   4.941  0.2623  0.1990  0.1615
 9561W        W25695  12.673   9.710  10.869 -0.1614  0.1958 -0.0113
 9562W        W25696   8.367   0.078   1.672  0.0278  0.1373  0.1382
 9563W        W25697  15.556   7.391   1.938  0.5343  0.0074  0.1863
 9564W        W25698  12.208  11.544  14.712 -0.1353  0.1715  0.0635
 9565W        W25699   5.303   3.924  11.489  0.1338 -0.1514  0.5568
 9566W        W25700   5.739   2.308   3.494 -0.0447  0.0067 -0.2456
 9567W        W25701  14.499  14.416  11.881  0.0124 -0.2102  0.3430
 9568W        W25702   3.625   5.007   0.598  0.2044 -0.0516 -0.0476
 9569W        W25703  13.702  15.101  10.737 -0.0185  0.2308 -0.1219
 9570W        W25704  18.343  16.685   1.633  0.2118 -0.4070  0.1728
 9571W        W25705  16.066   1.611   2.499 -0.1668 -0.0270  0.2223
 9572W        W25706   9.276  14.582   4.458  0.0334 -0.1529  0.1291
 9573W        W25707   5.449  12.114  15.036  0.0580 -0.1149 -0.0397
 9574W        W25708  17.885  14.148  11.965  0.2291 -0.0563  0.2336
 9575W        W25709   9.022   4.320  15.121  0.4996  0.1316  0.0069
 9576W        W25710  18.194   9.622   3.980  0.2989 -0.1589  0.0328
 9577W        W25711  17.975  11.594   2.142  0.1451 -0.0151 -0.1153
 9578W        W25712  11.882   8.447   1.325  0.2901 -0.0631 -0.3318
 9579W        W25713  18.686  13.819  11.947 -0.1892 -0.0467 -0.0188
 9580W        W25714   2.952   4.522  14.993 -0.0761 -0.1584 -0.1837
 9581W        W25715  15.238   6.491  14.304  0.1240  0.0856  0.0808
 9582W        W25716  18.150  13.074  14.899  0.0180  0.1587 -0.1186
 9583W        W25717   2.619  11.408  12.223 -0.1491 -0.2976 -0.3253
 9584W        W25718  17.529   8.825   3.894  0.2171  0.2136  0.1145
 9585W        W25719   0.986  15.854  15.091  0.1733 -0.3200 -0.0160
 9586W        W25720  15.049  14.109   1.308  0.1879  0.5099 -0.1787
 9587W        W25721  18.999  11.963   4.106 -0.0265 -0.4608 -0.3368
 9588W        W25722   1.671  13.485  15.108 -0.2786 -0.2773  0.0589
 9589W        W25723  17.779   6.416   4.447  0.1115  0.0424  0.0851
 9590W        W25724   0.753  16.703   4.681  0.3951 -0.1302  0.1058
 9591W        W25725  12.019   7.051  11.381  0.0476  0.3211  0.2190
 9592W        W25726  11.083   1.108   2.387  0.2423 -0.2097  0.0680
 9593W        W25727  10.444  15.202   2.725 -0.3561  0.2012 -0.0562
 9594W        W25728  16.100   2.919   4.053  0.2602 -0.1674  0.0831
 9595W        W25729  16.935  11.916  11.840 -0.0886  0.0825 -0.2930
 9596W        W25730  11.340   2.737   0.137  0.0170  0.0435  0.1121
 9597W        W25731   4.077   8.642   2.313 -0.3987 -0.1864  0.2144
 9598W        W25732  17.400  13.117   1.192  0.1705  0.4056 -0.1562
 9599W        W25733   6.224  17.133   4.150  0.3111 -0.0536  0.0345
 9600W        W25734   6.739   4.118   1.821  0.1035  0.1069  0.0355
 9601W        W25735   0.183   4.868   0.393 -0.1812  0.2649  0.0818
 9602W        W25736  16.468   3.799   4.696 -0.1132  0.0951 -0.2797
 9603W        W25737  16.139   4.786  15.144 -0.3398  0.0546 -0.2356
 9604W        W25738  12.017   7.772  13.741 -0.1048 -0.3031  0.0624
 9605W        W25739   1.262  16.636  11.924  0.0502 -0.2952 -0.0482
 9606W        W25740  18.701  18.015   2.232  0.0343 -0.2971 -0.3641
 9607W        W25741  17.281   3.581   1.281 -0.1414 -0.1988  0.2858
 9608W        W25742  11.426   4.517  12.197 -0.3116 -0.0717  0.1657
 9609W        W25743  13.821   1.433  12.814 -0.0657 -0.1550 -0.1575
 9610W        W25744  14.905   5.794  12.426 -0.3005 -0.0918  0.2399
 9611W        W25745  15.622   0.367  12.592  0.0270 -0.0812  0.0711
 9612W        W25746   4.182  11.737  12.810 -0.2005  0.1037  0.0889
 9613W        W25747  12.255   0.044  15.007  0.0894  0.2060  0.0823
 9614W        W25748  14.570  10.581  14.142  0.3844 -0.0644 -0.1384
 9615W        W25749   2.429   4.661  11.185 -0.0326 -0.0549 -0.2927
 9616W        W25750   9.926   4.653  13.583 -0.1328  0.3021 -0.1676
 9617W        W25751   8.226  17.472   2.378  0.3611  0.2742  0.2640
 9618W        W25752  10.172  16.204   2.576 -0.1922 -0.2489  0.0477
 9619W        W25753  12.487   5.033   0.709 -0.1080 -0.1319  0.3896
 9620W        W25754   8.801   8.036  13.412  0.0887 -0.6056  0.0529
 9621W        W25755   5.846  12.619   1.209  0.1477 -0.0832 -0.1417
 9622W        W25756  10.220   3.780   3.376 -0.2394  0.2701 -0.0747
 9623W        W25757   7.612   4.310  10.928  0.1577  0.2427  0.0640
 9624W        W25758  15.162   0.700   3.845  0.0068  0.0582 -0.1495
 9625W        W25759  18.139  15.510   1.915  0.0310  0.2208 -0.2664
 9626W        W25760   4.488  13.274   4.651 -0.1073  0.0200  0.1441
 9627W        W25761  18.354  17.700   4.418  0.0688 -0.1545  0.2136
 9628W        W25762   0.287  13.762  11.981 -0.0238  0.2632  0.0751
 9629W        W25763  17.991   5.379   4.792  0.2465 -0.3003 -0.2297
 9630W        W25764   8.188   6.222  14.361 -0.0460 -0.3412  0.0027
 9631W        W25765  11.629  10.881   5.739  0.0557 -0.2406 -0.0265
 9632W        W25766  18.782  16.006   2.295  0.0376 -0.0842 -0.0208
 9633W        W25767   1.650  15.869  11.803  0.0126 -0.0912  0.1073
 9634W        W25768   6.944  14.515   4.151 -0.1953 -0.4806 -0.1856
 9635W        W25769   8.851   1.336   0.911  0.2556 -0.2484  0.2848
 9636W        W25770  16.320   4.404   4.803 -0.1199 -0.0262 -0.0910
 9637W        W25771  13.489  17.629   1.928  0.1851 -0.0558  0.0387
 9638W        W25772   1.932   3.126   2.450 -0.4193 -0.1202  0.0701
 9639W        W25773   2.381  10.488   9.845  0.4147  0.1753  0.3744
 9640W        W25774  13.286   1.777   0.005  0.1313  0.1332  0.0523
 9641W        W25775  13.690  17.211   3.053 -0.1795 -0.3367 -0.3412
 9642W        W25776   4.766   4.946   4.854  0.2653 -0.0818  0.0090
 9643W        W25777  16.232   8.484  12.304 -0.0362  0.0378 -0.4323
 9644W        W25778  11.925   1.304  15.053 -0.0061  0.1452 -0.0456
 9645W        W25779  15.038   2.312  12.928 -0.1129  0.1686 -0.0192
 9646W        W25780   9.366   9.098   5.147  0.0069  0.1318  0.0784
 9647W        W25781   1.735  17.396  13.817 -0.0083  0.1887 -0.1965
 9648W        W25782  12.651  13.973   1.461 -0.3216  0.1195  0.1833
 9649W        W25783   9.570   0.515  13.941  0.3365  0.2822 -0.3448
 9650W        W25784   8.885   8.577   4.183  0.1554  0.2717  0.1643
 9651W        W25785   1.298   9.692   1.962  0.4422 -0.2378 -0.1937
 9652W        W25786  12.999  13.176  12.644  0.1481 -0.2701  0.1673
 9653W        W25787  11.998  11.288   5.821  0.1094  0.4973  0.1725
 9654W        W25788  16.340  18.215   3.721  0.1424 -0.2757  0.4879
 9655W        W25789  16.051   3.349   3.299  0.0358  0.0902  0.2423
 9656W        W25790   1.530  18.431   0.412 -0.1734 -0.0329 -0.3075
 9657W        W25791  12.451   7.299   0.856  0.0955  0.3663  0.0509
 9658W        W25792   8.596  10.004   1.955  0.1852  0.1401 -0.1028
 9659W        W25793  15.130  17.803   0.377  0.1107  0.0033  0.0230
 9660W        W25794  13.742  13.508   3.810  0.0681 -0.0566 -0.0171
 9661W        W25795  18.318   6.624   1.729  0.1542 -0.0891 -0.0445
 9662W        W25796   2.300   4.370  14.654 -0.0465 -0.0252  0.1042
 9663W        W25797   5.741   8.789   0.820 -0.0228 -0.0902 -0.2152
 9664W        W25798  10.680   5.795  14.024 -0.1055 -0.5719 -0.1946
 9665W        W25799  12.717  11.976  12.557  0.0370 -0.2834 -0.1026
 9666W        W25800   5.095   4.850   2.867  0.2186  0.0810  0.0621
 9667W        W25801  12.555  17.320   2.046 -0.0295 -0.1047  0.0677
 9668W        W25802  12.215   5.012  13.040  0.2001  0.2235  0.1607
 9669W        W25803  16.493   0.565   5.141  0.1113  0.1849 -0.1451
 9670W        W25804  10.352  16.499  10.407 -0.0748  0.0969 -0.1836
 9671W        W25805  10.236  11.696   0.345 -0.2337 -0.4075  0.0861
 9672W        W25806   2.232   1.093  11.614 -0.0644  0.0941 -0.3450
 9673W        W25807  19.067  14.239  13.881  0.2606 -0.1677 -0.3612
 9674W        W25808   4.409  15.261  11.114 -0.1248  0.1507  0.0331
 9675W        W25809  11.969  11.866   3.840  0.0743  0.0939  0.1586
 9676W        W25810   0.842   1.689  11.840 -0.0317 -0.0380 -0.0659
 9677W        W25811   6.192  13.329  14.090 -0.5225  0.2765  0.0987
 9678W        W25812   9.985   5.668  14.540  0.0065 -0.0455 -0.1445
 9679W        W25813   6.038  11.517   2.539 -0.1665  0.2232 -0.0392
 9680W        W25814   0.372   1.199   3.657 -0.3191  0.0475  0.2401
 9681W        W25815  16.040   4.892   2.074 -0.0235 -0.2371  0.3491
 9682W        W25816   2.597   0.532   2.932  0.0679  0.0050  0.0078
 9683W        W25817  18.432  12.619   1.078 -0.3719  0.0145 -0.1429
 9684W        W25818   4.919  13.687  14.021 -0.0269  0.0096 -0.0788
 9685W        W25819  12.220   8.520   5.115  0.0678  0.0550 -0.0590
 9686W        W25820  16.556   1.400  14.021  0.1343  0.0222 -0.0921
 9687W        W25821   3.558   4.716  10.983 -0.0719 -0.2052  0.0988
 9688W        W25822   3.033   3.367  11.409 -0.0659  0.0930 -0.2090
 9689W        W25823  18.829   1.523  11.700 -0.4582  0.3055  0.1479
 9690W        W25824   3.955   9.027   1.714 -0.3393  0.0224  0.0655
 9691W        W25825   4.539  18.856  12.035  0.0258 -0.1984  0.0812
 9692W        W25826   2.775   6.170   3.677  0.1676  0.1658 -0.0832
 9693W        W25827  13.076  17.229  14.563  0.0267 -0.0573  0.1838
 9694W        W25828   6.085   2.192  12.527 -0.0809  0.0449  0.0498
 9695W        W25829   0.473   4.529  13.759 -0.2063  0.2236 -0.0253
 9696W        W25830  12.860   6.469   4.956 -0.2825  0.1350  0.2469
 9697W        W25831   5.682  17.233   9.855  0.2207  0.3665 -0.1168
 9698W        W25832  11.874   8.261  13.958  0.1547 -0.3410  0.3256
 9699W        W25833   0.317   4.615  14.264 -0.4405 -0.0976 -0.1083
 9700W        W25834   6.669   3.289   1.003  0.1702 -0.1004  0.1214
 9701W        W25835   5.998   7.964   9.972  0.3563 -0.2697  0.2119
 9702W        W25836   1.864  18.693   5.270 -0.1163  0.3210  0.0956
 9703W        W25837   7.000   6.956   2.936  0.0431  0.3934  0.0266
 9704W        W25838   3.202  11.573  12.860 -0.2791  0.3639 -0.2232
 9705W        W25839  18.747  10.117  11.678  0.1596 -0.0082 -0.0465
 9706W        W25840  18.807   9.472  10.333 -0.2239 -0.1133  0.1953
 9707W        W25841  17.598  16.436  10.163  0.0412 -0.2027  0.3774
 9708W        W25842  18.639  10.115  14.561 -0.0631 -0.1052 -0.0167
 9709W        W25843   7.270  19.006  10.612  0.2991 -0.0633 -0.0629
 9710W        W25844  19.042   4.067   1.102  0.1355  0.1226  0.1564
 9711W        W25845   4.662  17.131  12.267 -0.0546 -0.2269  0.0076
 9712W        W25846  18.299   9.865  12.251  0.0043 -0.0119  0.0234
 9713W        W25847  17.035   7.917  13.563  0.1620 -0.1862  0.1671
 9714W        W25848   3.674  12.869  14.191 -0.2716 -0.0345 -0.1054
 9715W        W25849   0.141  10.799  12.461  0.0311 -0.0994 -0.0540
 9716W        W25850   6.341  10.359   3.344 -0.3643 -0.1016 -0.1705
 9717W        W25851  12.014   6.421  12.359 -0.1679 -0.1502  0.1380
 9718W        W25852   6.465  16.594   1.351 -0.1047 -0.2259 -0.0563
 9719W        W25853  13.416   6.921   5.146  0.0857 -0.1353  0.0954
 9720W        W25854  13.672  11.597  13.149 -0.3302  0.3244  0.4145
 9721W        W25855   4.320   1.039  11.744 -0.0386 -0.1697  0.0377
 9722W        W25856   9.109  12.076   3.573  0.0142 -0.0015  0.2365
 9723W        W25857  17.486  18.986  14.507  0.0618 -0.1306 -0.1758
 9724W        W25858   3.371   7.289  14.168  0.1467  0.0355 -0.2591
 9725W        W25859  18.816   6.219   3.917 -0.0282 -0.0852  0.1571
 9726W        W25860  10.869   7.999   2.724 -0.1856  0.1790 -0.2750
 9727W        W25861   7.102   9.785   0.022  0.3344  0.1722  0.3357
 9728W        W25862  10.837  15.760  13.552  0.2208 -0.1371 -0.0742
 9729W        W25863  11.607   5.968   5.323  0.1111  0.0233 -0.3372
 9730W        W25864  10.611   4.524   5.717 -0.3004 -0.2138  0.1594
 9731W        W25865   5.993  15.873   1.560  0.1860 -0.1601 -0.3183
 9732W        W25866  18.535   1.859   4.515 -0.4550 -0.1696  0.0372
 9733W        W25867  12.066  15.905  12.734  0.0500 -0.1338  0.0617
 9734W        W25868  17.537   9.639  14.808 -0.1928 -0.1309  0.2199
 9735W        W25869  17.351   7.506  10.651  0.0447 -0.0253 -0.0366
 9736W        W25870  16.839   2.417   3.129 -0.2864  0.0242  0.2640
 9737W        W25871  14.455  18.153   1.200  0.4454  0.1557 -0.3166
 9738W        W25872  13.719   7.562  13.065 -0.4462 -0.0726 -0.0519
 9739W        W25873  14.225   8.225  10.302  0.0009  0.0395 -0.0558
 9740W        W25874  15.611  16.290   2.163  0.2103  0.4225 -0.0070
 9741W        W25875   5.870   4.187  13.100  0.1794 -0.1835  0.0034
 9742W        W25876  18.127  17.242  11.555 -0.0395 -0.1393  0.1279
 9743W        W25877  15.333  17.507   4.912 -0.1013  0.1047  0.0733
 9744W        W25878  17.068   2.123   0.518  0.1167 -0.0161  0.0581
 9745W        W25879  16.358   5.232  12.286 -0.4617 -0.0027  0.1629
 9746W        W25880  13.190  13.056   0.196  0.0816 -0.0839  0.2228
 9747W        W25881  14.887  13.480  12.899 -0.2047  0.0631 -0.0442
 9748W        W25882  16.395   8.284   3.062  0.0782  0.1306 -0.1534
 9749W        W25883  18.452   8.600  14.386 -0.2675 -0.0235  0.0189
 9750W        W25884  11.514  18.957  12.544  0.2670  0.1820 -0.2389
 9751W        W25885  16.961   7.088   0.903 -0.1102 -0.1306  0.0212
 9752W        W25886  16.603  18.409   3.261  0.0050 -0.1492  0.0389
 9753W        W25887  17.765  12.483   1.231 -0.2801 -0.1364 -0.0145
 9754W        W25888   9.915   0.494  12.896  0.1495  0.1559 -0.0192
 9755W        W25889  15.810  10.527  13.490 -0.2139 -0.0151 -0.0467
 9756W        W25890  11.588  10.886  14.467 -0.0635 -0.0872 -0.0371
 9757W        W25891   3.376  17.103   1.153  0.4749 -0.0912  0.1757
 9758W        W25892  18.506   1.144  10.440  0.0277 -0.0273  0.1229
 9759W        W25893   4.594  13.921   0.126  0.2652  0.3625 -0.0203
 9760W        W25894  16.118   3.993  14.212 -0.0873 -0.1797 -0.2401
 9761W        W25895   9.397   5.823  10.973 -0.0401  0.1360 -0.1813
 9762W        W25896  13.819   2.216   9.700  0.1568  0.0472  0.1448
 9763W        W25897  17.278   1.215   3.587 -0.1481  0.1086 -0.2072
 9764W        W25898  18.588  17.825  13.110  0.0452  0.1529 -0.2018
 9765W        W25899   9.294  10.842   4.013  0.1401 -0.1738  0.2977
 9766W        W25900   4.233   6.317   5.323  0.3352 -0.2386  0.0692
 9767W        W25901   6.666  13.409  11.770  0.1828 -0.0327  0.0626
 9768W        W25902  18.951   8.989   1.687 -0.2275  0.0683 -0.2457
 9769W        W25903   3.860  14.379  11.412  0.2757  0.1503  0.0063
 9770W        W25904   0.098   5.733  12.883  0.0268 -0.0815 -0.3598
 9771W        W25905   2.276   4.629  12.407 -0.2747 -0.0983 -0.4516
 9772W        W25906  18.364  12.456  13.575 -0.0452 -0.0866 -0.1491
 9773W        W25907  15.020  14.431   2.793 -0.0214  0.0338  0.0550
 9774W        W25908   2.601  17.878   3.283  0.0116 -0.1877  0.3172
 9775W        W25909  16.743   7.447   3.683  0.2183 -0.2107 -0.0300
 9776W        W25910   4.478   3.028  13.669  0.0184  0.1349  0.1802
 9777W        W25911  16.063   7.506   2.437  0.2172  0.1196 -0.1440
 9778W        W25912  11.708   9.489   2.048 -0.1894 -0.1189  0.2838
 9779W        W25913   9.336  18.218  12.226 -0.0891  0.1026  0.0414
 9780W        W25914  18.318  14.068   1.637  0.0589  0.1210 -0.0310
 9781W        W25915   3.114   2.925   0.270  0.2010 -0.0183 -0.2825
 9782W        W25916   0.864   1.073   1.848 -0.2940  0.4254 -0.0061
 9783W        W25917   9.245  12.484   3.887  0.0733  0.2725  0.1535
 9784W        W25918  12.917   6.496   1.030 -0.1822  0.0780 -0.0279
 9785W        W25919   2.525   0.686   0.922  0.1688 -0.0891 -0.0601
 9786W        W25920  11.800   5.865   4.846  0.2562 -0.0762 -0.1787
 9787W        W25921  13.590  15.117  14.250  0.0985 -0.0373 -0.0533
 9788W        W25922   3.000   8.789   3.259 -0.0373  0.3438 -0.1973
 9789W        W25923   3.671  16.156   3.780  0.0901 -0.3527 -0.0693
 9790W        W25924   4.619   0.151  14.088  0.0649  0.4055 -0.1551
 9791W        W25925  12.025   5.908   1.786  0.1187 -0.0166  0.1007
 9792W        W25926  14.555   2.610   3.313 -0.0529 -0.1455  0.0372
 9793W        W25927   7.327   9.876   4.896  0.2367  0.1577 -0.0219
 9794W        W25928  10.661   9.517  13.864  0.2386 -0.0194  0.0875
 9795W        W25929   1.949   4.939  13.891  0.1095  0.1476  0.0768
 9796W        W25930   8.961   8.081   1.523 -0.1856 -0.0019  0.0297
 9797W        W25931   6.494  14.494   5.211 -0.0408 -0.0707 -0.1156
 9798W        W25932   6.603  15.919   0.670 -0.0610  0.2630  0.0441
 9799W        W25933  18.175   1.161  11.809  0.0623  0.0256  0.1027
 9800W        W25934  14.676  10.063   2.838  0.1551  0.2823 -0.4799
 9801W        W25935   8.921   3.847   3.269  0.0906 -0.0447 -0.3510
 9802W        W25936  16.891   0.411   3.971  0.0366  0.0690  0.0437
 9803W        W25937  17.155  14.451  12.069 -0.5028 -0.1790  0.1237
 9804W        W25938   1.849   4.828   3.318  0.0828 -0.2128  0.0637
 9805W        W25939   2.685  18.664   4.961  0.0865  0.1434 -0.0935
 9806W        W25940   8.899   7.583   1.443 -0.4245 -0.2677 -0.2262
 9807W        W25941  18.439   0.663  10.647  0.2518  0.0980 -0.0983
 9808W        W25942  18.929   4.632   5.393 -0.1706 -0.0831 -0.1569
 9809W        W25943   2.643   4.096   0.338  0.1084  0.0360  0.3050
 9810W        W25944  18.293   3.149  11.112  0.0018  0.0775 -0.0186
 9811W        W25945  15.011   8.069   4.153 -0.0053 -0.0142  0.0259
 9812W        W25946   7.755  11.263   9.661 -0.0379 -0.0812 -0.1166
 9813W        W25947   1.298   8.246   4.285  0.2704  0.2402  0.1480
 9814W        W25948  14.261  16.803   0.065  0.2399 -0.1815 -0.2373
 9815W        W25949  18.665   9.445   2.304 -0.4286 -0.0033 -0.1610
 9816W        W25950   8.814   2.288   3.089  0.3785 -0.1182 -0.0048
 9817W        W25951   8.173  10.378   6.091  0.2234  0.4074 -0.1198
 9818W        W25952  18.001   5.556  10.906  0.0662 -0.1019 -0.2658
 9819W        W25953  12.142  14.392   3.899  0.0506  0.1479 -0.0862
 9820W        W25954   7.759   2.037  12.358  0.0465 -0.1151 -0.3170
 9821W        W25955  14.536  12.759  10.749  0.1648  0.2109 -0.0860
 9822W        W25956   2.081   5.559   3.840 -0.0319  0.3121  0.0204
 9823W        W25957  14.475  15.025   3.386 -0.2132 -0.0807 -0.3713
 9824W        W25958  15.145  13.994  11.155  0.1283 -0.3846 -0.0336
 9825W        W25959   1.430   2.270   0.712 -0.0215  0.2347  0.3409
 9826W        W25960   0.013  18.711   0.065 -0.2831 -0.3523  0.0955
 9827W        W25961   0.501  18.032  11.382  0.0135  0.1668  0.1808
 9828W        W25962   3.775  18.965  10.416 -0.0050 -0.2500 -0.1957
 9829W        W25963   3.632  16.837  14.539  0.0277 -0.0458  0.0540
 9830W        W25964   7.843   1.222   2.196  0.2000 -0.0174  0.1069
 9831W        W25965   3.601  17.771   4.912  0.1429  0.1852  0.1900
 9832W        W25966  17.568   3.912  12.898  0.0018 -0.1300  0.4478
 9833W        W25967   1.888  12.923  13.469  0.2289 -0.0353 -0.1195
 9834W        W25968  10.604  16.248   2.328  0.0123 -0.2375 -0.2848
 9835W        W25969  13.261   0.086  13.675 -0.2715  0.1023 -0.1094
 9836W        W25970  14.510   5.454  11.060  0.2278  0.2188  0.1817
 9837W        W25971  12.852  14.650  11.845  0.3095  0.0598 -0.0211
 9838W        W25972   6.013   3.589  13.862 -0.0716 -0.1426  0.0061
 9839W        W25973  17.861  16.055   9.836 -0.4718  0.0441  0.2707
 9840W        W25974  14.621   3.079   1.445  0.0315  0.3819  0.1845
 9841W        W25975   6.689  18.519   4.399 -0.2089 -0.0504  0.3084
 9842W        W25976   5.766  18.291   4.325  0.2086 -0.1976 -0.1893
 9843W        W25977   9.936  11.991   0.054 -0.0926  0.1889  0.0758
 9844W        W25978   4.805  10.082  13.208 -0.1991 -0.2681 -0.3313
 9845W        W25979  13.120   9.949  13.704  0.2529  0.0321 -0.0379
 9846W        W25980  13.372  13.981   2.985 -0.1826 -0.1808  0.0355
 9847W        W25981   3.998  18.753   4.351 -0.0314  0.2237  0.2920
 9848W        W25982  15.635   7.768   4.034  0.2336  0.2044 -0.0886
 9849W        W25983   8.290  13.502   2.058  0.1539 -0.0499 -0.0369
 9850W        W25984  10.011  10.453   4.004  0.0559  0.2010 -0.0091
 9851W        W25985  18.677   9.547  14.638  0.0459  0.1156  0.1992
 9852W        W25986   6.902  16.982  12.727 -0.0197 -0.0545  0.1335
 9853W        W25987  10.205  16.318  12.797  0.2154  0.0223  0.0459
 9854W        W25988   6.464   8.850   4.555  0.1218  0.1208  0.0292
 9855W        W25989  15.502   3.996   0.840  0.2122 -0.2211  0.3504
 9856W        W25990   6.742   0.796   1.353  0.0918  0.1134 -0.0758
 9857W        W25991  12.942   6.951   4.775  0.1094 -0.0952 -0.2389
 9858W        W25992  11.102  17.295  14.327 -0.0296 -0.0663  0.0495
 9859W        W25993  18.344  13.591  14.655  0.1184  0.1398 -0.0276
 9860W        W25994  15.765  14.709   4.737 -0.1146 -0.0120  0.3398
 9861W        W25995   0.278   2.186  12.215 -0.4454  0.2420 -0.0893
 9862W        W25996  15.192  16.891  13.345  0.2135  0.0280  0.1441
 9863W        W25997   6.461   8.516   1.376  0.1184 -0.1930  0.2662
 9864W        W25998  15.498   3.317   1.507 -0.4497  0.3826  0.1137
 9865W        W25999   0.059   3.326   4.908  0.0027  0.2355  0.0704
 9866W        W26000  14.648  17.153  12.437  0.1711  0.1574  0.0780
 9867W        W26001  16.569  16.684   4.596  0.3028 -0.1635 -0.2268
 9868W        W26002  15.473  11.123  11.896 -0.2527 -0.2367  0.0415
 9869W        W26003  12.684   6.073   3.713  0.1582  0.3897  0.0624
 9870W        W26004   6.206  13.122   6.280  0.0678 -0.0934 -0.2029
 9871W        W26005  19.051  10.101  12.754  0.1318  0.2049 -0.0027
 9872W        W26006  17.704   1.567  13.942 -0.1688 -0.1212 -0.4215
 9873W        W26007  12.370   6.653   3.151  0.1913  0.0354 -0.1101
 9874W        W26008  11.987   4.439   0.140  0.2614 -0.0397  0.0636
 9875W        W26009  13.622  13.827  11.638  0.0625 -0.2561  0.1244
 9876W        W26010   2.799  15.812   3.724 -0.3180 -0.0585  0.0520
 9877W        W26011   6.122  18.478   4.572 -0.2991  0.0253 -0.0812
 9878W        W26012  11.363  14.226   2.708 -0.1719 -0.0487  0.1746
 9879W        W26013   2.947  14.935  12.994 -0.1208 -0.0046 -0.3732
 9880W        W26014  10.927   3.511   4.148  0.1440  0.0287  0.1707
 9881W        W26015   6.639  15.151  12.910 -0.0150  0.1801  0.0410
 9882W        W26016   4.113   6.804  13.823  0.0563 -0.3029  0.3169
 9883W        W26017  16.303   6.436   3.220 -0.1422 -0.4290  0.1818
 9884W        W26018  18.899  16.744   1.746  0.1940  0.1054  0.1440
 9885W        W26019   3.587   0.970  15.030  0.0156  0.0249  0.2223
 9886W        W26020   2.031  13.833  11.175 -0.0806 -0.1732  0.3121
 9887W        W26021   7.295   8.798   4.029 -0.1104  0.1061 -0.1085
 9888W        W26022  18.473   4.446   0.403  0.0479 -0.0377 -0.2988
 9889W        W26023   4.821   9.867  12.252 -0.0446 -0.1396 -0.1253
 9890W        W26024  14.910   4.076  12.842  0.3816  0.0839  0.3000
 9891W        W26025  11.481   4.047   4.642 -0.0149  0.0760  0.0895
 9892W        W26026  16.033  18.599   4.903 -0.1800  0.0239 -0.3310
 9893W        W26027   6.224  12.822   0.846 -0.0284 -0.0495  0.5369
 9894W        W26028  10.704   1.014  11.480  0.0009 -0.1798  0.0156
 9895W        W26029   7.480   9.521   0.290  0.1920  0.0193 -0.3127
 9896W        W26030   0.987  15.776   0.903  0.1366 -0.0711 -0.0180
 9897W        W26031   4.261   4.020  13.086 -0.0221 -0.0296 -0.1611
 9898W        W26032  12.293   0.275   1.424 -0.0060  0.5430  0.2992
 9899W        W26033  17.129  15.683   1.437  0.0522 -0.2225  0.0164
 9900W        W26034  17.982  15.608  11.055  0.0755  0.1313  0.1164
 9901W        W26035   7.578   0.090   2.377  0.2112 -0.2013 -0.0061
 9902W        W26036   4.687   7.404   1.851  0.0578 -0.3657 -0.1966
 9903W        W26037  13.957  14.063   1.175 -0.1198 -0.2075 -0.0062
 9904W        W26038   8.609   3.661  11.067  0.0520 -0.2085  0.1510
 9905W        W26039   7.177   6.469   2.959  0.0810 -0.3823  0.0082
 9906W        W26040   4.319  14.812  14.780  0.1831 -0.1179  0.3976
 9907W        W26041   5.846   0.605  10.232 -0.0861  0.2323  0.0702
 9908W        W26042   3.914   0.304  14.717  0.0697  0.0110 -0.3664
 9909W        W26043   3.248   4.071   4.666 -0.0639  0.1662  0.2497
 9910W        W26044  15.163  17.777  11.300  0.0843  0.0513 -0.1233
 9911W        W26045  13.744   9.252   4.035 -0.2123 -0.0231 -0.0054
 9912W        W26046   0.396  10.263  13.487  0.2910  0.0736 -0.0902
 9913W        W26047   3.387  11.817  12.413 -0.0570  0.0001  0.0214
 9914W        W26048   4.089   7.478  11.164 -0.0749  0.3333  0.1231
 9915W        W26049  10.602   3.193   2.689  0.1329  0.1116 -0.0443
 9916W        W26050   7.863  18.212   1.947 -0.1294  0.1448  0.0230
 9917W        W26051   3.663  10.670   1.170 -0.0376 -0.2090  0.3846
 9918W        W26052   1.603  14.536  12.383  0.5878  0.3168  0.1910
 9919W        W26053  12.560   0.916   1.625 -0.3784 -0.1075  0.1301
 9920W        W26054  12.661  11.189  14.006 -0.0583 -0.0086  0.1524
 9921W        W26055   3.939  14.618  10.667 -0.2109  0.1676 -0.3479
 9922W        W26056   9.780   7.009   4.862  0.1237 -0.0742 -0.1863
 9923W        W26057   7.126  18.299  11.539 -0.0065  0.1026  0.1014
 9924W        W26058  13.412  14.667  14.471  0.0862  0.1432 -0.0520
 9925W        W26059  15.546   8.244  13.216 -0.0116  0.1526  0.3594
 9926W        W26060   7.653   9.649   1.366  0.1977 -0.1552  0.0276
 9927W        W26061   2.113   8.777   2.728  0.4058 -0.2096 -0.0903
 9928W        W26062  11.061   1.813  12.067  0.2284  0.1517 -0.0540
 9929W        W26063   3.025  17.084   3.815  0.0749 -0.1941  0.4876
 9930W        W26064   7.114  14.407  11.586 -0.2412  0.1642 -0.0126
 9931W        W26065  13.524   4.484   3.002 -0.0462 -0.0646 -0.1945
 9932W        W26066   4.179   8.610   1.785  0.3581  0.0522  0.1471
 9933W        W26067   6.376  15.684  11.152 -0.0420  0.2123 -0.1765
 9934W        W26068  15.442   9.654  11.582 -0.0866 -0.0979  0.1139
 9935W        W26069   0.913  15.338  11.075 -0.0848  0.1914 -0.0330
 9936W        W26070   7.883   4.720   0.512  0.3684 -0.1184  0.2562
 9937W        W26071   8.674   7.362   1.079  0.2077 -0.2424  0.1153
 9938W        W26072  13.654  13.629  10.979 -0.1574  0.0938 -0.3045
 9939W        W26073  12.085  16.814   4.926  0.0534 -0.0291 -0.2242
 9940W        W26074   9.566  11.705   2.729  0.4603 -0.1214 -0.1938
 9941W        W26075  11.888   5.410  13.314 -0.1840 -0.1553 -0.2367
 9942W        W26076  14.786   3.416   3.146 -0.1793  0.3733 -0.1197
 9943W        W26077   1.137  18.154  11.389 -0.4549 -0.0568 -0.0242
 9944W        W26078   6.414   7.882   2.558  0.3617  0.2736  0.0493
 9945W        W26079   3.005   5.829   4.941 -0.0290  0.0985 -0.1046
 9946W        W26080  18.671  11.793  13.512 -0.0402 -0.0446  0.0123
 9947W        W26081   2.475   8.356   0.841 -0.0770 -0.0249  0.0018
 9948W        W26082   6.720   3.695   4.045  0.0488 -0.3161 -0.4326
 9949W        W26083   9.844   5.174  14.422 -0.3052  0.1346  0.2394
 9950W        W26084   6.850   9.944   1.913  0.3461  0.1121  0.2016
 9951W        W26085  11.570   2.535   2.896 -0.3092  0.0714 -0.1262
 9952W        W26086  14.454  10.489   2.816  0.1087 -0.2065  0.0015
 9953W        W26087   1.366  14.051   3.324 -0.1676 -0.2744 -0.2549
 9954W        W26088   8.579  14.723  12.886 -0.1295 -0.0300 -0.0420
 9955W        W26089  14.337  17.656   2.600 -0.1792 -0.0235 -0.1492
 9956W        W26090  14.166   3.928  11.109 -0.2450  0.0028 -0.0278
 9957W        W26091   5.083   8.303   2.039 -0.0357 -0.0353  0.3677
 9958W        W26092   3.100   0.841  14.471 -0.0511  0.2564  0.3555
 9959W        W26093  19.139  11.194   4.851  0.1837  0.3136  0.3909
 9960W        W26094   9.323   7.240   3.035 -0.1157  0.3449 -0.0656
 9961W        W26095  16.195  18.659  10.871 -0.0724 -0.1072  0.2408
 9962W        W26096  16.365   2.584   3.422  0.0520  0.1882 -0.0163
 9963W        W26097   7.442   9.544  13.622  0.0364  0.4059  0.0078
 9964W        W26098   2.012  16.911  11.246  0.3093 -0.0463  0.0739
 9965W        W26099   3.802  15.151   0.438  0.0980  0.2046 -0.0644
 9966W        W26100  16.049   4.904  14.139  0.1755 -0.2126  0.0841
 9967W        W26101  13.050  15.590   3.103 -0.1515 -0.1103  0.3354
 9968W        W26102   6.304   5.633   2.238  0.3239 -0.1906  0.1718
 9969W        W26103   8.865   8.331   2.852 -0.1317 -0.2010 -0.2112
 9970W        W26104  11.133  15.682  12.364 -0.0450  0.1576  0.2655
 9971W        W26105   2.267  18.823   5.932  0.2949 -0.0948  0.0286
 9972W        W26106  16.806  16.734   1.052  0.2358  0.2718  0.2983
 9973W        W26107  14.708  14.326  10.240  0.2676  0.1010  0.1241
 9974W        W26108  18.672  18.784  12.130 -0.1380 -0.0162  0.5274
 9975W        W26109   4.769   2.454  13.087  0.2745  0.0559  0.1203
 9976W        W26110  13.806   1.418  11.074  0.0139  0.0649  0.5892
 9977W        W26111  11.552   3.658  13.466  0.5469 -0.1875 -0.1797
 9978W        W26112  14.572   5.004   1.437 -0.0707  0.1603 -0.0004
 9979W        W26113   0.419   6.939   0.466  0.0491  0.1709 -0.0421
 9980W        W26114   1.978   4.839  10.439 -0.1544 -0.3151 -0.0531
 9981W        W26115   9.731  18.131  12.706 -0.0057  0.1118  0.1714
 9982W        W26116   0.179   8.523  11.395 -0.0381 -0.1650 -0.4055
 9983W        W26117   1.739   3.160   5.302 -0.1167  0.2663 -0.1900
 9984W        W26118   1.244   8.681   1.609  0.0210  0.0915  0.0136
 9985W        W26119   4.449  11.703  14.980 -0.1307  0.1475  0.2274
 9986W        W26120   5.940   1.307   1.912 -0.0974 -0.1888 -0.1882
 9987W        W26121  14.986   8.884   2.027  0.1628 -0.1064 -0.3355
 9988W        W26122  19.098  18.488  14.796  0.1790  0.1887 -0.1929
 9989W        W26123   3.355  15.923  12.002  0.0022 -0.2612  0.0019
 9990W        W26124  13.443  16.516  14.159 -0.1105 -0.0299  0.0922
 9991W        W26125   6.571  12.845   3.087 -0.0093 -0.0712 -0.1094
 9992W        W26126  10.736   4.599   2.697 -0.0985  0.0871  0.2853
 9993W        W26127  11.061  15.228  14.773 -0.1347  0.0406  0.2202
 9994W        W26128   8.391   5.728  14.487 -0.1709  0.1272  0.1274
 9995W        W26129   6.062  11.582   3.423  0.1211 -0.2036  0.0117
 9996W        W26130   3.340   1.367  10.906 -0.0752  0.0668 -0.0890
 9997W        W26131  15.772   1.500   3.983 -0.0232 -0.0734  0.4847
 9998W        W26132  19.133  14.583  14.759  0.1586 -0.0921  0.0523
 9999W        W26133   4.851   6.473  12.064 -0.1203 -0.0336  0.2125
10000W        W26134  10.617   9.457   4.205 -0.1660 -0.0196  0.0567
10001W        W26135   0.648   4.827   0.083 -0.0395  0.1851 -0.2462
10002W        W26136   8.880  13.919  12.245  0.0688 -0.0010 -0.2271
10003W        W26137  13.671   6.664  12.291  0.2640  0.2077  0.1363
10004W        W26138  12.672   7.274  12.344 -0.2125  0.1600 -0.4381
10005W        W26139   7.297  16.483  12.088 -0.1025  0.2166 -0.0089
10006W        W26140  11.995   1.787  12.381  0.0415 -0.0181 -0.1265
10007W        W26141   5.846   7.909   4.078  0.1203 -0.1795 -0.1007
10008W        W26142   5.922   3.535  14.938  0.0861  0.2367 -0.0019
10009W        W26143  13.691   3.417  12.619 -0.0846 -0.0818 -0.0973
10010W        W26144  11.063   7.405  13.597 -0.5140 -0.2983  0.0500
10011W        W26145   0.802   4.118   0.741 -0.0666  0.0665  0.0283
10012W        W26146  14.287  17.339   5.308 -0.1308  0.0336 -0.1371
10013W        W26147  10.465   1.661   1.551 -0.1719 -0.1628  0.2468
10014W        W26148   2.340   3.852  11.800 -0.0312  0.2232  0.0230
10015W        W26149  16.527  13.083  14.023  0.3861 -0.1435 -0.0692
10016W        W26150   8.797   1.949   4.587 -0.4353 -0.2365 -0.0681
10017W        W26151  13.412  13.335   4.455  0.0602 -0.2206  0.0419
10018W        W26152  14.116   5.162   0.910 -0.1216 -0.1427  0.3279
10019W        W26153   2.120   5.093  12.448 -0.0660 -0.2139  0.0414
10020W        W26154   8.795   7.939   1.098  0.0943 -0.3907  0.2855
10021W        W26155   3.237  18.912   2.040  0.0555 -0.0897  0.0081
10022W        W26156   5.514   1.449  14.184  0.1381  0.2080  0.1328
10023W        W26157  10.484  15.940   3.532  0.0813 -0.1299 -0.1345
10024W        W26158  14.944  10.479   2.683 -0.3447  0.0920 -0.3250
10025W        W26159   6.606  10.472   0.833 -0.2566  0.1923 -0.0284
10026W        W26160  12.361  11.084   0.868 -0.0394 -0.0405 -0.4485
10027W        W26161   9.588   7.729   0.849 -0.1949 -0.2236 -0.2706
10028W        W26162  17.762  17.655  11.895 -0.0494  0.0506 -0.1293
10029W        W26163  10.226   1.822  11.557  0.1852 -0.0097 -0.0875
10030W        W26164  16.640  13.359   0.912  0.1434  0.4108 -0.0658
10031W        W26165  13.831   2.421  14.296 -0.0214 -0.2481 -0.1239
10032W        W26166   7.793  15.985  10.442 -0.2460  0.2803 -0.3928
10033W        W26167  10.169  16.485   2.136  0.1990 -0.0159  0.3205
10034W        W26168   7.866  17.601  13.926  0.3101 -0.0674  0.2163
10035W        W26169   1.715   2.207   0.287  0.0584 -0.2085 -0.0806
10036W        W26170  12.142  16.522   2.255 -0.2458 -0.0242  0.3169
10037W        W26171   6.554   7.750   9.969 -0.3349 -0.0040 -0.1129
10038W        W26172  16.497   7.569   4.171  0.0808  0.0383  0.0951
10039W        W26173   1.739  18.299  13.782 -0.0692  0.1130  0.1809
10040W        W26174  12.633   1.084   1.113 -0.0596 -0.0095  0.0181
10041W        W26175   7.653   5.862   2.323 -0.0770 -0.3596  0.3972
10042W        W26176  16.828   2.182  13.015 -0.2011 -0.0641 -0.1545
10043W        W26177   0.997  13.616  13.454  0.0688 -0.1202 -0.1406
10044W        W26178  11.012   5.917   5.402 -0.2112  0.0236  0.1985
10045W        W26179  18.345  14.656   3.910  0.0984  0.1444  0.2846
10046W        W26180  14.155  18.515   2.295 -0.0970 -0.0329  0.2832
10047W        W26181  12.109   5.030  13.619  0.3380  0.0122  0.1294
10048W        W26182   1.705  13.182  13.006  0.0313 -0.0397 -0.1231
10049W        W26183  12.364  16.066   5.176  0.2160 -0.1843  0.6273
10050W        W26184  13.828  10.137  14.396  0.1974  0.2763 -0.2051
10051W        W26185   5.194   7.586  14.047 -0.0265  0.1577 -0.0254
10052W        W26186   1.135  16.437  11.254  0.0121 -0.3500  0.1185
10053W        W26187  15.285   7.789   1.980 -0.2665  0.1865  0.2088
10054W        W26188  18.711   1.691  13.640 -0.0389 -0.0245 -0.2062
10055W        W26189   8.236   5.370   2.795  0.2470 -0.0303  0.2302
10056W        W26190   0.323   9.598   4.354 -0.2465 -0.1998 -0.1442
10057W        W26191  12.744  12.816   0.071 -0.0200 -0.0141 -0.1805
10058W        W26192   7.278   7.672  13.186  0.4917 -0.0993  0.0577
10059W        W26193  19.117  17.900   5.039  0.1434  0.0332  0.2125
10060W        W26194  15.255  18.277  13.127 -0.1473  0.0896 -0.1094
10061W        W26195   6.513   0.838  12.542  0.0093 -0.0811  0.0093
10062W        W26196   7.723   8.262  15.206  0.0893 -0.1248 -0.1009
10063W        W26197   3.750  10.389  12.177 -0.3467  0.1407 -0.1840
10064W        W26198   2.128  13.254  12.682 -0.2156 -0.2102 -0.2260
10065W        W26199   8.772  14.174  13.537  0.2623 -0.0254  0.1650
10066W        W26200   2.958   4.772  13.491 -0.1398 -0.1363 -0.1191
10067W        W26201   2.878  18.008   2.869  0.2262  0.1392 -0.2462
10068W        W26202   2.911   4.095   2.235 -0.1553  0.0476  0.2671
10069W        W26203   5.041  13.118   1.055  0.0177  0.0953  0.1000
10070W        W26204  10.570   5.210   4.747  0.0756  0.0485 -0.0615
10071W        W26205   1.035   9.811  12.539 -0.4110 -0.0727 -0.0735
10072W        W26206  13.418   8.872  13.571  0.0365 -0.1777  0.1029
10073W        W26207   6.602  15.477   0.977 -0.3756  0.0782 -0.2100
10074W        W26208   7.212   1.910  13.152 -0.1649  0.0710  0.2449
10075W        W26209   9.141   7.247  14.295 -0.0239 -0.3555  0.0994
10076W        W26210   9.723   6.672  13.580  0.1735 -0.0925 -0.1535
10077W        W26211  14.507   7.391  11.158 -0.0694 -0.1115 -0.2320
10078W        W26212  10.051   2.976   2.810  0.3991  0.2398  0.1935
10079W        W26213  15.331  16.632   1.125  0.0117  0.1333 -0.0780
10080W        W26214  15.953   3.253   1.674 -0.0836  0.1301  0.0265
10081W        W26215   7.794   2.367   0.301  0.1022 -0.0030  0.0078
10082W        W26216  10.748  15.871   1.543  0.1908 -0.2343  0.0207
10083W        W26217   4.119   5.567   1.363 -0.2051 -0.2098  0.0400
10084W        W26218   4.729  12.711   0.977 -0.1155  0.1097  0.0256
10085W        W26219  15.014   1.723  10.594 -0.0026  0.0050  0.2104
10086W        W26220  19.085   5.755  13.527  0.2941 -0.1976 -0.1982
10087W        W26221  13.784   6.874  14.890 -0.2802  0.0720  0.0501
10088W        W26222  12.317   2.683  11.646  0.2542  0.3173  0.5755
10089W        W26223   3.835   3.751  11.275 -0.1023  0.0816 -0.0143
10090W        W26224  18.373  18.891  14.818  0.1292 -0.0449  0.0838
10091W        W26225  16.123  19.021   4.527  0.0251  0.0018  0.2247
10092W        W26226   8.735   5.198   5.445 -0.2165  0.1040  0.1151
10093W        W26227  14.570  17.687   3.051  0.1866  0.1963 -0.0309
10094W        W26228   3.148  11.262   2.297 -0.0926  0.1579 -0.0540
10095W        W26229   6.094  13.276   5.444 -0.5081  0.1444 -0.0393
10096W        W26230  14.111  11.063   1.123  0.4484  0.0592  0.0131
10097W        W26231   0.393  10.492  12.177 -0.0030 -0.1975  0.1018
10098W        W26232  18.113  14.350  14.892 -0.1368  0.0081  0.3255
10099W        W26233  16.305  14.017   4.289  0.1633 -0.0125  0.1568
10100W        W26234  14.505   9.168  11.349 -0.4167 -0.0153 -0.0473
10101W        W26235   1.053   1.218   0.145  0.1788 -0.3040 -0.3249
10102W        W26236   0.246   0.688   4.329  0.0233 -0.1099 -0.2622
10103W        W26237  12.498  11.545  13.210  0.1301  0.1703  0.0063
10104W        W26238  12.297  10.514   2.672 -0.2911  0.0908  0.1949
10105W        W26239   7.317   9.305  12.379  0.1143  0.2221  0.0319
10106W        W26240   8.035  16.613  10.651 -0.0337  0.0881  0.2123
10107W        W26241   8.098  15.631   2.847 -0.2222 -0.1363 -0.2683
10108W        W26242  15.731   7.266   3.275 -0.1710 -0.2069 -0.2799
10109W        W26243  16.881  11.329  12.650 -0.0236 -0.0966  0.2640
10110W        W26244  12.711  15.364  13.527  0.1064 -0.4305  0.4318
10111W        W26245  15.929  17.103   0.503  0.0173 -0.0454  0.1876
10112W        W26246   9.196  15.136  11.101  0.2000 -0.3828  0.1864
10113W        W26247  11.254  12.706  13.073 -0.0394  0.2238  0.0414
10114W        W26248   5.573   9.364  11.111 -0.4098 -0.1114  0.3237
10115W        W26249  17.792  16.731   3.241  0.1354  0.1226  0.0634
10116W        W26250   5.556  16.362  11.168 -0.0117 -0.2773  0.2001
10117W        W26251  15.693  18.772   4.486  0.0710 -0.0048  0.1471
10118W        W26252   7.002   1.478   1.534  0.0528  0.2874  0.3240
10119W        W26253   2.311  18.750   2.947 -0.1749 -0.0968 -0.0960
10120W        W26254  14.304  16.887   1.439  0.1240 -0.2123 -0.0538
10121W        W26255  18.530  18.516   1.901 -0.3311 -0.1318 -0.0990
10122W        W26256  14.015   2.571   4.104  0.2102 -0.1618  0.0872
10123W        W26257   0.805  16.852   4.148  0.0196 -0.0376  0.1836
10124W        W26258  11.451   3.411   3.820 -0.0804  0.2560 -0.1304
10125W        W26259  16.504   1.797  11.596  0.2222  0.0043  0.1401
10126W        W26260   0.935   1.006  12.776  0.1698 -0.3388 -0.1823
10127W        W26261   9.646   3.590  11.715  0.2906  0.3806  0.1927
10128W        W26262  12.147   9.437  10.363 -0.0964 -0.0366  0.4808
10129W        W26263  14.038   9.866   0.583  0.0866 -0.2836 -0.2418
10130W        W26264   2.949   8.393  13.912  0.0136  0.0614  0.1235
10131W        W26265  15.179   0.230   1.654  0.0447  0.2517  0.0588
10132W        W26266   7.849   9.641  13.430  0.1884 -0.0852 -0.0905
10133W        W26267  18.337   3.048   2.554 -0.0937 -0.0238 -0.1890
10134W        W26268   7.797   9.089   3.210 -0.3920 -0.0643 -0.0369
10135W        W26269   4.969  12.516  13.225 -0.0505  0.1846 -0.0749
10136W        W26270  15.862  11.474   4.744 -0.1589 -0.0441 -0.2106
10137W        W26271  17.873  16.089   4.396  0.0958 -0.2019  0.0210
10138W        W26272  14.404  18.540   0.635 -0.1078  0.1243 -0.0014
10139W        W26273   5.230  17.733   1.101 -0.1325 -0.1650 -0.1031
10140W        W26274  14.071  18.244  10.796  0.0418  0.1371 -0.4347
10141W        W26275   4.440   2.605  11.796  0.1000 -0.0581  0.4909
10142W        W26276  19.033   8.026  11.449 -0.2242  0.4163  0.2637
10143W        W26277  16.482   5.708  13.292  0.0503 -0.0195  0.1343
10144W        W26278  10.182   7.941  12.365  0.0318 -0.0672  0.2169
10145W        W26279   5.309  19.076   4.660 -0.1599  0.0797 -0.1559
10146W        W26280  18.726   6.881   4.393  0.0688  0.2647  0.0097
10147W        W26281  15.503  13.572  11.913  0.2234 -0.0430  0.2893
10148W        W26282   3.910   6.100  14.655 -0.0996 -0.0662  0.1638
10149W        W26283   9.802   8.871   3.388  0.0248  0.0556  0.0825
10150W        W26284  12.627   9.965   0.580 -0.0160 -0.1024 -0.1352
10151W        W26285   3.066   5.877  14.405  0.0211 -0.0923 -0.2392
10152W        W26286   3.555   7.287  13.028 -0.0891 -0.2185 -0.0043
10153W        W26287   1.800  10.199  12.815 -0.1621 -0.1703 -0.0986
10154W        W26288   1.113   5.973   3.143  0.1367  0.2496 -0.0977
10155W        W26289  16.179   4.267  12.542 -0.0953 -0.2756  0.1748
10156W        W26290   1.693   9.186  15.025  0.0169 -0.1197  0.1429
10157W        W26291   6.492  11.962   5.522  0.3751  0.0790 -0.0814
10158W        W26292  11.069  16.617   0.201  0.0016  0.1862  0.1031
10159W        W26293  17.348   5.824   0.711 -0.0636  0.3365 -0.0039
10160W        W26294  12.054   8.992   5.063 -0.0582  0.2412 -0.3698
10161W        W26295  17.522  19.092  11.114  0.0780  0.3466 -0.0498
10162W        W26296  13.814  11.784  15.101  0.1254 -0.1503 -0.0364
10163W        W26297   6.359   3.732   3.657 -0.2448 -0.0083  0.0539
10164W        W26298  15.030   1.710  15.009 -0.0158 -0.2732  0.0180
10165W        W26299  17.418   3.854  14.268  0.2480  0.0296 -0.2000
10166W        W26300  14.740   2.371   0.336  0.0871  0.0697 -0.0270
10167W        W26301   9.689   8.706   0.878 -0.1584  0.0051 -0.1037
10168W        W26302   2.771  18.930   9.415 -0.3408  0.0614  0.2891
10169W        W26303  14.955   8.126  10.663 -0.2606  0.0251 -0.2411
10170W        W26304   8.662  13.389  14.198 -0.0434  0.2311  0.0305
10171W        W26305   1.543  13.214  10.331 -0.0598 -0.1230 -0.0563
10172W        W26306   4.890  16.198  14.140  0.0347 -0.2518  0.0930
10173W        W26307   1.187  17.861   2.261 -0.0412 -0.3004 -0.2079
10174W        W26308   7.010   9.443  13.381  0.1949  0.2549 -0.2626
10175W        W26309  19.025  16.993  11.253 -0.2299 -0.2927 -0.0159
10176W        W26310   7.578  16.480  11.637 -0.1380 -0.3679  0.0965
10177W        W26311  17.949   7.991   0.985  0.0682  0.5834  0.0370
10178W        W26312  11.186   5.288   4.796  0.2536 -0.3374  0.0155
10179W        W26313  12.821   0.045   3.336 -0.1491  0.3125 -0.0078
10180W        W26314   1.104   3.174   3.812 -0.0116  0.0347 -0.0104
10181W        W26315   3.686  18.746  10.857  0.0351  0.1340 -0.1624
10182W        W26316   7.352   0.064   4.898 -0.0996 -0.2110 -0.3429
10183W        W26317   4.450   9.132   0.542  0.1015  0.0118 -0.2223
10184W        W26318  18.527   4.964  13.543 -0.2255  0.0386 -0.2475
10185W        W26319   1.519   8.107  15.094  0.1026  0.0375 -0.1873
10186W        W26320  14.572   8.183  11.923  0.1871 -0.2310  0.0579
10187W        W26321   0.246   9.908  14.605 -0.0250 -0.4562 -0.1687
10188W        W26322  14.349  19.025  14.897 -0.0294 -0.0564 -0.0157
10189W        W26323  15.251   5.633   1.085  0.2638 -0.0296  0.1483
10190W        W26324  14.850  11.097   0.672  0.0735 -0.0183 -0.0534
10191W        W26325  10.603   0.730   5.204 -0.0788  0.2016  0.0522
10192W        W26326  12.526   8.008   0.256 -0.2913 -0.2001  0.0606
10193W        W26327   0.096   2.686  11.578  0.1895  0.1847  0.2076
10194W        W26328  10.475   1.502   0.633 -0.0383 -0.0555 -0.2157
10195W        W26329   8.770   6.844   3.645  0.0899 -0.3104 -0.0943
10196W        W26330   2.235   3.137  11.707  0.0711  0.0355 -0.0486
10197W        W26331  16.181  14.413  12.054 -0.5149  0.0562 -0.1725
10198W        W26332   1.056   2.768  12.599  0.1684  0.1209  0.5177
10199W        W26333  18.051   2.828  15.169  0.2146  0.0139 -0.1491
10200W        W26334  12.004  13.523  10.611 -0.1279 -0.2069 -0.0961
10201W        W26335  18.995   5.398   4.804 -0.2694 -0.0853  0.0345
10202W        W26336   6.319   6.484  13.519 -0.1265 -0.3302  0.2509
10203W        W26337  10.632  16.275  11.891 -0.4443  0.1347 -0.0723
10204W        W26338   4.959  19.066   0.459 -0.1754  0.1624  0.0723
10205W        W26339   1.612   7.919   4.422 -0.0925  0.0343 -0.0118
10206W        W26340  14.649   0.625   2.145 -0.0128 -0.0954 -0.1361
10207W        W26341   3.624  11.301  13.068 -0.1004 -0.1609  0.1986
10208W        W26342   5.921   0.847   2.716  0.0023 -0.2743 -0.1980
10209W        W26343  14.752  10.931   3.440  0.0481  0.2516  0.4203
10210W        W26344  16.741  18.508   1.146  0.0576  0.0290 -0.0562
10211W        W26345  13.747  12.830  11.854  0.1660  0.2646  0.2832
10212W        W26346  14.692   9.579   0.884 -0.0952 -0.1244  0.1742
10213W        W26347   8.559   2.389  12.481  0.1110 -0.2504 -0.1041
10214W        W26348   3.999   8.007   0.543  0.0492 -0.2121 -0.2661
10215W        W26349  14.060  17.370   0.080  0.2351  0.0949 -0.3301
10216W        W26350  13.620  18.452   3.961 -0.2442 -0.2523  0.3617
10217W        W26351   4.192  11.068   4.106  0.4028  0.1695 -0.1174
10218W        W26352   9.133  15.909  11.679  0.0701 -0.2926 -0.0440
10219W        W26353  16.738   3.562  14.910 -0.2655  0.0501 -0.0111
10220W        W26354   9.454  12.276   1.412  0.2967  0.1043  0.0060
10221W        W26355   3.111  12.034  14.667 -0.5099 -0.0397 -0.0704
10222W        W26356  15.448   7.794   4.565 -0.0744  0.0324 -0.1300
10223W        W26357  17.763   7.627  12.962  0.2649 -0.1564 -0.1545
10224W        W26358  17.730   8.361  14.764 -0.0312  0.0477  0.0558
10225W        W26359   0.371  17.593   3.540  0.0255  0.0171  0.1791
10226W        W26360   1.075   7.285  10.253  0.1318 -0.1838  0.0658
10227W        W26361   0.192  19.057   2.315  0.0616 -0.0268  0.2017
10228W        W26362  10.877  18.432  10.412 -0.4160  0.1708 -0.0792
10229W        W26363   7.643   3.970  13.588 -0.1503 -0.0622 -0.3914
10230W        W26364   2.587   0.040   2.822 -0.1617 -0.0709 -0.2117
10231W        W26365   0.106   0.733   2.656 -0.0093 -0.0271  0.2347
10232W        W26366   6.883   1.041  11.021  0.3309 -0.0021  0.1010
10233W        W26367   7.946   0.782   5.022  0.2776  0.2153  0.1159
10234W        W26368  13.444  15.526  14.573  0.0683 -0.0358 -0.0772
10235W        W26369   5.138  15.050  13.031  0.1050 -0.0065 -0.2133
10236W        W26370  12.160  14.073   2.029  0.1582 -0.1038  0.1415
10237W        W26371  18.883  16.720   0.795 -0.2292  0.0683  0.1856
10238W        W26372  15.505   6.133   3.636 -0.0857 -0.0428 -0.0531
10239W        W26373  12.715   4.655   2.865 -0.0305 -0.0325 -0.0927
10240W        W26374   6.257   7.197   2.916  0.1425 -0.2312  0.1858
10241W        W26375   1.592  10.011  14.678 -0.1504  0.0569  0.1407
10242W        W26376   0.075  17.127  14.145 -0.3105  0.1482  0.1126
10243W        W26377   0.535  13.129   0.524  0.0668 -0.1070 -0.1497
10244W        W26378  11.374   3.846   1.394 -0.2373  0.4550 -0.1478
10245W        W26379   4.157  12.090   3.055 -0.0452 -0.2806  0.1103
10246W        W26380  15.332   8.567  11.360  0.0041  0.0731  0.2020
10247W        W26381   7.145   9.430  11.907  0.1963  0.0592 -0.0428
10248W        W26382  13.078   3.630   4.250  0.0217  0.1529  0.1530
10249W        W26383   2.224   2.369   0.367 -0.2726 -0.3129  0.1669
10250W        W26384  15.481  11.086  14.675 -0.1985 -0.1955  0.1945
10251W        W26385  15.056  18.650  13.713  0.0670 -0.3556  0.0150
10252W        W26386   1.812  17.020   0.280  0.1675 -0.0178 -0.0283
10253W        W26387  12.888   1.331   1.500  0.1538 -0.1514  0.0833
10254W        W26388  17.636   0.755   3.380  0.4779  0.1900  0.0752
10255W        W26389  10.026   8.014   2.861 -0.0966 -0.0720  0.0825
10256W        W26390   2.728  11.367   3.619 -0.1176  0.0487 -0.3453
10257W        W26391   0.329   5.139   2.079 -0.0172  0.1049  0.1343
10258W        W26392   6.662  10.574   1.693 -0.3197 -0.1700 -0.0427
10259W        W26393  16.982   7.030   3.883  0.4242  0.2595 -0.0621
10260W        W26394   6.393   4.838   1.756  0.3323 -0.1482  0.1379
10261W        W26395  16.615  15.365  10.917  0.2481 -0.3273  0.0441
10262W        W26396   6.592  11.552   2.966 -0.1483  0.1444  0.0160
10263W        W26397   3.963  13.500  11.216 -0.1181  0.1077  0.1244
10264W        W26398   7.754  11.108   5.960  0.0791  0.2784 -0.1547
10265W        W26399  13.891   4.508  12.428  0.0802 -0.1475  0.1081
10266W        W26400  13.692   2.410   2.326 -0.2667  0.0324  0.0567
10267W        W26401  13.090   4.622   4.381 -0.2933 -0.2024  0.0302
10268W        W26402  17.616  16.822   9.831 -0.1642  0.1502  0.2823
10269W        W26403   0.908  14.843   0.623 -0.2571  0.0500  0.1736
10270W        W26404  14.927   7.895  12.141 -0.3625 -0.0314 -0.0299
10271W        W26405   9.792  17.650  14.599 -0.4931  0.0522  0.1649
10272W        W26406  14.609  18.299   4.946  0.4338 -0.1614 -0.0976
10273W        W26407   8.931   5.888   3.659  0.0424 -0.4013 -0.1601
10274W        W26408  12.260   5.219  14.139  0.0054 -0.0984  0.2600
10275W        W26409   4.432   3.760  11.635  0.0428 -0.0226 -0.1811
10276W        W26410   1.309   9.396   9.334 -0.1821  0.2483 -0.0150
10277W        W26411   0.681  18.749  12.164 -0.2820 -0.7071 -0.2678
10278W        W26412   1.314  11.317  14.882  0.0997 -0.0347 -0.2439
10279W        W26413  10.412   7.253   1.781 -0.0822 -0.0958  0.0291
10280W        W26414   7.838  18.338  10.382  0.5083 -0.0108 -0.3501
10281W        W26415  11.699  12.758  12.293  0.0999 -0.1495 -0.2090
10282W        W26416  13.223   8.631   0.095  0.3027  0.1702  0.1395
10283W        W26417   3.890   6.333  11.930  0.1624 -0.1022 -0.0252
10284W        W26418  12.944   6.924  13.420  0.0333  0.1182  0.1081
10285W        W26419   1.411   2.122  15.069 -0.1084 -0.0097  0.4377
10286W        W26420   3.851  10.466   4.483 -0.0296 -0.0558  0.0523
10287W        W26421   9.072  12.323   9.985 -0.3477  0.1678 -0.0804
10288W        W26422  12.774   3.208  11.342 -0.1514 -0.0271  0.1146
10289W        W26423   6.267  10.311  15.074  0.2708  0.1115  0.0299
10290W        W26424   1.232  17.229   4.354  0.0175 -0.1425 -0.0165
10291W        W26425  17.271   3.369   2.162 -0.0740 -0.2459 -0.0702
10292W        W26426   7.061  14.560  10.427  0.0197  0.2115 -0.0438
10293W        W26427  10.534  10.112   1.882 -0.0168  0.1675  0.1036
10294W        W26428  10.192   8.157   5.285  0.3713  0.1232  0.2560
10295W        W26429  13.980  11.322   3.035  0.1278 -0.1719  0.0216
10296W        W26430  18.872  15.301   9.558 -0.1003  0.1566  0.5666
10297W        W26431  18.420   6.024   3.573  0.3137  0.1629 -0.1937
10298W        W26432  14.580   6.616  12.524 -0.1453  0.5783  0.1885
10299W        W26433  13.515  17.019  14.140 -0.0738 -0.1955 -0.0624
10300W        W26434   0.126   1.805   0.213 -0.2190  0.3984 -0.1195
10301W        W26435  13.096  16.580  12.034 -0.1042  0.0384  0.1026
10302W        W26436   8.532   0.480  11.731 -0.1107  0.3948 -0.0243
10303W        W26437  16.946  17.682   4.425 -0.5696 -0.0743  0.1598
10304W        W26438   7.930   5.494  13.092 -0.1582 -0.0372  0.1215
10305W        W26439   5.877  14.058  14.275  0.0370 -0.0964  0.0854
10306W        W26440  13.282   7.246   2.305 -0.0982  0.0126  0.0309
10307W        W26441   3.454   7.134   4.481 -0.2676 -0.0870 -0.4812
10308W        W26442  15.768   1.421  11.878  0.1386  0.1895  0.1462
10309W        W26443   2.780  18.348  14.687 -0.1945 -0.2292 -0.1795
10310W        W26444  12.372  12.777   1.887 -0.1133 -0.0765  0.1518
10311W        W26445  12.107   9.247  12.180 -0.3551 -0.3910  0.1868
10312W        W26446   8.312   7.074   2.834  0.1822 -0.1056  0.2853
10313W        W26447  18.540   9.695   4.376  0.1014 -0.4061  0.0487
10314W        W26448  10.121  10.826  13.058 -0.0773  0.2721 -0.0385
10315W        W26449   6.115   1.669  14.850  0.1247  0.4053  0.0683
10316W        W26450  18.599   5.477   0.417 -0.2758  0.1594  0.0042
10317W        W26451   9.070   2.004  11.582 -0.0715 -0.4934  0.0530
10318W        W26452   6.207  11.582  13.323 -0.3515  0.0528  0.1083
10319W        W26453  18.904   9.629   3.707  0.0860  0.3386  0.1276
10320W        W26454   0.333   6.567   4.770 -0.0298  0.1486  0.0582
10321W        W26455  17.687  10.202   1.496  0.1171 -0.0423  0.2782
10322W        W26456  11.765  15.458  12.921 -0.0523  0.2296 -0.3582
10323W        W26457  14.149  16.363   3.593  0.3337  0.0345  0.2367
10324W        W26458  12.119   4.422  12.600  0.3280  0.0335  0.0071
10325W        W26459   5.672  13.028   4.976 -0.0463 -0.0761  0.0512
10326W        W26460   9.959   9.760   0.896 -0.1093  0.0213 -0.2287
10327W        W26461  16.331  16.348  14.217 -0.1314 -0.0307  0.0855
10328W        W26462  10.602   9.885   4.812 -0.0429  0.2500  0.0804
10329W        W26463  13.942  13.482  14.494 -0.3169  0.4344 -0.3610
10330W        W26464   6.085   5.722  14.418  0.3790 -0.0985  0.0248
10331W        W26465  15.651   6.414  11.701  0.1399 -0.0632 -0.0124
10332W        W26466   2.139  12.624   4.923  0.0306  0.5324  0.0660
10333W        W26467   4.561   0.991  10.827 -0.5647 -0.0667 -0.0014
10334W        W26468  12.833   6.966  12.724 -0.0428  0.0379 -0.1112
10335W        W26469  18.340   8.753   5.358  0.1252 -0.1016 -0.0308
10336W        W26470  17.534   1.157   1.530 -0.1140 -0.0528  0.3223
10337W        W26471   6.067   3.143  14.039 -0.1444  0.1921 -0.0035
10338W        W26472   0.260   7.990   0.349 -0.0453 -0.0544  0.0964
10339W        W26473  14.841  10.428   1.409  0.0946  0.0735 -0.0591
10340W        W26474   1.539   7.349   0.221 -0.2595 -0.0007  0.0099
10341W        W26475   4.045   0.852   3.189  0.0140  0.0230  0.0627
10342W        W26476   6.789  14.292  12.817 -0.0078 -0.0847  0.2218
10343W        W26477  11.039   0.472  10.718 -0.1168 -0.0010  0.3957
10344W        W26478   7.265   9.884   1.602 -0.3508 -0.0301 -0.3539
10345W        W26479   6.854   2.013  14.335 -0.1749 -0.1087 -0.1395
10346W        W26480  10.220  12.824   4.020  0.1338 -0.2511 -0.3060
10347W        W26481  13.902   1.187   4.492  0.2222  0.0952 -0.1408
10348W        W26482  17.424   2.739  11.531 -0.3485 -0.1146 -0.0646
10349W        W26483  17.973   2.645  10.470  0.2319  0.1147  0.2818
10350W        W26484  11.994   1.682   3.172 -0.0684 -0.0203  0.0785
10351W        W26485  12.605   7.331  15.087  0.2808  0.0421  0.1294
10352W        W26486  17.681   0.980  13.163 -0.0994  0.1945 -0.0994
10353W        W26487  11.743   9.924   5.445  0.0679 -0.1220  0.0407
10354W        W26488   5.367   6.763  13.917  0.1377  0.0586  0.2674
10355W        W26489   0.604   9.804  11.493 -0.0029  0.5347  0.2087
10356W        W26490   9.498  10.274  11.484  0.0762 -0.0507  0.1163
10357W        W26491  17.077   2.673  10.826  0.1188 -0.0582 -0.0051
10358W        W26492  15.478  17.464   0.536 -0.0177 -0.3345  0.0288
10359W        W26493  17.915  11.222   2.964 -0.0198 -0.2330 -0.1414
10360W        W26494  13.677  16.545   4.837  0.2680 -0.1197 -0.2366
10361W        W26495   0.521   9.096   4.317  0.2084 -0.3772  0.2405
10362W        W26496   0.043  13.903   2.774 -0.1095  0.0588  0.0941
10363W        W26497   2.493  19.132   3.579 -0.1710 -0.1359 -0.1770
10364W        W26498  18.880   6.466   0.576 -0.2542  0.0482 -0.3138
10365W        W26499   1.301   4.499  11.596  0.2332 -0.0401 -0.2173
10366W        W26500   5.906  11.702   4.205  0.1824  0.1209  0.3772
10367W        W26501   3.254  10.689   2.952  0.1479 -0.0486 -0.2040
10368W        W26502  11.057   2.263  14.751 -0.0659 -0.2864 -0.5629
10369W        W26503   3.068  15.350   1.828 -0.0773  0.0201 -0.0053
10370W        W26504   9.239  17.731  12.041 -0.3452 -0.2152 -0.3260
10371W        W26505  15.033   0.807  13.886 -0.0993  0.2057 -0.2521
10372W        W26506  12.418   3.975   4.782  0.0317 -0.2298  0.4324
10373W        W26507  14.371   0.874  11.919  0.2805 -0.0737  0.0036
10374W        W26508   1.909  17.781  12.248  0.2096 -0.0097  0.2658
10375W        W26509  15.076  16.469  11.987 -0.1667  0.2018  0.6101
10376W        W26510  11.755   9.001   4.671  0.0464  0.0565  0.1444
10377W        W26511  15.345   9.070   4.069  0.2981 -0.2319  0.1715
10378W        W26512  11.991  11.305   3.529 -0.1489 -0.0822 -0.1891
10379W        W26513  15.446   3.176   0.255  0.1127  0.5673  0.0033
10380W        W26514   8.529   5.664  11.947  0.0816  0.0956 -0.0199
10381W        W26515  16.632  18.408   4.777  0.2414 -0.0597  0.0524
10382W        W26516  10.330  15.982   1.259  0.2384  0.2824  0.0751
10383W        W26517   6.205  17.107  11.027  0.1116 -0.2023 -0.1004
10384W        W26518   8.583   6.610  13.562 -0.1062 -0.4242 -0.1199
10385W        W26519  17.416   4.132   3.809  0.2657 -0.0657  0.3720
10386W        W26520   2.152  11.988  11.067  0.0811 -0.0745  0.0501
10387W        W26521  11.262   9.975  15.116  0.0319 -0.1997  0.3327
10388W        W26522   7.321  16.127  11.212 -0.0370  0.0706  0.0165
10389W        W26523   1.575  17.338   5.019  0.1117  0.1380 -0.4623
10390W        W26524  14.997  11.759  14.977  0.0155  0.0660 -0.2963
10391W        W26525   5.095  11.470  10.091  0.0523  0.1574 -0.1970
10392W        W26526  12.426  17.141  13.826 -0.0260 -0.0503 -0.4399
10393W        W26527  12.766   2.988   1.379 -0.2491  0.1043  0.1622
10394W        W26528  18.100   1.307   1.327 -0.4717 -0.0377  0.2804
10395W        W26529   2.189   6.220  11.525 -0.0355 -0.0074  0.2526
10396W        W26530   8.502  14.106  12.531  0.1890  0.0072 -0.0343
10397W        W26531   5.001   4.406  11.508  0.0408  0.2622 -0.0773
10398W        W26532  17.239   9.743   0.513  0.0555  0.3423 -0.0865
10399W        W26533   3.974  18.397  11.245  0.0283  0.3161 -0.4000
10400W        W26534   5.471  15.134   1.773 -0.2123 -0.2288 -0.0874
10401W        W26535   9.178   5.373   5.140  0.1747  0.0583 -0.2562
10402W        W26536  11.810  16.849  15.176 -0.1528 -0.4632 -0.1176
10403W        W26537  14.142   3.606   0.718 -0.1829 -0.3915  0.0666
10404W        W26538  13.901  16.732   4.068 -0.0789 -0.1543  0.2412
10405W        W26539  13.415   6.705  13.252 -0.0517  0.2584  0.0486
10406W        W26540   2.168   8.087   0.223 -0.1499 -0.0294 -0.0020
10407W        W26541  14.907   0.476   0.008  0.0202  0.1714 -0.0425
10408W        W26542   2.861  13.789  13.141  0.0773 -0.2110  0.3040
10409W        W26543   3.343  18.189  14.052  0.0426  0.3950 -0.0304
10410W        W26544  13.152  15.898   5.215  0.0018 -0.0488 -0.2739
10411W        W26545  17.274   2.733   3.249  0.1143 -0.2299  0.0929
10412W        W26546  17.839   4.264  13.188  0.1934  0.0071 -0.1598
10413W        W26547  17.405  17.237   2.200  0.1076  0.0835 -0.1257
10414W        W26548  14.778   1.899   2.521  0.0555  0.2274 -0.3360
10415W        W26549  11.869   3.921   1.576  0.3369 -0.3418 -0.1400
10416W        W26550  11.266   2.315   1.778 -0.1316 -0.0160 -0.1231
10417W        W26551   3.633  17.883  14.935 -0.1611 -0.2340 -0.1736
10418W        W26552  12.287  18.845   0.214  0.2781  0.2243 -0.2317
10419W        W26553  11.886  16.443  14.907  0.2994  0.0614  0.3576
10420W        W26554   7.965   7.206  10.097  0.2386  0.2422  0.0939
10421W        W26555   6.115  12.824   0.357 -0.2562  0.1216  0.2517
10422W        W26556  14.225  10.531   2.390  0.1835  0.2683 -0.1329
10423W        W26557   3.220   8.766  11.778  0.3244  0.4105  0.2577
10424W        W26558   4.240  13.256   1.767  0.2540 -0.1433  0.1065
10425W        W26559   3.697   4.132   2.532 -0.4211  0.0753 -0.0001
10426W        W26560  14.949  18.244  11.707 -0.3230 -0.0316  0.0131
10427W        W26561   0.838   7.900  10.263  0.0821  0.0931 -0.1553
10428W        W26562  13.418  18.208  10.657  0.0218  0.0868  0.0201
10429W        W26563  12.610  18.764   3.156  0.2671 -0.4499  0.1003
10430W        W26564   0.276  16.896   2.253 -0.0005  0.1384 -0.1056
10431W        W26565   2.985   0.697   2.180  0.3370  0.0951 -0.2527
10432W        W26566   6.217  18.990   9.688  0.0619 -0.1175  0.0281
10433W        W26567  15.466   0.847  12.324 -0.1476  0.0422 -0.1822
10434W        W26568   8.545  11.595   3.741 -0.1047  0.1199 -0.0410
10435W        W26569  17.970  11.699   3.145 -0.1227 -0.1448 -0.0705
10436W        W26570  13.243  16.484   1.937 -0.1219  0.1431  0.1344
10437W        W26571  16.679  18.011   5.073 -0.2363 -0.2206  0.3334
10438W        W26572   9.558   8.264   0.986 -0.1445 -0.1592 -0.0256
10439W        W26573   3.785   9.911   9.985 -0.0960 -0.1288  0.1450
10440W        W26574   2.707   8.327  12.832  0.2259 -0.2985  0.5060
10441W        W26575   2.071  12.745  12.437 -0.1838  0.4127 -0.3080
10442W        W26576   9.956   9.857  12.282 -0.0499  0.1230  0.2258
10443W        W26577  16.841  13.334  12.225 -0.1844  0.0036 -0.0648
10444W        W26578   3.584   2.184  10.569 -0.1704  0.0371  0.1367
10445W        W26579  17.100   2.445   1.063 -0.0206  0.4797  0.1101
10446W        W26580   2.302  13.800  12.837  0.0169 -0.2198  0.2269
10447W        W26581  19.045   4.589   3.599  0.0885 -0.2506  0.0483
10448W        W26582   0.078  18.017   4.380  0.0109 -0.0892  0.2025
10449W        W26583  13.617  16.370  11.073 -0.0668 -0.2857  0.2505
10450W        W26584   7.382   7.442  12.741  0.1335 -0.1526 -0.2133
10451W        W26585  16.268  19.034  11.137  0.3900  0.1516  0.1942
10452W        W26586   6.562   6.063   3.582  0.2485  0.1208 -0.0052
10453W        W26587  12.179   9.874   4.855 -0.1546  0.1886 -0.0495
10454W        W26588   4.821  18.841   3.298 -0.4574  0.1560  0.2283
10455W        W26589  13.955   8.261   5.065  0.1567 -0.0784  0.1762
10456W        W26590   0.163   6.331  11.624 -0.0816 -0.0618  0.0554
10457W        W26591  15.453  12.990   3.145  0.2086 -0.1760  0.0930
10458W        W26592   4.505  17.071  14.614  0.1081  0.1584  0.0592
10459W        W26593   4.724   9.430  11.345  0.1155  0.4186 -0.0369
10460W        W26594  16.557  12.102  13.121  0.1238  0.2909 -0.0622
10461W        W26595  15.670   9.135   4.528 -0.1838 -0.0656 -0.3283
10462W        W26596  17.845  13.185   3.017 -0.2041  0.1679 -0.2481
10463W        W26597   0.253  10.781  14.865  0.0585 -0.0538 -0.1638
10464W        W26598   3.462  14.709   1.099 -0.1209  0.1155 -0.0164
10465W        W26599  14.739  12.229   2.192 -0.2881  0.3685 -0.0091
10466W        W26600  18.064  17.981  11.698 -0.0940 -0.0129  0.2217
10467W        W26601   9.212   1.945   3.208 -0.1908  0.1373 -0.1909
10468W        W26602   0.600   4.167   4.746  0.0870 -0.1512  0.1357
10469W        W26603   3.182  11.882   5.007 -0.1906 -0.0533 -0.3922
10470W        W26604  15.789   4.480   4.829  0.0580  0.0150  0.0342
10471W        W26605  18.162   7.745  12.071 -0.0628 -0.0464 -0.1960
10472W        W26606   8.906   9.474   3.836 -0.1207  0.4808  0.4206
10473W        W26607   0.027   5.652   4.434 -0.1277  0.1463  0.2617
10474W        W26608  18.049  17.222   3.533 -0.0318  0.1454 -0.1459
10475W        W26609  14.068   5.852  15.075 -0.2126  0.0995  0.0689
10476W        W26610  17.912  16.274  14.991  0.0428 -0.5245  0.1572
10477W        W26611  17.815  11.064  10.727 -0.2077 -0.0150  0.1595
10478W        W26612   2.250  14.253  11.926  0.0549  0.0494 -0.0067
10479W        W26613   3.937  15.045   3.098 -0.1860  0.3184 -0.1543
10480W        W26614   7.786   8.858   2.771 -0.1198  0.1505  0.1463
10481W        W26615   6.889  14.166   5.297  0.1051 -0.3083 -0.2252
10482W        W26616   9.044   2.245  13.016  0.0005 -0.3896 -0.2811
10483W        W26617   5.084  12.164   1.774 -0.1597 -0.1730 -0.0816
10484W        W26618  16.369   3.091  14.471 -0.3578  0.1462  0.0416
10485W        W26619  10.824   2.396   0.934  0.1941  0.2698 -0.1296
10486W        W26620  11.681  13.069  14.701 -0.2878 -0.1026  0.0483
10487W        W26621   3.207   5.580   2.971 -0.3042  0.2230 -0.4443
10488W        W26622   5.214  16.877   0.333  0.0178  0.0387 -0.0203
10489W        W26623   6.174  12.041  15.056  0.0194  0.0497  0.4569
10490W        W26624  16.682   0.148  14.780  0.1227  0.0270 -0.2707
10491W        W26625   1.042  13.278   4.880 -0.0296  0.0343  0.1953
10492W        W26626  10.645  16.805  11.947 -0.1627 -0.0904 -0.1610
10493W        W26627   2.139  16.888   0.699  0.0685  0.1137 -0.1723
10494W        W26628  12.510  12.463   9.469  0.2300  0.0849 -0.0240
10495W        W26629  18.227   1.558  12.096 -0.1728  0.3034 -0.3988
10496W        W26630   3.267   8.721  13.636 -0.0898 -0.3471 -0.0523
10497W        W26631  14.693   3.440   0.839  0.2210 -0.2494 -0.0214
10498W        W26632  10.888  15.783  12.838 -0.3203 -0.0879  0.0523
10499W        W26633   8.490   6.055   3.776  0.4549  0.2027 -0.1846
10500W        W26634  12.399   2.629   3.509 -0.0724  0.0999  0.1165
10501W        W26635   9.932   3.786   2.522 -0.1227 -0.2284  0.0951
10502W        W26636   8.917   0.662   5.064 -0.2584  0.1853  0.0673
10503W        W26637   7.784   6.986  13.476  0.2107 -0.0694  0.1956
10504W        W26638   3.728   7.935  10.769 -0.1426 -0.2779 -0.5100
10505W        W26639  15.346   8.563  12.473 -0.0973  0.2414  0.1376
10506W        W26640   1.832   9.694  14.958  0.1738 -0.0572 -0.0842
10507W        W26641   4.762   9.147  10.396  0.0612  0.0602  0.1217
10508W        W26642  16.558   8.406   4.265  0.0435 -0.1381  0.1374
10509W        W26643  17.446   3.345  13.058 -0.0783 -0.1483  0.2333
10510W        W26644  11.308  10.380   0.822 -0.0208 -0.4381 -0.3056
10511W        W26645  16.242   8.104   2.158  0.1082 -0.2533  0.2760
10512W        W26646  16.145   8.394  15.069 -0.1036  0.2373 -0.1088
10513W        W26647   9.958  10.065  11.269 -0.2254 -0.1208  0.3021
10514W        W26648  14.836  13.404  14.043 -0.0215  0.1448  0.0621
10515W        W26649   8.427   5.757  11.393 -0.3760 -0.1558  0.2119
10516W        W26650  15.221  15.773   1.608 -0.0325  0.0628  0.0464
10517W        W26651   7.481  16.097   4.489 -0.0854 -0.3901  0.0088
10518W        W26652   7.097   8.217  13.747  0.2569 -0.0611 -0.3145
10519W        W26653   5.645  17.264   4.094  0.3150  0.0106  0.1608
10520W        W26654   3.034   7.675   2.765 -0.0061  0.2166  0.0959
10521W        W26655   1.405   7.395   0.675  0.1091 -0.0916 -0.1312
10522W        W26656   5.805   6.148   5.316 -0.0254 -0.0280 -0.0951
10523W        W26657   1.969  11.381  10.117  0.1792  0.1443 -0.0987
10524W        W26658  11.252  10.563  12.573  0.0058  0.0679  0.1036
10525W        W26659   3.864   6.121  12.511 -0.0048 -0.1221  0.0293
10526W        W26660  10.802   3.174  11.031  0.0474 -0.0566  0.2374
10527W        W26661  15.071   8.237   5.357 -0.2636  0.0630  0.0710
10528W        W26662   1.647   2.232   3.196  0.2783  0.1299 -0.2157
10529W        W26663   4.261   8.012  12.855 -0.1578 -0.0747 -0.0024
10530W        W26664   7.958   2.682   2.803  0.1413  0.0597 -0.1540
10531W        W26665   1.537  13.171   4.707  0.0072  0.2974  0.0287
10532W        W26666  15.735   5.584   1.509  0.3943 -0.1532  0.4496
10533W        W26667  14.834  13.559  11.378  0.0464  0.0910  0.0287
10534W        W26668   9.578  14.829   3.983  0.1940 -0.0866  0.0399
10535W        W26669  11.295   7.910   0.859 -0.0327 -0.0462 -0.3189
10536W        W26670  15.752   4.988  10.566 -0.0686 -0.0324 -0.1711
10537W        W26671   3.414  14.493   4.857 -0.0245  0.0586  0.0013
10538W        W26672  18.127   2.720   1.381  0.0740  0.1068  0.1128
10539W        W26673   1.276   3.860   4.107  0.1275 -0.1815  0.0320
10540W        W26674   5.950   7.639   5.310  0.0717 -0.3369  0.1551
10541W        W26675  11.205   0.116  12.117 -0.2100 -0.0242  0.1787
10542W        W26676   1.889  16.642   3.620 -0.1797 -0.2943 -0.0754
10543W        W26677   2.627   6.032  11.261 -0.1376  0.0259 -0.1148
10544W        W26678  15.208  17.890  13.430 -0.3513 -0.2352  0.2541
10545W        W26679   8.239  17.827   2.959  0.1458 -0.2256  0.0100
10546W        W26680   1.226   0.470   0.526 -0.1394  0.4261 -0.0255
10547W        W26681  18.352   6.137  10.151 -0.0959  0.1048 -0.0936
10548W        W26682   4.486  14.458  12.780  0.1147  0.2314  0.0234
10549W        W26683   4.578   8.760   3.837 -0.0305 -0.0620  0.1781
10550W        W26684   2.378  15.986   0.922 -0.0236 -0.0794 -0.2993
10551W        W26685   6.835   9.451   0.906 -0.0978 -0.0683 -0.0162
10552W        W26686  14.966  18.248   0.084  0.0063 -0.1074 -0.0220
10553W        W26687   0.214   5.560   3.959 -0.0884 -0.1746 -0.1077
10554W        W26688  18.946   2.008   2.226  0.3064  0.0784 -0.2903
10555W        W26689   7.146   0.806  11.896  0.0935 -0.1485  0.1577
10556W        W26690   5.548   3.499   5.625 -0.1839 -0.3212 -0.0759
10557W        W26691  13.224  17.637   4.411 -0.3531 -0.0458  0.1160
10558W        W26692   6.813  15.517  14.887 -0.0457  0.2177  0.3731
10559W        W26693   6.086  14.077  13.709 -0.2272 -0.1211 -0.0681
10560W        W26694  10.653   1.450  11.628  0.0528 -0.2569  0.1202
10561W        W26695   6.960   3.816  14.603  0.3758  0.0489 -0.0381
10562W        W26696  14.465   0.166  14.503  0.0419 -0.0598 -0.1125
10563W        W26697   3.794   9.729   1.495 -0.0286 -0.1934  0.3539
10564W        W26698   4.920   6.694   4.253  0.0329  0.0917 -0.2382
10565W        W26699   2.223  18.380   2.038  0.1193 -0.1006  0.1086
10566W        W26700  16.905  16.283   3.213 -0.1106  0.2959  0.1342
10567W        W26701   5.523   0.906  11.695 -0.1444  0.0877  0.0309
10568W        W26702  11.492   9.478   5.550 -0.0259 -0.0404 -0.3437
10569W        W26703   9.934  13.274   3.124  0.0998  0.3720  0.1933
10570W        W26704   9.487  11.466  13.224  0.3849  0.0914 -0.0209
10571W        W26705  10.279   6.175  13.921  0.0808 -0.1856  0.0041
10572W        W26706   6.159  13.748   0.224 -0.1257 -0.2358 -0.0781
10573W        W26707   9.217   6.551   3.654  0.1074  0.4318 -0.2650
10574W        W26708   7.057   3.793  12.716 -0.5732 -0.1838 -0.0882
10575W        W26709   5.284   8.305  13.078 -0.0485 -0.2171  0.1427
10576W        W26710   4.577   0.386   2.651 -0.0854  0.3213 -0.0129
10577W        W26711   0.437  11.115   0.032 -0.1126  0.1197 -0.1097
10578W        W26712  14.318  11.926   2.627  0.5128  0.3311 -0.0220
10579W        W26713  14.537   0.052   2.655 -0.1660  0.0188 -0.0797
10580W        W26714   1.174   0.679   3.767  0.0861  0.1128  0.1035
10581W        W26715  11.332   6.629   4.835 -0.0510 -0.3474 -0.0973
10582W        W26716   4.315   2.452   2.429 -0.0372 -0.0224  0.3355
10583W        W26717   1.685  10.978   3.601  0.3622  0.0878 -0.1505
10584W        W26718  18.261  12.039  10.574 -0.0102 -0.1503 -0.1590
10585W        W26719  18.705   3.678  15.027 -0.2162 -0.0999 -0.0912
10586W        W26720  14.688   3.212   4.559  0.1050 -0.0836  0.3167
10587W        W26721  14.899   3.519  12.057 -0.1636 -0.1435 -0.0519
10588W        W26722  13.511   4.511   0.212  0.0079  0.2417  0.0564
10589W        W26723  13.822   8.732   2.345  0.4707  0.3055  0.0317
10590W        W26724  17.121  10.754  14.848 -0.0353  0.0882 -0.4870
10591W        W26725  13.729   8.000  14.836  0.1417 -0.0693 -0.0002
10592W        W26726  15.840  13.319  13.881  0.0003 -0.1658  0.0714
10593W        W26727   4.448   3.385   1.231  0.0863  0.1746  0.0617
10594W        W26728   7.979  11.074   4.948 -0.0952 -0.0278 -0.1085
10595W        W26729  14.500  13.172   1.398  0.0127  0.0315  0.0968
10596W        W26730  17.260   7.513  11.698 -0.1251  0.3527 -0.0577
10597W        W26731   9.792   8.406  13.180  0.0142  0.3232 -0.1561
10598W        W26732  12.796   9.440   3.355  0.2260  0.0506 -0.2348
10599W        W26733  14.592  17.815   4.739  0.1360 -0.0896 -0.3501
10600W        W26734  16.745   3.588  10.795  0.2477  0.0926 -0.2790
10601W        W26735   4.594  14.659   4.428  0.0847 -0.0221  0.0145
10602W        W26736   2.423  17.608   3.664 -0.3310  0.1042  0.0374
10603W        W26737  10.906   6.008   4.692  0.3337  0.1553  0.0126
10604W        W26738   9.030  17.211   3.986 -0.1798 -0.1287 -0.1850
10605W        W26739   9.460  14.810  11.431 -0.0736  0.4597 -0.0363
10606W        W26740   1.523   0.309   1.837 -0.1308 -0.3043  0.2781
10607W        W26741  15.216  13.979   4.786  0.1491 -0.1122  0.3401
10608W        W26742  15.626  14.563   9.924  0.1872  0.0934  0.0504
10609W        W26743   3.996  16.266  13.108  0.3304  0.0683 -0.0467
10610W        W26744   2.433  15.115   9.855 -0.0553 -0.0502 -0.2477
10611W        W26745   4.008   7.151  12.130  0.2281 -0.2511  0.2366
10612W        W26746   8.818   0.490  10.540 -0.0448 -0.0152 -0.0446
10613W        W26747   8.745   0.982   5.440 -0.0184 -0.0347 -0.2929
10614W        W26748  17.911   3.716   5.013 -0.1503 -0.2037  0.0822
10615W        W26749  17.568   1.250  12.745 -0.3112 -0.2524 -0.2933
10616W        W26750   4.011   5.767   4.918  0.0578  0.5100  0.2404
10617W        W26751   3.304   7.447  13.692 -0.3250 -0.2013  0.0040
10618W        W26752   4.069  14.056   4.584  0.1866  0.0169 -0.0657
10619W        W26753  14.281   4.856   4.226  0.1061  0.2260  0.0462
10620W        W26754   1.149  11.316  14.021 -0.1787 -0.1381  0.0329
10621W        W26755  13.655  12.737  13.861 -0.1185  0.0301 -0.1303
10622W        W26756  14.702   8.322   3.861  0.0295  0.0652 -0.1403
10623W        W26757  18.451   7.106  14.965 -0.0001  0.0764 -0.3606
10624W        W26758   7.553  15.663   0.353  0.0030  0.0990 -0.2044
10625W        W26759  17.305  16.931  12.727 -0.1228 -0.0915 -0.1255
10626W        W26760   8.401   2.802   4.075 -0.1225  0.1419  0.0866
10627W        W26761  10.344  19.054   3.316 -0.3146  0.0697  0.1598
10628W        W26762   2.878   3.698  14.763 -0.0414  0.2720  0.2383
10629W        W26763   8.985   8.963   6.004  0.1854 -0.2124 -0.2209
10630W        W26764   5.910   6.137  12.164  0.0063  0.0449  0.3832
10631W        W26765  11.191   4.308  13.479 -0.0998 -0.1010  0.5280
10632W        W26766   6.999   9.094  13.715  0.0788 -0.1313 -0.2302
10633W        W26767  13.365  15.947   1.197  0.0177  0.2932 -0.2223
10634W        W26768   4.855   7.858   4.314  0.0327 -0.0974  0.2038
10635W        W26769  17.550  14.480  14.955 -0.2728  0.2050 -0.0988
10636W        W26770  18.839   9.355  10.885  0.1467 -0.3059 -0.1555
10637W        W26771   4.084  17.846   0.084 -0.0807 -0.1245  0.1711
10638W        W26772  17.042  10.948   1.438 -0.1335 -0.1999  0.4517
10639W        W26773   3.198  14.561   5.688  0.4585 -0.2646 -0.0866
10640W        W26774  10.640   8.683  14.111 -0.1568  0.1136  0.1411
10641W        W26775   8.378  16.993   1.683  0.1594  0.0058 -0.0304
10642W        W26776  10.021   9.343   4.218 -0.0079 -0.1415  0.0146
10643W        W26777  18.786  11.149   4.438  0.1771 -0.5567 -0.1409
10644W        W26778  10.866   5.133   1.482  0.4983 -0.3059 -0.0308
10645W        W26779  10.760   4.982  12.269  0.0457  0.0381  0.0773
10646W        W26780  11.457   6.049   0.137 -0.1427  0.0153  0.2741
10647W        W26781   2.571   7.085   1.636 -0.2724 -0.1495 -0.2118
10648W        W26782  13.940   4.792  14.598 -0.0897 -0.2368 -0.2318
10649W        W26783  16.372   5.446  14.009 -0.1783 -0.2532 -0.0201
10650W        W26784  16.361   0.519   2.381  0.1138  0.1709  0.0191
10651W        W26785   0.778  11.347  15.018 -0.0820 -0.1277 -0.1359
10652W        W26786  18.191   9.156   3.881  0.1106  0.0023  0.2847
10653W        W26787  16.473  10.070  14.872  0.0952  0.2463  0.3657
10654W        W26788  18.075   3.158   4.184  0.1881 -0.2513  0.3127
10655W        W26789  16.365  16.706  11.454 -0.0246  0.1041  0.0740
10656W        W26790  13.413   8.775  14.427  0.1624 -0.3328  0.1763
10657W        W26791   9.452   6.357  13.830 -0.2547  0.1635 -0.2079
10658W        W26792  16.969   2.558  11.325  0.2635 -0.1459  0.0201
10659W        W26793  16.439   8.680  13.306 -0.2473 -0.2425 -0.1387
10660W        W26794  12.329   7.496   2.698 -0.3578 -0.0484  0.4761
10661W        W26795  17.932   3.404  13.662  0.1628 -0.1211 -0.4010
10662W        W26796   4.157  11.331   3.628 -0.0787 -0.0765 -0.0162
10663W        W26797  17.760   0.334  13.434  0.0727  0.2695 -0.0510
10664W        W26798  15.379  13.920   4.046  0.0627 -0.1793 -0.0942
10665W        W26799  14.660   6.845   9.909 -0.0991  0.3507  0.3088
10666W        W26800  13.399   0.783   0.228 -0.2993  0.0498 -0.4208
10667W        W26801   2.753   2.019  13.811 -0.2326  0.2330 -0.2556
10668W        W26802  10.586  10.644  12.890  0.1052  0.1402 -0.1708
10669W        W26803   3.498   9.782  12.744  0.2264 -0.2832 -0.0402
10670W        W26804   9.533   0.148  15.171  0.1925 -0.3547  0.0234
10671W        W26805   2.775   1.841   2.449  0.2884  0.0044  0.2407
10672W        W26806   5.032  14.719   0.499 -0.1592  0.1451 -0.1401
10673W        W26807   9.684   8.891   1.819 -0.3683 -0.0269 -0.0379
10674W        W26808  11.236  14.868  13.190 -0.1784 -0.0419 -0.1764
10675W        W26809   6.327   0.415   5.874  0.1706  0.0199  0.1417
10676W        W26810   4.574   3.056   0.903 -0.3202  0.1935 -0.0509
10677W        W26811   5.244  12.742   3.080  0.0170 -0.2782  0.0748
10678W        W26812  15.355  15.788   4.243 -0.0868 -0.1791 -0.0689
10679W        W26813  19.009   1.087  14.943 -0.2034 -0.1054  0.4240
10680W        W26814   9.349   6.415   4.233 -0.1502  0.2508 -0.3717
10681W        W26815  11.624  11.965   1.791 -0.0634  0.0284 -0.1490
10682W        W26816  13.548   9.523   1.595 -0.0060 -0.0706  0.0432
10683W        W26817   3.149   2.874   4.666 -0.5737 -0.0225 -0.0215
10684W        W26818  14.119   3.477  10.791 -0.1611 -0.0668 -0.2305
10685W        W26819  10.306  10.499  11.201 -0.0057  0.0905 -0.1657
10686W        W26820   5.200   4.096  11.047 -0.3669  0.1344  0.5061
10687W        W26821   9.154   7.113   3.528 -0.0130 -0.1484 -0.0273
10688W        W26822   4.464   1.704   0.412  0.0014 -0.1993 -0.1300
10689W        W26823  15.952  16.828   4.545 -0.1699  0.1011  0.0368
10690W        W26824  10.304   7.019   0.054 -0.1348  0.3372 -0.0615
10691W        W26825   1.681   5.575  13.977 -0.2270  0.2715 -0.2609
10692W        W26826   3.176  13.879   3.441 -0.1297  0.0380  0.2423
10693W        W26827  13.249  16.914   3.453  0.0547 -0.1052  0.1394
10694W        W26828  11.194  15.385   1.999 -0.1549  0.0228 -0.3096
10695W        W26829  10.503   4.111  12.244  0.0024  0.2586 -0.0257
10696W        W26830  14.244   6.194   0.847  0.1291  0.1841  0.1825
10697W        W26831   5.406  18.003  14.499 -0.1569 -0.1846  0.0616
10698W        W26832  12.135   1.795  13.737 -0.0585  0.1919  0.2961
10699W        W26833  11.850  19.096  11.201 -0.0817  0.3538 -0.4788
10700W        W26834   9.564   0.771   3.688  0.1779  0.2621 -0.1021
10701W        W26835   4.597   9.179  13.976  0.0415 -0.0421 -0.1464
10702W        W26836  12.389  18.512  12.536  0.2125 -0.0802 -0.2132
10703W        W26837   6.153   5.060  13.611  0.0386 -0.1096 -0.0833
10704W        W26838  16.623   6.653   0.512 -0.1005 -0.3170 -0.0845
10705W        W26839  14.780   0.014  14.098 -0.0330 -0.2858  0.1763
10706W        W26840   5.745   0.137  14.041  0.1050 -0.2680  0.1013
10707W        W26841  12.081  13.677   3.257  0.0384  0.2978 -0.1801
10708W        W26842  11.119  15.346  13.377  0.4411 -0.0550 -0.0634
10709W        W26843  17.343  17.170   4.994  0.0032 -0.0889 -0.1419
10710W        W26844   9.654  12.314  14.848  0.2418  0.2163  0.0712
10711W        W26845  18.212  17.081  14.585  0.0786  0.2940 -0.2018
10712W        W26846  16.847  12.783   0.092  0.2705 -0.1692  0.2748
10713W        W26847  14.236   7.524   0.699  0.1402 -0.1946  0.0264
10714W        W26848  16.164   8.585   2.296  0.2562 -0.1389  0.0117
10715W        W26849  15.712  17.404   1.407  0.0381  0.5215 -0.0252
10716W        W26850  15.072  17.424   0.763  0.0032 -0.3573  0.0978
10717W        W26851   0.667  16.488  10.651 -0.2254 -0.1942 -0.0206
10718W        W26852   4.967   5.187  12.044 -0.0101 -0.1162 -0.1849
10719W        W26853   3.926   0.169  12.702  0.0511 -0.4553 -0.1478
10720W        W26854   7.944   5.160   4.190 -0.2387 -0.1939 -0.2688
10721W        W26855  16.490   9.044  12.908  0.1961 -0.0023 -0.1181
10722W        W26856   8.980   1.491  10.694 -0.2459  0.2053  0.0451
10723W        W26857   1.065  15.199  12.984 -0.2566  0.0149  0.1459
10724W        W26858   1.942  18.764  13.744 -0.1741  0.2858 -0.2008
10725W        W26859  14.394  17.176   0.958  0.0490 -0.0244 -0.2326
10726W        W26860  10.356   2.137   1.490  0.1817 -0.0216 -0.0278
10727W        W26861  14.832   1.776  11.402  0.1460 -0.2062 -0.2697
10728W        W26862   8.989  13.418  12.906 -0.0771  0.0758 -0.4043
10729W        W26863  18.047   5.135   3.816  0.0052  0.1536  0.0838
10730W        W26864   0.955   0.743   2.261 -0.0324 -0.2502  0.2431
10731W        W26865  10.075   7.854  14.693 -0.1493 -0.0105  0.0459
10732W        W26866  12.231  12.605   0.684  0.3388  0.1580 -0.1048
10733W        W26867   6.434   1.216   1.131  0.3613 -0.2063  0.0090
10734W        W26868   6.822   0.323   2.467 -0.0221  0.3474  0.0535
10735W        W26869   7.929   3.526  12.334 -0.1492 -0.0176 -0.0451
10736W        W26870  12.509   9.131   0.261  0.3762 -0.0286 -0.0641
10737W        W26871  10.368   4.263   4.659 -0.1759 -0.1126 -0.0871
10738W        W26872   8.490   0.280  12.309 -0.2147 -0.2411  0.0747
10739W        W26873  12.141  18.480   1.577  0.1360 -0.1586  0.0996
10740W        W26874   1.269  18.619  10.145  0.1557 -0.4064 -0.0094
10741W        W26875  17.840  14.499  14.503 -0.3602 -0.1342 -0.0933
10742W        W26876   5.316  17.850  13.776 -0.0200 -0.3850 -0.2473
10743W        W26877   1.081   0.139   3.430 -0.0403  0.2544 -0.5191
10744W        W26878   5.529   4.141   3.446  0.1155  0.0570 -0.3210
10745W        W26879   5.176   0.736  14.637  0.0553 -0.0661  0.2560
10746W        W26880   1.471   7.822   3.431 -0.1527  0.2481  0.2832
10747W        W26881   2.134   5.731   2.427 -0.0629 -0.1238 -0.2580
10748W        W26882   1.072   0.653  14.412 -0.2101  0.0689  0.0533
10749W        W26883  13.261  19.091   4.400  0.2407 -0.0534 -0.0070
10750W        W26884   6.137  11.055   5.953  0.0002  0.2720  0.0161
10751W        W26885  13.159   2.061  12.480  0.1359 -0.2643 -0.1613
10752W        W26886   6.666  18.158  11.616  0.1117 -0.4527  0.3186
10753W        W26887   1.259   1.873   2.478 -0.0141 -0.0108  0.3159
10754W        W26888  11.168   3.006  12.782  0.0116  0.0364 -0.2062
10755W        W26889   3.943   9.872   0.216  0.0359  0.1839  0.3334
10756W        W26890   7.398   5.787   4.512 -0.0554 -0.2014  0.2992
10757W        W26891   3.598  13.138   3.719 -0.0490 -0.1102 -0.4054
10758W        W26892  12.334   7.925  13.196  0.0106 -0.0434 -0.2484
10759W        W26893  11.632  17.243  14.366  0.0709 -0.0502 -0.1963
10760W        W26894  10.652  17.641   4.505  0.0695 -0.0380 -0.3568
10761W        W26895  10.839   4.907  13.248 -0.0505  0.0156  0.0983
10762W        W26896  17.866  18.841   4.928 -0.1385 -0.2566  0.2348
10763W        W26897  14.774   2.924  14.090  0.1993  0.0594 -0.0033
10764W        W26898   2.837   3.811   1.437  0.0812 -0.2986  0.2096
10765W        W26899   6.729  12.238   2.182  0.0538  0.0425 -0.1982
10766W        W26900  12.825  10.243   4.317 -0.3148 -0.0861  0.0219
10767W        W26901  11.893  17.055   1.129 -0.3152 -0.0768 -0.0896
10768W        W26902   9.993  12.848   2.824 -0.3462 -0.3509  0.0486
10769W        W26903   2.598   4.869  12.679 -0.1121  0.2190  0.3776
10770W        W26904   2.787   3.342   4.499 -0.0192 -0.0066  0.1408
10771W        W26905   2.267  13.768  14.426 -0.0194 -0.0101  0.0533
10772W        W26906   6.867   3.315   3.213 -0.0067 -0.0491 -0.1380
10773W        W26907  17.929  16.194  13.802  0.0081  0.0096  0.1353
10774W        W26908  14.861   9.056  11.822  0.1090 -0.2538 -0.0740
10775W        W26909  11.132  16.943  10.806 -0.1683 -0.1270  0.1106
10776W        W26910  13.771  15.340   4.427 -0.2288 -0.0231 -0.3250
10777W        W26911  11.952  17.199  11.147  0.0462  0.0938  0.0285
10778W        W26912  17.036   9.890  12.281  0.1158  0.0240 -0.2728
10779W        W26913  13.855  13.329  12.587 -0.1004  0.1310 -0.0223
10780W        W26914  17.424  16.701  14.652 -0.0059  0.0591 -0.0783
10781W        W26915  15.087   9.344  12.332  0.2892 -0.0865  0.0186
10782W        W26916   7.371  14.288  12.010 -0.1369  0.0163  0.0479
10783W        W26917  10.742   0.265   2.099 -0.2745  0.2357 -0.0768
10784W        W26918   2.018  10.621   2.665  0.1475 -0.2209  0.0358
10785W        W26919   0.126  11.035   0.632  0.1108  0.2269  0.1696
10786W        W26920  18.235  18.667   0.133  0.0149  0.1174 -0.4733
10787W        W26921  18.138   8.179  10.349  0.0497 -0.1137 -0.0746
10788W        W26922  10.628   1.595  15.150  0.0643  0.0587 -0.0288
10789W        W26923   3.894   1.213  10.176  0.2367  0.0291 -0.3858
10790W        W26924   9.763  11.141   4.826  0.0207  0.0543 -0.0736
10791W        W26925  15.784  10.355   3.734  0.1344  0.1841  0.3589
10792W        W26926   2.992  11.849   2.102  0.0194  0.1460 -0.1010
10793W        W26927   5.034   6.119  14.107  0.1426  0.1412  0.0255
10794W        W26928  12.954  11.517   4.834  0.0799  0.0072 -0.0581
10795W        W26929  16.420  17.104  10.624  0.1106  0.1585 -0.2078
10796W        W26930   4.549  17.476   2.610  0.0387 -0.2653  0.2916
10797W        W26931  11.850  12.485   3.710 -0.1597 -0.2571  0.2463
10798W        W26932   1.643   0.412   4.715  0.3969  0.0268  0.1986
10799W        W26933  11.885  17.336  13.286  0.3336 -0.2186  0.0606
10800W        W26934   6.812   5.883  11.230 -0.2025  0.0825  0.1015
10801W        W26935   5.503  15.878   5.331  0.1908  0.0451 -0.2615
10802W        W26936   8.108   1.410   0.538 -0.1893 -0.2586  0.0728
10803W        W26937  11.584  12.162   2.274 -0.0060 -0.1148 -0.3278
10804W        W26938   9.346   9.749   1.687  0.0207  0.0022  0.5029
10805W        W26939  10.591  15.654  15.043  0.1147 -0.2523 -0.1759
10806W        W26940  15.251  18.417  14.167 -0.1075  0.1733 -0.2368
10807W        W26941  16.046   9.886  15.097  0.1705  0.3690 -0.2374
10808W        W26942  18.275  15.945  15.115 -0.1484 -0.1124 -0.2305
10809W        W26943   4.021   4.615   4.969  0.1372 -0.0169  0.3230
10810W        W26944   3.952  15.058  11.004  0.1222 -0.2859 -0.4185
10811W        W26945  10.660   1.991  11.816  0.0128  0.2647  0.1686
10812W        W26946  16.881   9.474  10.749  0.1465 -0.3607  0.1081
10813W        W26947  12.999  14.872   2.858  0.1207 -0.2606 -0.1323
10814W        W26948   7.089  18.477  15.117 -0.1205 -0.0741  0.2184
10815W        W26949   1.952  17.143  12.733  0.3427 -0.3182 -0.1171
10816W        W26950  15.508   0.739   1.729 -0.1156 -0.3613 -0.2667
10817W        W26951   4.164  11.220  11.107  0.0932 -0.1524 -0.0084
10818W        W26952   6.306   8.167  13.811  0.0440 -0.0348 -0.0823
10819W        W26953   0.338   4.020  14.708  0.0845  0.0927 -0.0561
10820W        W26954   2.144  14.732  14.115 -0.4517  0.0900  0.1181
10821W        W26955  18.050   4.621  12.955  0.1499  0.1858  0.2413
10822W        W26956   2.774   1.617  12.275  0.2740 -0.3265  0.1167
10823W        W26957   7.160  10.335   4.915 -0.1128 -0.0956  0.3453
10824W        W26958   9.902  16.590  12.501 -0.2022  0.2099  0.1908
10825W        W26959  16.047   0.364   5.781 -0.0359 -0.1905  0.0494
10826W        W26960   8.637  10.869   2.919 -0.0765 -0.1922  0.1086
10827W        W26961   7.237   1.421   4.892 -0.0250  0.0993 -0.0827
10828W        W26962  15.534  12.699   0.473 -0.0060  0.0593  0.2584
10829W        W26963   6.534  18.565   1.185  0.0888  0.1205 -0.3802
10830W        W26964  17.698  17.321   0.126  0.1271  0.4652 -0.0327
10831W        W26965  17.713  10.969  13.509  0.3919  0.0210 -0.1408
10832W        W26966   0.029  11.907   0.247 -0.2010  0.0244  0.2298
10833W        W26967   5.167   4.823  11.797  0.0431  0.0661 -0.3624
10834W        W26968   3.400   9.732   2.237  0.0221 -0.0651 -0.3557
10835W        W26969  10.374   3.604  12.182  0.0363  0.1086  0.1187
10836W        W26970  13.325  18.206  11.925 -0.0002 -0.0313 -0.3431
10837W        W26971   9.117   9.386  13.031 -0.2679 -0.0494  0.1594
10838W        W26972   0.718  18.351  13.997 -0.0196 -0.4178 -0.1197
10839W        W26973  17.279   8.600  15.126 -0.0758 -0.1033  0.0888
10840W        W26974   0.527   1.596   0.787 -0.0135 -0.3291  0.0917
10841W        W26975   4.295   1.819   4.619  0.1239  0.2454 -0.0111
10842W        W26976  10.000  13.929  10.469  0.0483 -0.4004 -0.2312
10843W        W26977  13.976   1.872  14.500 -0.0718 -0.2552 -0.2279
10844W        W26978   9.023  18.141   0.288 -0.0146  0.0585  0.0348
10845W        W26979   9.577   1.944  15.047  0.2748  0.0210 -0.1669
10846W        W26980  10.068  16.792   2.520 -0.1149 -0.2261  0.2205
10847W        W26981   5.380  16.811  11.975 -0.2799  0.2319 -0.2905
10848W        W26982  17.405  10.187   4.821  0.2327  0.1510 -0.1501
10849W        W26983  13.309   3.834   5.067  0.1379 -0.1898 -0.3756
10850W        W26984  13.701   1.723  11.422 -0.0708 -0.2535  0.0842
10851W        W26985   5.091   3.263   2.266 -0.0039 -0.0238 -0.1663
10852W        W26986   4.233   6.509   1.693  0.2624  0.1607  0.0275
10853W        W26987  16.988   2.365  14.238  0.0481 -0.2439 -0.1537
10854W        W26988  16.458  12.782   2.656  0.0884  0.1725  0.1069
10855W        W26989   9.514   9.829   0.045  0.1542 -0.0749 -0.3868
10856W        W26990   1.592   5.224  10.988 -0.0709  0.3419  0.0177
10857W        W26991   0.300  11.393   1.543 -0.2742  0.2307  0.1857
10858W        W26992  12.803  10.723  15.023 -0.0624  0.1005 -0.1250
10859W        W26993  15.536   5.365   4.291  0.1629 -0.0889  0.0035
10860W        W26994  11.530   7.368  12.357 -0.2474  0.4675  0.1024
10861W        W26995   6.896  13.782   2.912 -0.0441  0.0456 -0.2090
10862W        W26996   0.707   9.105  14.828  0.1972  0.0194 -0.3083
10863W        W26997   1.614   9.221  12.173 -0.1995 -0.0807 -0.0964
10864W        W26998  12.207  17.379   0.648 -0.1518  0.3130 -0.1210
10865W        W26999  10.471  15.132   5.599  0.0552 -0.1588 -0.0054
10866W        W27000  11.897  11.835  11.508  0.0139 -0.2777 -0.1974
10867W        W27001  16.025  10.058  11.180 -0.4735  0.2885 -0.2484
10868W        W27002   9.017   8.445  13.995  0.0899 -0.1733  0.0152
10869W        W27003   1.319   8.049  14.097 -0.1868 -0.1132 -0.0052
10870W        W27004   4.855  15.437   5.417  0.0164  0.1921 -0.0772
10871W        W27005  19.065  14.181  13.303  0.2135 -0.0838 -0.2550
10872W        W27006   7.040  16.972   1.900  0.0863  0.1167 -0.4018
10873W        W27007  11.069  17.283   5.364 -0.0130  0.1103  0.3912
10874W        W27008   0.826  12.690  14.435 -0.1386  0.0738  0.1318
10875W        W27009   9.612  15.716   1.279 -0.1819  0.1609  0.2663
10876W        W27010   9.320  16.844   1.182 -0.1595  0.0498  0.0852
10877W        W27011   9.007   5.165   2.949 -0.2846  0.0239  0.3338
10878W        W27012  15.857   9.528  11.270 -0.2175  0.0286 -0.0484
10879W        W27013   3.605  10.903   0.502  0.2678 -0.4750  0.0174
10880W        W27014  14.349   4.907   2.061 -0.1191  0.2454  0.1649
10881W        W27015  18.782   9.734   2.796  0.1304 -0.1594 -0.1218
10882W        W27016  14.588   5.051   0.959 -0.1809  0.1038  0.2803
10883W        W27017   4.089   8.160  11.214  0.1931 -0.0769 -0.1962
10884W        W27018   9.641  19.076   3.813  0.0635  0.0644  0.0605
10885W        W27019  10.619   1.798  10.336  0.1532  0.1404  0.0742
10886W        W27020  18.125   0.109   2.710  0.1479 -0.1338 -0.2511
10887W        W27021  13.522  18.417  13.898 -0.1732 -0.4044 -0.0212
10888W        W27022  11.451   1.203  10.412  0.1956 -0.0032 -0.1847
10889W        W27023   4.328  10.480   4.605  0.0145 -0.2320 -0.3759
10890W        W27024   3.875   6.542   3.475 -0.0602  0.1818 -0.0603
10891W        W27025  15.170  16.236   1.429  0.0609  0.0274 -0.1524
10892W        W27026   4.458  14.384   3.047 -0.2287 -0.2432 -0.0615
10893W        W27027  13.341  16.192  11.460 -0.2495 -0.1376  0.2811
10894W        W27028   3.634   3.350   9.773  0.1960  0.1733  0.1179
10895W        W27029  13.494  18.946   4.002 -0.2942 -0.0202  0.0631
10896W        W27030   4.640   7.474   0.904 -0.0418  0.1225  0.1785
10897W        W27031   7.463  17.289   1.788 -0.3920  0.3650  0.3228
10898W        W27032   1.696  10.283   0.465  0.0457  0.3120  0.0704
10899W        W27033  11.082  16.492   1.016 -0.0715  0.3377  0.0474
10900W        W27034  18.561   6.214  14.921 -0.1708  0.2450 -0.0345
10901W        W27035  14.048  18.956  13.614 -0.1058 -0.1584 -0.1416
10902W        W27036   7.632  19.142   3.989 -0.0988 -0.0429 -0.1783
10903W        W27037  15.276   7.703  13.571 -0.1393  0.4404 -0.4308
10904W        W27038  18.146   4.833  10.343  0.1574  0.4421 -0.2569
10905W        W27039   3.460  14.596   2.170 -0.0021  0.0235  0.0221
10906W        W27040   6.661  11.061  14.805  0.0764  0.1360 -0.1117
10907W        W27041   5.025   5.822  13.096 -0.1521  0.0306 -0.3107
10908W        W27042   0.842   3.647   2.666 -0.0579  0.3521  0.1728
10909W        W27043   5.080  18.314  11.087 -0.0121  0.2027 -0.1901
10910W        W27044   6.776  17.042   4.253  0.2640  0.0214  0.2234
10911W        W27045   9.735  11.955   1.125 -0.2582  0.0459 -0.0003
10912W        W27046   3.714   9.724  11.084 -0.0129  0.1564 -0.0565
10913W        W27047  13.847  14.527   1.370  0.2257 -0.0437 -0.2360
10914W        W27048  18.783   5.101   2.769 -0.0122 -0.5364 -0.1099
10915W        W27049  10.038  16.003  11.217 -0.3776  0.0669 -0.1639
10916W        W27050   5.927  14.142   2.520  0.1785  0.1189 -0.0633
10917W        W27051   0.556   4.577   0.546  0.2189 -0.1517  0.0695
10918W        W27052  11.706   9.384  13.702 -0.0086  0.0583 -0.2547
10919W        W27053   8.738  16.365   2.758 -0.0680 -0.2983  0.1946
10920W        W27054   2.773   1.572  13.095 -0.3728 -0.2272  0.0164
10921W        W27055   8.231  18.350   1.670 -0.0997  0.0511  0.0150
10922W        W27056  17.648   4.797  13.532 -0.0317  0.2456  0.4057
10923W        W27057   0.660   9.555  13.581 -0.1263  0.0097  0.1019
10924W        W27058  17.125  11.361  12.196 -0.0576  0.0409 -0.0560
10925W        W27059  18.016  13.075  10.895 -0.0826  0.0298  0.1108
10926W        W27060   8.373  16.694  12.664  0.0566  0.0497  0.2978
10927W        W27061  11.958   9.438   1.562  0.1927  0.1848 -0.2780
10928W        W27062   5.204   6.369   0.543 -0.0365  0.2758  0.3484
10929W        W27063   1.518  13.203  10.911 -0.1461  0.1058  0.2127
10930W        W27064  13.651  15.787   0.775  0.0788  0.1213 -0.0406
10931W        W27065  15.654   1.500   2.166 -0.0200  0.0588 -0.0862
10932W        W27066  11.418  18.494  10.953  0.1731  0.0223 -0.2113
10933W        W27067  13.611   0.103   3.560 -0.1772  0.0113  0.0556
10934W        W27068  14.704   9.087  10.473 -0.0967 -0.1787 -0.0053
10935W        W27069   2.917  10.795   3.285 -0.0453 -0.2342 -0.4275
10936W        W27070   5.786  14.640   2.576  0.2687  0.0771  0.2625
10937W        W27071  16.063   3.725   2.960 -0.0252 -0.1242 -0.1514
10938W        W27072  16.006   5.766  14.230  0.1824 -0.3379  0.0066
10939W        W27073  16.477  12.338   2.373  0.3271 -0.0277  0.1141
10940W        W27074   8.100  14.223  14.923  0.1988 -0.0922  0.1386
10941W        W27075   2.049   7.361  14.714 -0.0171  0.1136  0.3728
10942W        W27076   9.334  12.205   0.872  0.2635  0.1088  0.0339
10943W        W27077  11.376  15.019  14.432 -0.3814  0.0298 -0.2376
10944W        W27078  16.190  15.646  10.814  0.0703  0.2586 -0.3366
10945W        W27079  17.005   7.985   1.471 -0.1917  0.2236 -0.2567
10946W        W27080  13.019  10.003  14.706  0.1280  0.1861  0.1855
10947W        W27081   6.428  16.273   2.592  0.0760  0.0200  0.1405
10948W        W27082  16.961   6.503   0.146 -0.3164 -0.0453  0.0162
10949W        W27083  14.669  16.905  14.941  0.1298 -0.0540  0.1658
10950W        W27084   2.351   3.859   4.361 -0.0251  0.0161 -0.1261
10951W        W27085   1.341   7.210   4.238 -0.3356  0.0656  0.0814
10952W        W27086   9.158   7.279   4.335  0.1964  0.1452  0.2088
10953W        W27087  12.210  14.686   0.292  0.3698 -0.0317 -0.1350
10954W        W27088  14.526   9.069   2.239  0.5287 -0.0403 -0.0747
10955W        W27089   6.436   9.870  12.633 -0.0609 -0.0257  0.1677
10956W        W27090  14.810   3.980  14.151 -0.3286 -0.0287 -0.0478
10957W        W27091  17.427   4.498   0.429  0.1404 -0.0028  0.0947
10958W        W27092  17.225   6.680  12.860  0.0983 -0.2114  0.0108
10959W        W27093  17.295  13.736   0.153  0.0459  0.3242 -0.2473
10960W        W27094  14.489  12.401  13.622 -0.1321  0.1954 -0.2914
10961W        W27095  15.669  16.172  11.220 -0.0211  0.2014  0.3249
10962W        W27096  13.119   3.395   3.773  0.0100 -0.2994 -0.0477
10963W        W27097   8.071   9.789   1.117 -0.0868 -0.2853  0.2540
10964W        W27098  10.574   4.549  12.534 -0.1169  0.1691 -0.1684
10965W        W27099   1.356  15.917   4.232 -0.0712 -0.1970  0.1549
10966W        W27100   0.367  14.845  14.906  0.0679  0.2704 -0.1995
10967W        W27101  14.986   0.762  14.775 -0.4386  0.0869  0.0365
10968W        W27102  13.400   7.106  14.633 -0.0506 -0.1526 -0.3515
10969W        W27103  12.887  17.876   3.222  0.2579  0.0183 -0.0627
10970W        W27104   9.320  13.479   0.546 -0.1875  0.1708 -0.0384
10971W        W27105  14.253   2.385  10.536 -0.1058 -0.0253 -0.1098
10972W        W27106   8.542  11.470  14.342  0.0639  0.0109  0.2087
10973W        W27107  17.479  16.488   4.749 -0.2137 -0.0743 -0.1669
10974W        W27108  10.066  12.578  11.661  0.1892  0.1711 -0.0434
10975W        W27109  14.193   0.173  11.052 -0.1811  0.3408 -0.2020
10976W        W27110  11.620   6.511  14.774 -0.1575  0.1355  0.1426
10977W        W27111  14.566  16.642   1.848 -0.1763  0.0411  0.1343
10978W        W27112  18.842  11.315  13.759  0.0531 -0.0680  0.2468
10979W        W27113  14.883  17.688   2.572 -0.2359  0.0550  0.0254
10980W        W27114   5.055   4.659   5.839  0.0171  0.2480 -0.2066
10981W        W27115  16.176   6.612   4.004 -0.3915  0.1229  0.1328
10982W        W27116  14.159   9.768   3.808 -0.0108  0.1487  0.0283
10983W        W27117  11.991  15.300  12.429  0.1539 -0.1307  0.3316
10984W        W27118  13.686   4.713  13.794 -0.2142 -0.0985  0.1160
10985W        W27119   0.197  13.776  15.041 -0.2030 -0.1774  0.3860
10986W        W27120   6.966   6.308   5.409 -0.3002  0.1757  0.0780
10987W        W27121  13.742   2.205   2.841 -0.3091  0.0878  0.0702
10988W        W27122   7.289  16.322  14.297 -0.0772  0.2482  0.1066
10989W        W27123   6.176  14.771  15.160  0.3295  0.2606 -0.0611
10990W        W27124   6.358   3.851   4.382 -0.2240  0.1663  0.0816
10991W        W27125   6.612  12.138   4.196  0.0272  0.1019  0.1964
10992W        W27126   3.453   7.282  11.581 -0.1393 -0.1229 -0.1496
10993W        W27127   7.129  12.079   3.921 -0.1056  0.1327  0.0682
10994W        W27128  19.025  13.948   0.156 -0.2063  0.2736 -0.0436
10995W        W27129   1.875  12.955   1.266 -0.1223  0.4643 -0.1396
10996W        W27130  15.578  19.137  15.205 -0.1850  0.1884  0.0414
10997W        W27131  15.990   5.456   2.523 -0.0993  0.0759  0.1577
10998W        W27132   4.010  16.781   1.758 -0.0681  0.3008 -0.0724
10999W        W27133  12.857   0.231  11.097  0.0484 -0.2312  0.0400
11000W        W27134   6.790  13.239  12.207 -0.5502 -0.0698  0.1135
11001W        W27135  14.899   5.692  11.402  0.0957 -0.2418 -0.1155
11002W        W27136   1.808  17.910   0.939  0.2611  0.2044 -0.3344
11003W        W27137  13.138   6.016   4.745 -0.1086 -0.0541 -0.2544
11004W        W27138  16.482   2.352   0.376 -0.2683 -0.4213  0.0817
11005W        W27139  11.933   1.352  11.954 -0.1991 -0.0293  0.1998
11006W        W27140   0.832  15.477   2.891 -0.3362 -0.1734 -0.0325
11007W        W27141   2.993   3.077  10.542  0.0835 -0.1240 -0.0245
11008W        W27142  18.326   3.657  13.808  0.1264  0.1144  0.1436
11009W        W27143   4.040   2.792  13.733  0.4582 -0.4249 -0.1710
11010W        W27144  12.667  13.031   2.271 -0.2780  0.1548  0.1983
11011W        W27145   5.130  17.342  13.903  0.1401 -0.2632 -0.0687
11012W        W27146   6.453   3.283  10.564  0.3542 -0.0686 -0.1769
11013W        W27147   5.965   1.051   0.896 -0.1976  0.0444  0.0870
11014W        W27148   7.746   8.925  11.437  0.1322 -0.3777  0.1003
11015W        W27149  18.878   0.686   4.329  0.0227 -0.1271  0.0640
11016W        W27150   4.549  14.588   0.231  0.3658  0.2746  0.1372
11017W        W27151  18.942  17.900   0.410  0.0928 -0.0329  0.0584
11018W        W27152   3.582  13.360   0.420 -0.0648  0.1802 -0.5199
11019W        W27153  15.833   0.646   4.034 -0.0649 -0.0023  0.2613
11020W        W27154   0.440   4.338  11.821 -0.0446  0.1602 -0.3369
11021W        W27155   0.491   6.064  13.415  0.0517 -0.0102 -0.0308
11022W        W27156  17.214   0.207  12.199  0.0506  0.1868  0.0425
11023W        W27157   5.986  12.698  12.486  0.0579 -0.0714  0.0107
11024W        W27158   6.619  16.478   0.866 -0.0112  0.1549  0.1011
11025W        W27159  15.673   8.442   3.042  0.1212 -0.2974  0.0341
11026W        W27160   9.393   1.376  10.360  0.0938  0.3441 -0.3475
11027W        W27161  12.736   2.352   3.083  0.0411 -0.1072 -0.2548
11028W        W27162   7.434   3.047  10.830 -0.1847 -0.0747  0.0315
11029W        W27163   6.342   1.902  12.881  0.0537  0.0278 -0.1554
11030W        W27164   8.006   9.803   2.859  0.1003 -0.0979 -0.1726
11031W        W27165   9.350   1.123   4.545 -0.3367  0.1688 -0.1013
11032W        W27166   8.168   4.607   1.225  0.0991  0.6240 -0.3738
11033W        W27167   4.199  16.770   4.203  0.0974  0.2061 -0.4198
11034W        W27168   0.703   7.900   2.875 -0.0058  0.0243  0.0655
11035W        W27169   6.385  10.170   3.905 -0.0064  0.2492  0.2796
11036W        W27170   9.706  17.709  12.281  0.0501 -0.1277  0.3730
11037W        W27171   7.999  16.969   2.465  0.0870 -0.1286  0.3448
11038W        W27172  18.935  12.826  14.407  0.0002  0.0869 -0.2030
11039W        W27173  15.457  13.882  12.298  0.0856 -0.1258  0.0156
11040W        W27174  12.282  18.233  14.293 -0.0588 -0.2120 -0.1599
11041W        W27175   2.110  17.511  11.904  0.1905  0.3039  0.0541
11042W        W27176   0.404   3.375   0.140 -0.2128 -0.1600 -0.1799
11043W        W27177   4.321  16.154   4.780 -0.2215 -0.2809 -0.1424
11044W        W27178  17.686   8.875  11.209  0.2937  0.0497  0.1076
11045W        W27179   2.479  18.456  10.982 -0.0240 -0.1364  0.2058
11046W        W27180   3.563   7.513  10.535  0.2692  0.1414  0.0402
11047W        W27181   6.570  16.395   0.421 -0.3235 -0.0808  0.1065
11048W        W27182   3.032   7.279  11.237 -0.3026  0.1336  0.0798
11049W        W27183  13.446  18.532  11.482  0.0889 -0.2064 -0.2181
11050W        W27184   6.241   1.433   3.419 -0.0865  0.1118 -0.1277
11051W        W27185   7.328  18.279  10.245  0.0115  0.3097 -0.3342
11052W        W27186  11.281   0.707  12.719  0.0872  0.2877  0.4237
11053W        W27187   6.546   3.363   4.621  0.0965  0.2401 -0.3469
11054W        W27188   2.696   7.813  10.975 -0.4235  0.2182  0.1780
11055W        W27189  16.980   3.017  11.599 -0.1863  0.0824 -0.1565
11056W        W27190   4.868   7.427   9.610 -0.1994 -0.0529  0.2070
11057W        W27191   4.132  18.970   3.936  0.2039 -0.1094  0.2714
11058W        W27192  12.733   1.349   3.214  0.1136 -0.4043 -0.0128
11059W        W27193  10.753  18.106   3.413  0.2691 -0.0376 -0.3012
11060W        W27194   5.171   9.737  11.152 -0.0135 -0.1044 -0.0221
11061W        W27195  19.108   6.342  14.012 -0.1057 -0.2160  0.1317
11062W        W27196   5.176   2.976  14.635  0.0320  0.0754  0.0587
11063W        W27197  18.356   6.242   0.976  0.0355  0.1219 -0.3355
11064W        W27198   5.423   2.738  12.360 -0.1119  0.1624  0.3658
11065W        W27199   1.407  18.630  13.682 -0.0422  0.3150  0.2551
11066W        W27200  12.414  13.176  13.266 -0.0967  0.1944  0.0634
11067W        W27201  11.994   5.911   0.304  0.3505  0.0100  0.0417
11068W        W27202  18.962   3.314   1.999  0.2568  0.0387  0.0739
11069W        W27203  16.313  15.022  14.907  0.3692 -0.1111  0.0845
11070W        W27204  14.162   5.889   2.210  0.1674 -0.0779  0.0526
11071W        W27205  18.906  16.984  12.863  0.0882  0.1224 -0.0559
11072W        W27206  15.871  15.417   3.996  0.0043 -0.0921  0.0692
11073W        W27207   3.821   2.874  14.718  0.0759 -0.2172 -0.0981
11074W        W27208   7.602   3.148   1.625 -0.0587  0.0949  0.3330
11075W        W27209  10.795   5.184   4.169  0.0079 -0.1643  0.1395
11076W        W27210   8.604  18.671  11.709 -0.1428 -0.0873  0.3204
11077W        W27211  14.558   5.995  14.515 -0.0769  0.0962 -0.2078
11078W        W27212  18.052  10.059   4.359 -0.0077 -0.2546  0.2924
11079W        W27213  13.541  14.206   1.983 -0.0526 -0.1773  0.1548
11080W        W27214  11.254   8.329   0.532  0.0697 -0.1297  0.2566
11081W        W27215   7.950  16.587  12.972  0.1987  0.2663  0.2075
11082W        W27216  11.242  14.484   0.074 -0.0314  0.1680 -0.1352
11083W        W27217   1.645  10.267  14.197 -0.2577 -0.0399 -0.2085
11084W        W27218  12.701  11.792   1.256  0.3410 -0.0419 -0.2409
11085W        W27219  15.531  13.181   2.724 -0.1044  0.1392 -0.0095
11086W        W27220  17.208  15.619  12.232  0.0027  0.1272 -0.0529
11087W        W27221   6.924   9.940  11.927 -0.1350  0.1400 -0.2157
11088W        W27222   7.242  18.699  11.143  0.0332 -0.3026 -0.2236
11089W        W27223  10.186  16.010  10.645  0.1024 -0.2813  0.0413
11090W        W27224   6.950  17.835  13.819  0.2044 -0.1113  0.2310
11091W        W27225   5.973  17.179   1.779 -0.0775  0.1958  0.0581
11092W        W27226  18.845  15.636   0.859  0.1565  0.1934  0.2215
11093W        W27227  17.810  17.839   1.325  0.0710 -0.0378 -0.4820
11094W        W27228  12.190   3.636   1.838  0.0280  0.0804 -0.3042
11095W        W27229   1.404   3.133  14.873  0.0564 -0.2817  0.0246
11096W        W27230  14.166   4.408  10.876  0.2135  0.1056 -0.1532
11097W        W27231   0.466  16.734  13.352  0.2152 -0.2664  0.0255
11098W        W27232   0.671   3.702  13.878 -0.4950 -0.3031 -0.1022
11099W        W27233  18.587   1.671  12.459  0.3107 -0.2053 -0.1655
11100W        W27234  18.723  15.239   5.253 -0.0341  0.0317 -0.1594
11101W        W27235   5.530   0.724  10.942  0.0944 -0.1634  0.0307
11102W        W27236   1.029  11.423   1.125 -0.0002  0.1136 -0.1641
11103W        W27237  12.676  16.730   4.377 -0.1776 -0.2673 -0.0948
11104W        W27238  14.043  12.152   4.977 -0.1263 -0.2420  0.0243
11105W        W27239   4.262   5.850  12.443 -0.1287  0.3303  0.3043
11106W        W27240   6.597  17.580   2.278  0.2463  0.0599  0.1302
11107W        W27241  11.986   0.002   3.838 -0.4323 -0.0684 -0.2800
11108W        W27242  12.435   7.436  13.239  0.0170 -0.1646  0.3509
11109W        W27243  11.531   9.141   3.296  0.2584 -0.0430 -0.0878
11110W        W27244  17.699  10.552   4.937  0.0351 -0.0886  0.3171
11111W        W27245  15.511   6.653   1.825 -0.0338  0.3868  0.2515
11112W        W27246   8.562   2.219   2.112  0.0405  0.0374 -0.2687
11113W        W27247   0.656  17.339   3.182 -0.0252 -0.1628  0.1789
11114W        W27248   8.358  14.374   1.930 -0.2639 -0.0583  0.2244
11115W        W27249   7.572  10.041   0.054 -0.2041  0.2173 -0.3169
11116W        W27250   7.386   2.103   5.223 -0.2807  0.2029  0.3121
11117W        W27251   5.693  12.977   6.179  0.0291 -0.0400 -0.3244
11118W        W27252   7.392  13.418  13.243 -0.0294  0.1186  0.1565
11119W        W27253   3.394  13.790   0.853 -0.0558  0.0335  0.2643
11120W        W27254  17.947  12.565  10.121  0.0934 -0.0943  0.3024
11121W        W27255  16.706  13.248  15.073 -0.0912 -0.0594 -0.1378
11122W        W27256   9.687  16.277  10.956 -0.0232 -0.4064 -0.0266
11123W        W27257  12.699  15.592   5.202 -0.1091 -0.0098  0.0495
11124W        W27258   0.169  13.001  10.607  0.1931  0.2848 -0.2864
11125W        W27259   3.099   7.257   2.071  0.2861 -0.3205  0.2104
11126W        W27260  17.828  16.871  11.273 -0.0027 -0.4040  0.1756
11127W        W27261   4.118  14.581  15.165 -0.1070  0.1522  0.2271
11128W        W27262  13.696  10.786  13.767  0.1040  0.2707 -0.1029
11129W        W27263   6.608   3.830   0.257 -0.0611 -0.1348 -0.3454
11130W        W27264  18.208   6.421  13.447 -0.1975 -0.2998  0.1886
11131W        W27265  14.731   4.164  10.288 -0.0094 -0.1537  0.1700
11132W        W27266   3.057   0.901  11.992  0.0730  0.0094  0.0743
11133W        W27267   8.052   1.188   3.763  0.0800  0.0673 -0.0024
11134W        W27268   6.873  12.287  10.905 -0.3268 -0.1534 -0.0422
11135W        W27269  11.099   5.010   0.109 -0.1259 -0.2127 -0.0099
11136W        W27270   6.761  12.658   5.618  0.0771 -0.1937 -0.0634
11137W        W27271  15.616   8.737  12.905  0.2085 -0.1425 -0.1793
11138W        W27272   8.342  17.810  13.306  0.3483  0.3212 -0.2251
11139W        W27273   0.499  14.392  12.662 -0.1309  0.1328 -0.1619
11140W        W27274   4.545   6.799   0.262 -0.4186  0.0263  0.0615
11141W        W27275  18.552  10.991  11.036  0.2528 -0.3718  0.0094
11142W        W27276  13.236  14.514  12.440  0.2502  0.0308 -0.1154
11143W        W27277   3.124   0.756   5.708 -0.2439  0.1136 -0.0767
11144W        W27278  17.676   3.666   4.010 -0.0928 -0.1586  0.0525
11145W        W27279  11.774  12.888   0.862  0.2293  0.0832 -0.3059
11146W        W27280  17.548   8.057   1.409 -0.1150  0.1078  0.3697
11147W        W27281   2.865  16.331   3.807  0.1546 -0.0786 -0.0959
11148W        W27282  18.947   7.322   4.455  0.3275 -0.4288 -0.2464
11149W        W27283   5.906  12.882  15.099  0.0058  0.4169 -0.1212
11150W        W27284  15.575  17.970   4.659  0.0418  0.0108  0.0219
11151W        W27285   2.178   6.510   4.672  0.2052 -0.0628  0.1167
11152W        W27286   5.260  13.143  11.554 -0.1629 -0.0420 -0.1166
11153W        W27287  19.070   0.271   4.485 -0.1510 -0.0045  0.3378
11154W        W27288  10.818   1.359   1.328  0.0434 -0.4190 -0.0602
11155W        W27289  17.210   3.343  13.466 -0.0809 -0.0246  0.2701
11156W        W27290   1.726  10.276  12.247  0.0347  0.0125 -0.1942
11157W        W27291   4.048  18.646  10.055  0.1406  0.2404  0.1594
11158W        W27292  15.507   7.072  11.304  0.0210  0.0717 -0.4372
11159W        W27293   4.005   8.977  12.794 -0.2400  0.2740 -0.1513
11160W        W27294  16.467   0.657   4.104  0.0477 -0.1662  0.2776
11161W        W27295  15.995   8.046   3.287  0.1965  0.1021  0.2091
11162W        W27296   6.433   2.646   0.877  0.2961  0.0105  0.1869
11163W        W27297  13.523  13.507  13.650 -0.2964 -0.1143 -0.0264
11164W        W27298   2.262  18.324  12.014  0.0895  0.0120 -0.3158
11165W        W27299  12.593  10.005   3.862  0.1447  0.0148  0.0176
11166W        W27300  14.991   0.131  11.037  0.1084  0.0589 -0.0208
11167W        W27301  12.807   1.850   4.773 -0.0007  0.0005 -0.1762
11168W        W27302  14.520   1.677   9.690 -0.0936  0.0015 -0.0085
11169W        W27303  12.506  11.291   3.538 -0.0295 -0.0124  0.0104
11170W        W27304   8.514  10.697  13.111 -0.0833 -0.1253 -0.0268
11171W        W27305   9.522  11.871   0.336  0.0951 -0.3192 -0.3506
11172W        W27306  13.188  12.856   3.564  0.2166  0.2667 -0.0085
11173W        W27307   1.968  14.031  14.900 -0.1201  0.1861 -0.2815
11174W        W27308  18.747   2.116   3.692  0.2094 -0.1899 -0.0074
11175W        W27309   3.127  18.023  12.212 -0.1440 -0.1438 -0.0724
11176W        W27310   3.094  18.854  11.025 -0.1573 -0.2876  0.1349
11177W        W27311  15.359  10.918  10.614 -0.1634 -0.2134 -0.1646
11178W        W27312   4.897   6.109   8.865 -0.2476 -0.2834  0.1308
11179W        W27313  13.334   8.467   4.628  0.0842 -0.1829 -0.1415
11180W        W27314   7.618   1.907   1.168 -0.0927 -0.0384  0.3047
11181W        W27315  18.995   7.535  12.201  0.0448  0.1750  0.0536
11182W        W27316  13.832   4.520   0.974 -0.2351  0.0207 -0.0494
11183W        W27317   2.284  14.067   3.367  0.1320 -0.2140 -0.1944
11184W        W27318   7.604   7.786   2.425  0.1017 -0.1668 -0.1353
11185W        W27319   2.646  15.639   1.578 -0.0519 -0.0299 -0.1035
11186W        W27320  18.646   7.995  11.836  0.0460  0.0527  0.0170
11187W        W27321  17.277  10.847   4.674 -0.0053 -0.4814 -0.0070
11188W        W27322   9.948  10.523   4.817  0.2018 -0.1202 -0.2071
11189W        W27323  14.300   8.495   4.901  0.0523 -0.0937 -0.0557
11190W        W27324  17.870  10.897   4.594  0.2785  0.0592  0.4299
11191W        W27325   4.252   8.957  11.433 -0.0943 -0.1173 -0.2424
11192W        W27326  18.344   1.726   1.548 -0.1416  0.0000  0.0475
11193W        W27327  14.630  16.563   4.894  0.0416  0.3446 -0.0625
11194W        W27328   9.481   3.612  13.267 -0.0001  0.4276 -0.3237
11195W        W27329  15.988   3.692  13.352 -0.0191  0.0642 -0.0487
11196W        W27330   8.527   0.466  14.001  0.0346  0.1506 -0.0609
11197W        W27331   9.472  17.439   1.274  0.0674 -0.2045  0.0482
11198W        W27332  10.535  16.282   0.328 -0.2702  0.1371 -0.1203
11199W        W27333   1.583  17.595  12.616  0.1865 -0.2568 -0.1417
11200W        W27334  12.409  14.627  12.710 -0.0640 -0.1423  0.3856
11201W        W27335   2.269   9.895   2.997  0.0694 -0.0533 -0.1610
11202W        W27336   5.274  16.469  13.747  0.0891 -0.0339 -0.0711
11203W        W27337   7.923   9.312   5.199  0.1224 -0.1979 -0.0728
11204W        W27338   3.908   6.125  10.642  0.0363 -0.1343 -0.1182
11205W        W27339   2.028  14.355  14.457 -0.0097 -0.0293 -0.0726
11206W        W27340   7.754   4.222   1.306 -0.1416  0.1022  0.0937
11207W        W27341   3.980  10.942  15.159  0.0673 -0.1228  0.0514
11208W        W27342  14.028  12.410  12.567 -0.2177  0.2895 -0.0867
11209W        W27343  14.895  11.633  10.237 -0.0369 -0.2379  0.0556
11210W        W27344   4.962   7.407  11.566 -0.0820  0.2157  0.0224
11211W        W27345   3.022  17.897   9.301  0.3021  0.2788  0.0022
11212W        W27346  16.204   0.015   0.448  0.1322  0.0607 -0.2779
11213W        W27347  17.399  11.232   2.317 -0.3956  0.0632  0.1546
11214W        W27348  13.309   9.996  12.714 -0.1319 -0.1305 -0.1336
11215W        W27349   6.593  14.863  13.389  0.0114  0.1203  0.4651
11216W        W27350   0.507  16.172  11.481  0.1201 -0.1229 -0.3809
11217W        W27351  15.671  10.729  14.422 -0.3062  0.1521 -0.0712
11218W        W27352   3.255  10.606  14.598 -0.1725 -0.3002  0.1578
11219W        W27353  17.389   0.581  10.439 -0.1904 -0.2107 -0.0227
11220W        W27354  17.979   9.538   4.989 -0.1497 -0.0342 -0.3186
11221W        W27355  12.724   0.537   5.393 -0.1762 -0.0740  0.0110
11222W        W27356  18.177  10.022  14.913 -0.1829 -0.0269  0.1068
11223W        W27357  10.825  10.107   0.600 -0.2755  0.2971 -0.2054
11224W        W27358   6.436  16.464   5.605 -0.1297  0.2022 -0.1111
11225W        W27359   0.264  12.696   3.163  0.0506  0.1801 -0.0115
11226W        W27360   6.109  10.306  10.744  0.1031 -0.0364  0.0505
11227W        W27361  11.305  16.446  14.161  0.0219 -0.0814 -0.0319
11228W        W27362   5.764  13.040   0.843  0.0294 -0.1078  0.1127
11229W        W27363   0.950  12.970   1.315 -0.1401 -0.0444  0.2894
11230W        W27364  16.013   0.732   5.448 -0.0029 -0.0791  0.1349
11231W        W27365  16.487   7.823  11.478 -0.0960 -0.0857 -0.0068
11232W        W27366  12.345   0.608   2.230  0.0422 -0.0124  0.1814
11233W        W27367   8.450   7.955  12.689 -0.0145 -0.0798 -0.1303
11234W        W27368  17.495  15.133   3.569  0.0088  0.1829  0.3637
11235W        W27369   0.895  18.210  13.381  0.0089 -0.0507 -0.2250
11236W        W27370   1.329  12.334  13.991 -0.1968  0.2493  0.4028
11237W        W27371   2.742   2.387  11.738  0.0018 -0.1720 -0.2180
11238W        W27372   1.356   0.808  12.987 -0.0969 -0.0643  0.3516
11239W        W27373  15.026   3.168   0.575  0.1019  0.0738 -0.2882
11240W        W27374  15.027   5.554  10.891 -0.1135 -0.0460  0.4006
11241W        W27375   9.518  13.138  13.204 -0.0781  0.1603 -0.0096
11242W        W27376   7.176   5.102   5.553  0.2133 -0.1789 -0.0919
11243W        W27377  15.873  10.045  13.768 -0.0441 -0.2336  0.1053
11244W        W27378   7.448  11.786   1.738 -0.2507  0.2565  0.0815
11245W        W27379   6.871  16.888   0.554 -0.0054 -0.0152  0.1133
11246W        W27380  11.169  13.938   1.362  0.2930  0.2286  0.1813
11247W        W27381  18.521   8.950  11.348  0.0215  0.0347  0.1742
11248W        W27382   5.268  11.102  11.882 -0.0613 -0.3539  0.2222
11249W        W27383  10.729   5.226  11.302  0.0478  0.0608  0.2175
11250W        W27384  11.607  12.069  13.640  0.1376 -0.0566 -0.0688
11251W        W27385  13.153  16.384  10.799 -0.6712 -0.0140  0.1401
11252W        W27386   4.522   0.105  13.188  0.1236 -0.3697  0.1047
11253W        W27387  14.407  10.740   1.432  0.3016  0.0711  0.3064
11254W        W27388  14.155   6.088   4.998 -0.0363 -0.0253  0.1121
11255W        W27389  14.172   1.103   3.157 -0.0141  0.0522  0.0803
11256W        W27390  18.742   5.585  10.536 -0.1055  0.1146 -0.0209
11257W        W27391   2.455  11.434   1.588  0.1444  0.2185 -0.0335
11258W        W27392  16.082   0.201   1.469 -0.1968 -0.1336 -0.1142
11259W        W27393   1.891   4.026   1.491 -0.1289 -0.2277 -0.2662
11260W        W27394   0.042   5.014   1.467 -0.0001  0.2206  0.0989
11261W        W27395   0.644  13.296  13.226  0.1232 -0.1888 -0.2080
11262W        W27396   0.167  13.981  14.470 -0.0132 -0.1550  0.1314
11263W        W27397   2.153  14.987   3.362  0.0664  0.0307 -0.1491
11264W        W27398  14.922  17.013   4.908  0.0908  0.1419 -0.1522
11265W        W27399   1.554  17.115   3.567 -0.0834 -0.0295  0.3538
11266W        W27400   8.361   9.644  13.440 -0.2153 -0.1711  0.3914
11267W        W27401  15.932  10.440   1.482 -0.3041 -0.0532 -0.0798
11268W        W27402  15.673   1.096   5.116 -0.0617 -0.0017 -0.0842
11269W        W27403   8.696   6.110   2.584 -0.2576  0.0798 -0.0480
11270W        W27404   9.185   1.678  11.173  0.0629  0.0777  0.3143
11271W        W27405  17.207  11.811  12.341  0.2960  0.0415 -0.2491
11272W        W27406  12.526   3.903  12.088 -0.1276  0.0801  0.0057
11273W        W27407   8.035  15.387  13.253 -0.0167  0.1292 -0.2502
11274W        W27408  10.423   1.132   0.020 -0.1727  0.0246 -0.1127
11275W        W27409  17.446   3.921  12.320  0.1698  0.0981 -0.1187
11276W        W27410  12.301   7.786   0.697  0.1165  0.1936  0.0896
11277W        W27411   9.900   2.745   0.009 -0.0810 -0.2196  0.0075
11278W        W27412  14.539   7.920   1.605  0.0802  0.0434 -0.1309
11279W        W27413  11.406   9.360   4.513 -0.1942  0.0320  0.0671
11280W        W27414   5.642  14.265  12.871  0.2496 -0.4713 -0.3310
11281W        W27415  10.279   2.393   4.096 -0.1378  0.0285  0.0264
11282W        W27416  16.893   6.315  12.858  0.0251  0.1654  0.0888
11283W        W27417   2.407  10.383  10.985 -0.1370 -0.2802 -0.1119
11284W        W27418   9.590  10.652  14.667 -0.1617 -0.3109 -0.2363
11285W        W27419  10.938  17.260   3.200  0.0117 -0.2112 -0.0341
11286W        W27420   2.232   1.608  14.966 -0.1024  0.0618  0.0296
11287W        W27421   8.519  10.766  12.018  0.0392  0.2256  0.0256
11288W        W27422  14.008  13.358   1.635 -0.2145 -0.0058  0.0899
11289W        W27423  15.632  13.243   4.560 -0.2651  0.0297  0.0229
11290W        W27424  16.450   8.196   0.452 -0.0453  0.2727 -0.0001
11291W        W27425   9.385   2.988  14.106 -0.0181  0.1296 -0.0806
11292W        W27426   5.304   5.620   4.268  0.0388  0.3637  0.0433
11293W        W27427  10.784   5.894   3.821  0.0210  0.1277 -0.0670
11294W        W27428   1.145  10.225   2.973  0.2416 -0.0868  0.1174
11295W        W27429  11.677   3.019  11.658  0.1467 -0.0365  0.0203
11296W        W27430   1.566   9.051   5.062  0.1772  0.1500  0.1293
11297W        W27431   0.582  12.057  13.269  0.2665 -0.1011  0.2470
11298W        W27432  18.782  14.822   4.989  0.1041 -0.0791 -0.0195
11299W        W27433  15.280   1.170  11.951  0.2110 -0.0164  0.1034
11300W        W27434   5.361  18.380   5.076 -0.0991  0.2579  0.0886
11301W        W27435   0.870  14.193   0.084 -0.1087 -0.0912  0.3032
11302W        W27436  17.214  18.392  12.098 -0.0128  0.0796  0.2308
11303W        W27437  13.164  11.415  11.642 -0.2467  0.1396 -0.4631
11304W        W27438  19.002  14.102  14.818 -0.0442 -0.1038  0.0133
11305W        W27439  13.536   2.660  12.931  0.0820  0.0001 -0.0775
11306W        W27440   4.634  17.774   0.964  0.0770  0.2809  0.3348
11307W        W27441   0.589   9.240   2.071 -0.4592 -0.0954 -0.1926
11308W        W27442  14.399   8.635  14.597  0.1793 -0.1417  0.1790
11309W        W27443  11.873   1.797   2.218 -0.0299 -0.1314  0.4807
11310W        W27444   8.736  14.100   0.783  0.3623 -0.2291  0.0193
11311W        W27445   1.252  13.105   3.581 -0.0276  0.0647  0.1156
11312W        W27446   7.442  15.202   1.616 -0.2173  0.0306 -0.1807
11313W        W27447  17.649  18.434  10.545  0.3679 -0.1014  0.0214
11314W        W27448  15.679   1.561  13.490  0.0124  0.0678 -0.2328
11315W        W27449   4.502  15.128   3.597 -0.1390 -0.4785 -0.3851
11316W        W27450   0.734   3.448   9.686  0.0569 -0.1000  0.2538
11317W        W27451   3.265   8.135   2.779 -0.0822  0.1673 -0.2628
11318W        W27452   5.529  18.588   2.130  0.1068 -0.3458 -0.3363
11319W        W27453   6.095  11.764   1.676 -0.0326  0.0910  0.3122
11320W        W27454   1.558   9.707  12.587  0.1075  0.0215  0.2034
11321W        W27455  18.925   1.505   4.380  0.0316 -0.0722 -0.1188
11322W        W27456  17.138   3.157   3.859  0.1799 -0.0076  0.2418
11323W        W27457   8.273   4.092   4.907 -0.2651 -0.0402  0.1120
11324W        W27458   9.363  13.716  13.110 -0.1269 -0.1223  0.0634
11325W        W27459  12.173   4.444   4.744 -0.4422 -0.0525  0.1105
11326W        W27460  10.815  15.298   4.389 -0.2094  0.1243  0.1955
11327W        W27461   9.547   1.839  13.304  0.1641  0.0804  0.2430
11328W        W27462   5.707  14.417   3.032 -0.2618  0.2199 -0.0939
11329W        W27463   8.242  13.026   1.138  0.1973  0.0387 -0.0270
11330W        W27464  12.414   6.168   1.889 -0.0234  0.2280  0.1902
11331W        W27465  18.338  11.860   3.531  0.2452 -0.1319  0.1983
11332W        W27466  17.114  17.760  13.894  0.2187  0.0469 -0.0088
11333W        W27467   1.824   2.284   4.479  0.1487 -0.0736  0.0326
11334W        W27468  14.153   1.626   0.244 -0.2233 -0.1436 -0.2218
11335W        W27469   2.677   7.579  11.425 -0.0750 -0.0484 -0.1411
11336W        W27470  18.896  18.403  11.887  0.0976  0.1614 -0.0583
11337W        W27471  14.421   2.104  13.317 -0.0814 -0.0180  0.0007
11338W        W27472  11.045   0.856   4.389  0.3204 -0.1806  0.0865
11339W        W27473   3.198  11.590   3.293 -0.1494  0.0668  0.2862
11340W        W27474   1.954   6.303   2.653 -0.3758  0.1908  0.0591
11341W        W27475  15.690  12.457  14.090  0.2258 -0.0268 -0.0464
11342W        W27476   6.985  11.561   2.672  0.2039  0.0372  0.2828
11343W        W27477   4.861  11.716  13.723  0.3124  0.1822 -0.3327
11344W        W27478   2.135  13.276  13.186  0.1293 -0.1470 -0.0133
11345W        W27479   1.166   4.065   3.513 -0.1177  0.1694  0.1872
11346W        W27480  12.227   6.050  10.831  0.0548  0.1611 -0.1207
11347W        W27481   3.227   4.453   4.360  0.0276 -0.2225 -0.2923
11348W        W27482  12.252   8.163  11.507  0.2746 -0.2352 -0.1602
11349W        W27483   6.704  14.211  11.301 -0.1765  0.3080 -0.2339
11350W        W27484  16.165   6.621  11.005  0.0510 -0.1308 -0.0191
11351W        W27485  11.327   9.994   9.898 -0.0842  0.0319  0.2095
11352W        W27486   1.881   1.030  11.181  0.3710  0.0366 -0.0080
11353W        W27487   2.022  11.797   4.592  0.1474  0.0343  0.3754
11354W        W27488   3.883   0.334   4.995 -0.0311 -0.0072 -0.0758
11355W        W27489  10.833  10.477  11.129 -0.2783  0.0876 -0.1985
11356W        W27490   4.192   1.818   3.872  0.0188 -0.2401  0.0957
11357W        W27491   4.347  10.086  14.728 -0.2202  0.0771  0.1484
11358W        W27492  14.361  11.312  14.420  0.2645 -0.0052 -0.1931
11359W        W27493   9.931   1.983   0.136 -0.3614 -0.0684  0.2051
11360W        W27494   8.064  18.933   3.874 -0.1878  0.1756  0.1988
11361W        W27495   3.859   0.325   4.067 -0.0769 -0.0277  0.2830
11362W        W27496  10.654   9.036   1.971  0.4402 -0.2574 -0.0314
11363W        W27497  18.683  11.712  14.091  0.3092  0.0468 -0.0075
11364W        W27498   6.717   7.988   4.298  0.1117  0.2785 -0.3660
11365W        W27499   6.070  10.373  14.042  0.0145 -0.1233  0.0472
11366W        W27500  10.313   5.234   3.891 -0.4026 -0.3427 -0.1573
11367W        W27501   0.843   9.665  14.818  0.1809  0.1096 -0.3398
11368W        W27502  16.935   4.782  12.180 -0.1467  0.2191 -0.1583
11369W        W27503   0.856  14.400   1.390  0.1638 -0.1260 -0.0375
11370W        W27504   9.512   2.541  14.952  0.1094 -0.0495 -0.2665
11371W        W27505  16.072   1.079  15.170 -0.0720  0.1174  0.3436
11372W        W27506  16.408   7.353  10.596 -0.3117  0.0315 -0.0591
11373W        W27507  16.109   2.767  10.789  0.0444 -0.1022  0.0943
11374W        W27508  11.882  18.599   3.722 -0.0009  0.1653  0.1637
11375W        W27509   3.177  12.583   2.540  0.2013 -0.1227 -0.1597
11376W        W27510  10.316  13.719   1.464 -0.2445 -0.1818 -0.0326
11377W        W27511  12.872  16.882   2.222 -0.4490  0.2056 -0.0335
11378W        W27512   7.317   5.032  11.575 -0.0728 -0.0902 -0.3438
11379W        W27513   8.731   4.290  14.358 -0.1556 -0.1721 -0.0096
11380W        W27514   4.232   7.419   1.544  0.0782 -0.0645 -0.3342
11381W        W27515   7.998   8.180  12.843  0.0052 -0.1647 -0.1127
11382W        W27516  15.857   5.195  15.069 -0.0762 -0.1087 -0.1816
11383W        W27517  16.571   5.222  14.360  0.1424  0.1795 -0.0409
11384W        W27518   9.085  11.074  13.330 -0.0840 -0.3001 -0.0777
11385W        W27519   1.799   1.886  11.558  0.4384  0.0387 -0.0123
11386W        W27520  11.739   8.556   5.113 -0.1657  0.0703  0.2297
11387W        W27521  13.651   2.755   3.237  0.0269  0.1069  0.0198
11388W        W27522   4.550  17.709  14.164 -0.1292  0.2416 -0.5942
11389W        W27523   1.645   6.185  11.185  0.0571 -0.2784 -0.2661
11390W        W27524  10.596   2.586   1.339 -0.1527 -0.4381  0.0319
11391W        W27525   5.722  10.834   9.900 -0.2487  0.1117 -0.1847
11392W        W27526   6.280   8.753  12.158  0.0259  0.3597 -0.0611
11393W        W27527  17.628   7.217  11.470  0.0518  0.0350  0.0078
11394W        W27528   0.199  14.931  12.296  0.0252  0.1329  0.1257
11395W        W27529   7.611   4.272  12.034  0.0899 -0.3021  0.0537
11396W        W27530   0.364   3.316  12.394  0.0303 -0.2000  0.1289
11397W        W27531   3.865  17.897   2.586 -0.0087 -0.0107 -0.2708
11398W        W27532  12.403   0.163  12.039  0.2161 -0.3557  0.0684
11399W        W27533   2.735   0.800  12.575  0.0006 -0.0973  0.0268
11400W        W27534   5.294   5.588  12.135  0.1764  0.1789 -0.1249
11401W        W27535  18.196   2.518   1.878  0.5449  0.1194  0.0934
11402W        W27536   2.992   9.174   0.572 -0.1262  0.0612  0.1283
11403W        W27537  15.749  18.237  14.336  0.2085  0.2762 -0.0564
11404W        W27538  11.560   2.242  10.397 -0.2721  0.1296 -0.1320
11405W        W27539   6.592  16.132   4.053  0.0654  0.2330 -0.1458
11406W        W27540   2.079   9.047   0.701  0.1241  0.0237 -0.0262
11407W        W27541   1.418   1.098   2.399  0.2244  0.0229  0.0522
11408W        W27542  18.968   9.920   4.124 -0.2701 -0.2697 -0.1746
11409W        W27543  15.015   5.012   3.058  0.1422  0.1890  0.0107
11410W        W27544   5.244   6.727   1.889  0.2209  0.0436  0.3551
11411W        W27545   7.766  16.065  12.740 -0.1143  0.2022  0.1075
11412W        W27546  12.983  14.854  10.372 -0.1307 -0.0033 -0.0263
11413W        W27547   2.128  13.400   2.074 -0.0155 -0.2482  0.1619
11414W        W27548   1.438  10.791  14.093  0.1058  0.0733 -0.0663
11415W        W27549  17.303  15.435   5.610  0.1410 -0.1817  0.2319
11416W        W27550  17.793  11.932   4.287  0.0809  0.2221  0.0283
11417W        W27551   0.431  10.750  11.705 -0.1517 -0.0203 -0.1124
11418W        W27552  18.336   4.105  13.245  0.1292  0.1751 -0.0802
11419W        W27553  17.219  12.524   1.160  0.2499 -0.2919 -0.2657
11420W        W27554  14.116  14.566   0.451  0.0923 -0.0578 -0.1239
11421W        W27555   2.039  13.651   2.597  0.2208  0.0403 -0.1314
11422W        W27556   8.587   6.022  10.518 -0.1770  0.1628  0.0771
11423W        W27557  18.298   7.593   4.550 -0.0086 -0.0339  0.0572
11424W        W27558   0.175   2.113  12.914 -0.2634  0.2282  0.0738
11425W        W27559  16.683   5.533   1.457  0.3727 -0.0325 -0.0366
11426W        W27560  10.394   2.634   0.888 -0.3130 -0.0944 -0.4597
11427W        W27561  17.098   2.288   2.719  0.4233  0.2048 -0.4553
11428W        W27562   8.514   0.809  12.223 -0.1074  0.1463 -0.5390
11429W        W27563  11.158   2.693   0.597 -0.0442 -0.0017 -0.1303
11430W        W27564  13.739   4.959   0.575  0.1112  0.5253 -0.0460
11431W        W27565  10.456  15.201  14.958  0.1085 -0.0102  0.2896
11432W        W27566  14.536  11.747  14.686 -0.1587 -0.0523  0.0657
11433W        W27567   6.015  13.416  15.074 -0.2110 -0.2278 -0.0808
11434W        W27568  12.249   4.414   0.632 -0.0274 -0.0672  0.2803
11435W        W27569  18.077  10.351   0.850 -0.3753 -0.3546  0.0973
11436W        W27570  12.704  11.383  11.993  0.1509 -0.2866  0.2363
11437W        W27571   3.769   9.495   1.991  0.0378 -0.0187 -0.3764
11438W        W27572   9.162  14.980   1.062  0.4271 -0.0018 -0.1533
11439W        W27573   8.486   3.917   2.445 -0.0877 -0.0865  0.1448
11440W        W27574   9.687  12.926  14.909  0.2805  0.0514 -0.1174
11441W        W27575   6.347   8.020   0.682 -0.2086 -0.0380 -0.1238
11442W        W27576   3.031  18.021  10.142  0.0992 -0.0232 -0.1055
11443W        W27577  14.492   9.676  14.050 -0.2373 -0.4402 -0.3436
11444W        W27578  15.727  16.140  12.691 -0.1103  0.1788 -0.4484
11445W        W27579   4.676   3.221   3.105  0.0794  0.2406  0.0045
11446W        W27580   3.901   0.833   1.690  0.1351 -0.1551  0.3964
11447W        W27581   2.840  12.793  10.911  0.0061  0.1074  0.2415
11448W        W27582   1.829  11.112  11.554  0.5525  0.1786  0.2392
11449W        W27583   7.129  12.551   0.324  0.0755  0.1343  0.6340
11450W        W27584  11.368  12.587   3.913  0.0984  0.0742 -0.1569
11451W        W27585  18.175  15.817  10.540  0.0159 -0.0827 -0.0419
11452W        W27586   2.087   1.526  11.311 -0.3322  0.1817 -0.2400
11453W        W27587   0.801  19.065  11.108 -0.2880 -0.2911  0.0649
11454W        W27588   2.680   1.167   0.978  0.0626 -0.0613  0.0320
11455W        W27589  11.497  17.129  11.473 -0.3448  0.2660 -0.0508
11456W        W27590   9.838  17.431  14.113  0.0737 -0.0561  0.0745
11457W        W27591   7.624   8.768   3.703 -0.1221  0.0464 -0.2076
11458W        W27592  14.345   3.038  13.705  0.0940  0.3385  0.1070
11459W        W27593  11.989   4.520  13.622  0.1114  0.1707  0.1569
11460W        W27594   6.902  11.911  10.609 -0.0276 -0.0494 -0.2713
11461W        W27595  10.603  16.557  14.639  0.0367  0.0706 -0.0077
11462W        W27596   1.005   5.048   2.914 -0.0223 -0.3752  0.1236
11463W        W27597  16.796  17.160   0.737 -0.2507  0.1987  0.1802
11464W        W27598   3.585   6.401  13.242 -0.0822 -0.1598  0.1415
11465W        W27599   3.287   5.104  11.216 -0.3445 -0.0146 -0.1374
11466W        W27600   0.060   3.680  14.908  0.0077 -0.1451 -0.0514
11467W        W27601  16.472   8.064  12.626 -0.1952 -0.0362 -0.1798
11468W        W27602   1.890   8.979  10.236 -0.0668 -0.1540  0.0824
11469W        W27603   6.999  10.902  12.258  0.0038  0.2779 -0.1753
11470W        W27604  11.933   7.627  13.251 -0.0901  0.0742 -0.0248
11471W        W27605  14.101  15.203  14.346 -0.1228 -0.1737  0.0595
11472W        W27606   9.773   4.508   2.975  0.3686 -0.1686  0.1980
11473W        W27607  19.134  10.426   3.955 -0.2238 -0.0192 -0.1760
11474W        W27608  10.058   8.535  10.841  0.1889 -0.0165 -0.0338
11475W        W27609   7.218   9.233  10.611 -0.3143 -0.1707  0.1058
11476W        W27610   4.784   9.829   5.752  0.1528  0.1113  0.4480
11477W        W27611  13.828  18.811  13.136  0.1082  0.6108 -0.0848
11478W        W27612  17.747   6.516  11.492  0.1272 -0.0884 -0.2814
11479W        W27613  18.909   1.806  12.880  0.0483 -0.1541 -0.3236
11480W        W27614  17.616  19.139   9.880 -0.2039 -0.3989  0.3012
11481W        W27615   5.337   9.006  14.699 -0.4305  0.1679 -0.0998
11482W        W27616   1.809   7.595  11.340  0.0441 -0.0787 -0.1204
11483W        W27617   5.558   2.664  14.810 -0.0166  0.1364  0.2556
11484W        W27618   9.668   1.418   9.906  0.2723  0.0959  0.1184
11485W        W27619  17.514   5.434   0.934 -0.0538 -0.0302 -0.3650
11486W        W27620  14.690   3.706  11.091  0.2040  0.1948 -0.1899
11487W        W27621  17.028   0.219  13.204  0.0243 -0.1533 -0.0139
11488W        W27622   0.785  16.807   1.542  0.1948  0.0653 -0.2008
11489W        W27623   6.358   7.406   1.448 -0.1077 -0.2341 -0.1502
11490W        W27624   5.821  10.114   3.867 -0.2857 -0.1878  0.0198
11491W        W27625  12.391   5.753   2.140 -0.1555  0.1068 -0.2718
11492W        W27626  15.646  16.277  13.880 -0.1031  0.0674 -0.0371
11493W        W27627   4.928  17.867  13.149 -0.0949  0.0631  0.0173
11494W        W27628  15.607  18.954  12.624 -0.2756  0.1063  0.3401
11495W        W27629   2.975   1.377  14.412  0.0826  0.1706 -0.1164
11496W        W27630  13.580   2.260  13.239  0.1056  0.1498  0.0519
11497W        W27631   9.178   3.807   3.646  0.3701  0.1505  0.1542
11498W        W27632  13.162   9.499  11.161  0.0313  0.4947 -0.2481
11499W        W27633   9.408   0.495  12.634  0.0463 -0.0741 -0.2095
11500W        W27634  13.039   6.965  10.823 -0.2652 -0.1021 -0.2192
11501W        W27635   8.886   3.724   0.882  0.2412 -0.1486  0.0089
11502W        W27636   6.240  11.531  11.244 -0.4831 -0.0413 -0.2456
11503W        W27637   4.771  18.391  13.126 -0.0678  0.3994  0.2543
11504W        W27638  13.601   6.608   1.429 -0.1983  0.2162 -0.2152
11505W        W27639   6.842   7.114   4.976 -0.1531 -0.1513  0.1142
11506W        W27640   8.917   2.063  14.103  0.1525 -0.0129  0.1357
11507W        W27641  17.609   2.009  14.339  0.2320  0.1593 -0.1004
11508W        W27642  17.357  10.182  11.365  0.0946  0.4247  0.1711
11509W        W27643   0.527  14.673   1.009  0.1175 -0.3266  0.0217
11510W        W27644  13.740   6.018   5.286 -0.2742  0.1933 -0.3704
11511W        W27645  12.045  17.758   4.842 -0.1919  0.5772  0.1674
11512W        W27646   7.674   2.009  13.771  0.1256  0.2016 -0.1373
11513W        W27647   1.852   8.319  12.136  0.1330 -0.2309 -0.1320
11514W        W27648   4.280   6.838  11.307  0.0294  0.2820 -0.0224
11515W        W27649   9.107   6.351   1.308  0.1410 -0.1653 -0.1602
11516W        W27650   8.124   8.874   5.555 -0.2217 -0.1347 -0.2131
11517W        W27651   1.790   5.504   4.639 -0.0748 -0.0795  0.0178
11518W        W27652  16.622  11.214   5.314  0.2198  0.3452  0.1252
11519W        W27653  12.266  12.674   3.064 -0.1164 -0.2253 -0.1089
11520W        W27654  19.043   7.492  10.868 -0.1093 -0.1003  0.0568
11521W        W27655   7.568  17.669   0.458 -0.0452  0.0690 -0.2814
11522W        W27656  10.118   6.312  12.085 -0.0596 -0.1567 -0.3298
11523W        W27657   6.490  18.362   0.477 -0.1192  0.2864  0.2419
11524W        W27658   1.201  10.862  11.164  0.0616  0.0612  0.4637
11525W        W27659   4.075   8.632   3.712  0.0305  0.3029  0.0771
11526W        W27660   0.841  11.660   3.264  0.1013  0.2785  0.2009
11527W        W27661  15.533   3.514  14.131 -0.2549  0.1888  0.0758
11528W        W27662   8.321  12.375   0.174  0.0920 -0.2879  0.4306
11529W        W27663   6.257  15.233   2.273 -0.0412 -0.1543  0.0827
11530W        W27664   5.803  12.100  11.086 -0.0574  0.1588 -0.0672
11531W        W27665  11.289  11.842  13.357 -0.4588  0.0933 -0.0426
11532W        W27666  17.100   6.145  14.914 -0.1360  0.1159  0.2590
11533W        W27667   6.877   3.696   4.610 -0.1935 -0.1168  0.1276
11534W        W27668   4.780  10.810  11.830 -0.1858 -0.0781  0.0225
11535W        W27669  17.464  11.758  13.996 -0.2187 -0.1846 -0.0028
11536W        W27670   8.315   2.788  14.783 -0.2840 -0.1152 -0.0068
11537W        W27671  11.607  12.375   0.763 -0.0727  0.1189  0.1852
11538W        W27672  14.045  18.485  11.608  0.0647 -0.0041 -0.1847
11539W        W27673  15.653  17.266   4.052 -0.3825  0.1188  0.0768
11540W        W27674   0.265  11.288   2.418 -0.2717  0.0178  0.5043
11541W        W27675  13.387  17.612   3.090  0.0682 -0.2117  0.0615
11542W        W27676   0.066  14.956   1.770  0.5617 -0.1904 -0.1926
11543W        W27677   6.157   5.224   3.620  0.2407  0.0051 -0.1854
11544W        W27678  17.293   2.788   2.684 -0.2760 -0.0297 -0.0007
11545W        W27679  16.687  17.948  11.423  0.0450  0.0040 -0.2579
11546W        W27680   8.434  15.271   0.287 -0.0755 -0.2061 -0.0425
11547W        W27681   7.850  16.623   2.873  0.1104  0.1113  0.1863
11548W        W27682   7.452  18.766   2.101 -0.2645 -0.1246  0.1745
11549W        W27683   5.935   1.399   4.218 -0.1544  0.0813 -0.3536
11550W        W27684  15.351   7.726  14.073  0.2162  0.3093  0.3260
11551W        W27685  13.302   5.191   5.584  0.0407 -0.1157 -0.0378
11552W        W27686  17.309   9.842   3.530 -0.0879 -0.0777 -0.0173
11553W        W27687  17.092   9.291   0.782 -0.1989 -0.0774 -0.1700
11554W        W27688  19.080   0.955  13.839 -0.0532 -0.1400 -0.4686
11555W        W27689   4.603  11.132   0.296 -0.1063 -0.0883  0.2700
11556W        W27690   2.125   1.237   4.851 -0.0541  0.2197  0.0985
11557W        W27691   0.863  13.144   3.215  0.0336  0.2351 -0.3719
11558W        W27692   1.502   2.204  10.610  0.3547 -0.3890 -0.0715
11559W        W27693  17.410   2.403   4.966 -0.0303  0.1081  0.0853
11560W        W27694  10.561  14.614  12.049 -0.0368 -0.2684 -0.2689
11561W        W27695  11.188  10.314   3.238  0.0114  0.1012  0.2224
11562W        W27696   4.864  17.085  10.385  0.0520  0.1499 -0.1730
11563W        W27697  14.351   1.677  13.619  0.0037 -0.3757 -0.0405
11564W        W27698   5.476  15.571  13.550  0.3504  0.1621 -0.2559
11565W        W27699   0.881   0.456  13.165 -0.0057  0.1496 -0.2750
11566W        W27700  11.337   2.291   3.870 -0.1077  0.1136 -0.0377
11567W        W27701  14.881   6.799  14.102  0.3033 -0.0184 -0.2624
11568W        W27702   1.606  11.669  11.025  0.0092 -0.1184 -0.0909
11569W        W27703   7.669  10.167   1.327  0.0120  0.0422 -0.0417
11570W        W27704  17.567   4.283   2.581 -0.0580 -0.2395  0.2074
11571W        W27705  11.421  14.727   2.535  0.2152 -0.1813  0.1622
11572W        W27706   8.924   1.080  11.850  0.3601 -0.4322 -0.2134
11573W        W27707   7.449  15.136   4.183  0.0291  0.2651 -0.0503
11574W        W27708   7.073  14.968   3.327  0.0528  0.0470 -0.1397
11575W        W27709   7.182   6.301   1.053 -0.1446 -0.0642 -0.0700
11576W        W27710  11.472  10.383  13.757 -0.0657 -0.0704  0.0773
11577W        W27711  13.964  13.966  10.735 -0.2721 -0.2122 -0.0250
11578W        W27712  18.463   0.381   2.014  0.2020  0.1045 -0.1443
11579W        W27713   0.048   0.427  12.674 -0.2019 -0.0467  0.0502
11580W        W27714  17.003  16.502  12.710  0.2088 -0.2794 -0.1739
11581W        W27715  19.110  15.872   2.680  0.0390  0.1518 -0.0237
11582W        W27716  12.630   2.479   0.000  0.1765  0.0458  0.0340
11583W        W27717   0.641   5.050   5.064 -0.1810  0.2112 -0.1662
11584W        W27718   2.584  12.905   3.938  0.0714 -0.2476 -0.1935
11585W        W27719   0.470  11.632   3.986 -0.0681  0.3954  0.0178
11586W        W27720   6.290  17.859  14.887 -0.1476  0.1059  0.5572
11587W        W27721   2.434  11.436   0.758 -0.0114  0.1810 -0.0169
11588W        W27722  16.321  19.049   4.040 -0.0669 -0.1636 -0.0656
11589W        W27723   4.606   7.119  12.868 -0.0177 -0.1500  0.0656
11590W        W27724   4.010  13.196  14.773 -0.0977  0.2034 -0.2541
11591W        W27725  10.245   6.873   4.680 -0.3253 -0.0429 -0.1947
11592W        W27726   2.890   0.321   3.780 -0.0665 -0.1404  0.0584
11593W        W27727   7.998   9.578   0.620  0.1157  0.0097 -0.4732
11594W        W27728  10.940   7.764  13.137 -0.0177  0.0242  0.0201
11595W        W27729   3.998   1.126  12.865 -0.3540 -0.3548 -0.1557
11596W        W27730   5.883   7.770  11.672  0.0449  0.2326  0.2627
11597W        W27731  16.839   8.495   1.531 -0.1516  0.0883  0.2332
11598W        W27732  10.039  16.406   0.604  0.0020 -0.0709 -0.2264
11599W        W27733  13.624  18.428  14.852  0.2036 -0.1067 -0.2418
11600W        W27734  13.380   0.138  10.321 -0.2655  0.2486 -0.0609
11601W        W27735  12.474   9.042   0.758 -0.2087  0.2791  0.0823
11602W        W27736  11.417   9.588   1.679  0.0996  0.2251  0.0778
11603W        W27737   0.346   8.513   0.539 -0.1261  0.0718  0.1288
11604W        W27738   9.320  13.345   4.232  0.3603  0.1416 -0.0814
11605W        W27739  11.637  19.000   3.005 -0.2468  0.1994  0.0754
11606W        W27740  16.176   4.769   3.292  0.2926 -0.3115 -0.2749
11607W        W27741   8.359  15.856   3.721 -0.0838  0.2166  0.1902
11608W        W27742   0.654   4.527   1.390  0.0324 -0.1473  0.1709
11609W        W27743  11.807  16.156   3.636 -0.0280  0.1879 -0.0612
11610W        W27744   4.074  11.198  12.870  0.4261  0.1036 -0.1107
11611W        W27745   5.071   1.456   1.531 -0.2476  0.3035  0.0750
11612W        W27746   1.022   4.669   0.365  0.0710  0.1190 -0.2001
11613W        W27747   9.714  13.770  12.709 -0.0342  0.6128 -0.1080
11614W        W27748   8.380   4.954   0.315 -0.0465  0.2094  0.0722
11615W        W27749   4.909  19.089  10.931  0.0500 -0.2328  0.4848
11616W        W27750  19.028   5.433  12.495  0.2845  0.0581  0.0470
11617W        W27751  12.578  16.693  14.029 -0.2419  0.2991 -0.1063
11618W        W27752   9.612  15.233  11.965  0.1072 -0.1935 -0.1211
11619W        W27753  18.121   0.160   5.378 -0.0664 -0.0746 -0.2230
11620W        W27754   7.893  13.209   0.527 -0.2404 -0.0575  0.1575
11621W        W27755   2.527   6.135  10.664 -0.4339 -0.1205 -0.2742
11622W        W27756   1.483  16.224  12.087 -0.1607 -0.2202 -0.1360
11623W        W27757   5.471   3.576   0.134 -0.0210  0.3479 -0.0501
11624W        W27758   3.872   5.662   2.983 -0.0129 -0.0215 -0.1274
11625W        W27759  18.407   8.093   0.666 -0.0111 -0.1354 -0.5846
11626W        W27760  13.746   7.359   3.500  0.0047  0.0002  0.0913
11627W        W27761  11.826  13.075   9.845  0.2379 -0.0306 -0.0723
11628W        W27762   0.311  14.451  13.537 -0.1558 -0.0194 -0.1010
11629W        W27763   1.698  18.843   5.681 -0.1684  0.1046  0.1131
11630W        W27764   7.533   9.098  11.935  0.3384  0.6072  0.0398
11631W        W27765  11.280  18.693  12.087  0.1083  0.1107  0.1532
11632W        W27766  18.321   0.912   3.796  0.3430 -0.1948 -0.1456
11633W        W27767  16.947   1.124  13.707  0.2946 -0.0240  0.2379
11634W        W27768  18.697  14.196   2.178  0.1234  0.0418  0.1412
11635W        W27769   1.485   2.578   4.185  0.0976  0.2305 -0.1481
11636W        W27770   1.720  11.785   1.625 -0.2884  0.1518  0.1565
11637W        W27771  17.008   5.730   1.068  0.2837  0.3659  0.1669
11638W        W27772   7.836  10.081  12.398  0.1131  0.1848  0.0706
11639W        W27773   6.171   1.054  12.265  0.0901 -0.0900 -0.0093
11640W        W27774   0.497   5.254   3.171  0.0735  0.1808 -0.0382
11641W        W27775   7.354   0.865  10.974  0.2186 -0.0105  0.0933
11642W        W27776   7.127   0.623  12.489  0.4169  0.2694 -0.1151
11643W        W27777  15.808   8.829  15.047 -0.0254  0.0193  0.1498
11644W        W27778  14.955   0.861  12.322  0.1058  0.0235  0.4426
11645W        W27779   1.029  18.408  10.567 -0.1581 -0.0201  0.2664
11646W        W27780  12.293  14.326  12.036 -0.0339  0.0970  0.1507
11647W        W27781  14.262   5.666   2.629 -0.0274 -0.0612  0.3728
11648W        W27782   2.468   3.335  11.164  0.0040 -0.1585  0.2512
11649W        W27783  19.110   8.754  12.482 -0.0584 -0.0694  0.1183
11650W        W27784  16.237  14.379  12.559  0.1200  0.0474 -0.1916
11651W        W27785  12.095   1.697   0.940  0.4220 -0.2830 -0.1971
11652W        W27786   8.868  14.440  10.672  0.3119  0.2605  0.0986
11653W        W27787  16.917  15.852   4.185 -0.2065  0.1763 -0.2513
11654W        W27788   8.121  11.822  12.605  0.1145  0.1030 -0.1540
11655W        W27789  17.896   8.010   5.227 -0.3579 -0.1408 -0.0246
11656W        W27790   1.643  11.446  11.882 -0.1115  0.1267  0.0097
11657W        W27791   3.550  12.331   5.178 -0.2981  0.0435 -0.3911
11658W        W27792   4.003   3.306  11.441  0.1567 -0.2441  0.2482
11659W        W27793   1.356  14.984  14.639 -0.2182 -0.1107 -0.2251
11660W        W27794  10.061  11.929  12.759 -0.0751 -0.2133  0.1383
11661W        W27795  12.903  14.055   3.326 -0.2699  0.0826  0.0836
11662W        W27796  10.937   3.488  12.769 -0.2190 -0.2553 -0.1222
11663W        W27797   0.387   2.321  11.777  0.0237 -0.2476 -0.1778
11664W        W27798  11.721   0.114   1.537  0.1292  0.0681 -0.2509
11665W        W27799   7.020   9.495   0.449 -0.0653  0.1195  0.2800
11666W        W27800   5.589   5.588  14.257  0.0436  0.4158 -0.1189
11667W        W27801  10.281  16.940   1.447  0.0426  0.0966 -0.0173
11668W        W27802   4.131   1.622  10.989  0.0157  0.3117  0.0517
11669W        W27803  17.797   4.172   0.237 -0.0766 -0.2375  0.1034
11670W        W27804   3.049  17.837  13.096 -0.0126 -0.2344 -0.0573
11671W        W27805   4.844   2.301   4.413  0.2929 -0.0551  0.2742
11672W        W27806  16.400   4.850   4.341 -0.1187  0.2168  0.3342
11673W        W27807  13.672   7.364   5.296  0.2785 -0.2237 -0.2077
11674W        W27808  13.694  11.918   1.579 -0.1670 -0.1343 -0.0440
11675W        W27809  12.006  16.146   1.256 -0.1969 -0.0512  0.3993
11676W        W27810  14.339  15.858  10.422 -0.0707 -0.0008  0.0852
11677W        W27811   5.620   9.867  14.091  0.2258 -0.0673 -0.0024
11678W        W27812   0.418   8.248  10.403 -0.0400 -0.2193 -0.0495
11679W        W27813  15.682  16.621  14.719  0.2289 -0.0493  0.0991
11680W        W27814   8.614  14.588   0.965 -0.1791 -0.1466 -0.0125
11681W        W27815  17.391   4.976  11.743 -0.1729 -0.2861 -0.0199
11682W        W27816  10.775  10.425  13.298 -0.1636 -0.0439  0.1376
11683W        W27817  18.540   5.337  12.702 -0.2215 -0.0664  0.1006
11684W        W27818   4.849   6.857  13.341  0.1318 -0.4403 -0.2060
11685W        W27819   5.370   1.581  11.735 -0.0976 -0.4699 -0.1144
11686W        W27820  18.909  10.630  12.843 -0.2063 -0.4175 -0.1064
11687W        W27821   1.683   2.592  15.028  0.0570 -0.1215 -0.1204
11688W        W27822   4.091   2.191   1.990 -0.0538 -0.2554  0.1221
11689W        W27823  16.651   6.488   1.172  0.3926 -0.0035 -0.0590
11690W        W27824  10.007   3.466   3.768  0.2323 -0.0522 -0.3421
11691W        W27825   4.535   3.104   3.836  0.1424 -0.3562 -0.3109
11692W        W27826   5.594  17.419  14.257  0.0395  0.1218  0.1947
11693W        W27827  15.042  13.613   4.293 -0.1926  0.0786  0.1422
11694W        W27828   8.134  18.639  11.476  0.3772 -0.1220  0.0041
11695W        W27829   6.753   0.555   1.784 -0.1280 -0.2327  0.1623
11696W        W27830  14.528   9.025   1.680 -0.0125 -0.3134  0.0784
11697W        W27831   0.150   7.727   2.022  0.5509  0.0228 -0.0022
11698W        W27832   1.338   6.181   2.175 -0.0420  0.0039 -0.1421
11699W        W27833   3.247   7.899  10.689 -0.2795  0.1863 -0.1065
11700W        W27834   7.724  13.144  10.556 -0.0788 -0.0166 -0.1264
11701W        W27835   6.203   4.924  14.094 -0.1452 -0.3675  0.0675
11702W        W27836   9.922  10.454   0.640  0.0191  0.0283  0.1321
11703W        W27837  10.637  10.888  10.976  0.0837 -0.0620 -0.0282
11704W        W27838   6.052   0.463  14.340 -0.0341  0.1710 -0.0101
11705W        W27839   9.671  16.701  14.814 -0.2339 -0.2926  0.0445
11706W        W27840  10.353  15.036  14.281  0.3515  0.1356 -0.6372
11707W        W27841   6.317  13.054   1.798  0.1135  0.1092  0.3066
11708W        W27842   3.886  16.268   0.521 -0.0851  0.0449  0.2021
11709W        W27843   7.327  17.207  14.705  0.1341 -0.1626 -0.0562
11710W        W27844   0.987   1.634  13.701  0.0205  0.2916  0.0504
11711W        W27845  15.237   2.339   5.474  0.1318 -0.2365 -0.1004
11712W        W27846  11.013  11.102   2.730 -0.0964 -0.2377 -0.0534
11713W        W27847   4.666  16.102   3.794  0.1214  0.2355  0.0559
11714W        W27848  18.151   3.808   4.194 -0.0463  0.1259  0.3695
11715W        W27849   9.387  15.361  11.505  0.1017 -0.0435  0.0740
11716W        W27850   8.167  10.090  13.519 -0.0182 -0.0862 -0.0386
11717W        W27851   6.403   4.509   0.634 -0.0417  0.1633  0.0408
11718W        W27852   3.920  17.675  14.601  0.0816 -0.0636 -0.1570
11719W        W27853  12.412  12.272  14.033  0.3557  0.0946 -0.4642
11720W        W27854  17.477   8.901   3.212 -0.0042  0.0560  0.2276
11721W        W27855   4.366   6.329   0.710  0.0472  0.2324 -0.1510
11722W        W27856   8.983   2.809  14.948  0.1677 -0.0512 -0.0294
11723W        W27857  11.079   0.834  14.999  0.1447 -0.0377  0.0281
11724W        W27858  10.690   2.635  13.472 -0.0407 -0.1072 -0.0797
11725W        W27859   0.140  18.807  11.610  0.2127 -0.3579 -0.3266
11726W        W27860   0.784   5.606   3.732 -0.0514  0.1437  0.1578
11727W        W27861   8.808   4.689   5.716 -0.1806  0.1842 -0.0622
11728W        W27862   4.352  13.169   0.013 -0.0064 -0.4509 -0.0632
11729W        W27863  12.677  12.848  10.249  0.0248 -0.0558 -0.0686
11730W        W27864   9.288  18.172   2.086  0.2733 -0.1798 -0.1019
11731W        W27865  16.071   9.749  12.360  0.1225 -0.2630 -0.1215
11732W        W27866  17.628  12.733  12.403  0.0949  0.0358 -0.0507
11733W        W27867  13.143  13.508  13.308 -0.0876  0.0037  0.0723
11734W        W27868   1.094  16.487   1.690 -0.1349  0.0586 -0.0148
11735W        W27869   2.152  17.077   4.240  0.2125  0.2586 -0.1925
11736W        W27870   2.145  12.552  11.083 -0.2627  0.1741 -0.0206
11737W        W27871  14.231   1.493   5.622  0.1191  0.2311 -0.1251
11738W        W27872  17.378  15.094  12.823  0.2063 -0.1007 -0.0129
11739W        W27873  16.868   9.996   1.730 -0.0840 -0.0300 -0.1327
11740W        W27874   1.715   5.858   3.671 -0.2968  0.3448 -0.0571
11741W        W27875   5.313   2.576  11.405  0.0864  0.1959 -0.2174
11742W        W27876   5.484  14.651   4.012 -0.1867  0.1931 -0.0818
11743W        W27877   6.636   7.287  13.994 -0.1024  0.0711  0.3043
11744W        W27878   9.257   2.937   3.528  0.0885 -0.0041 -0.2945
11745W        W27879  12.106   3.714  11.288  0.0695  0.3745  0.1670
11746W        W27880  12.611  13.523   4.096  0.0723 -0.1376  0.1639
11747W        W27881   6.154   7.177  13.770  0.0948  0.1184  0.1475
11748W        W27882  13.513   2.072  14.402  0.0321 -0.1213 -0.1739
11749W        W27883   0.940   7.325   3.572  0.1340  0.0986  0.2354
11750W        W27884  13.748  13.967  13.599 -0.3710 -0.0583 -0.1107
11751W        W27885   5.116   1.993  12.621 -0.0075  0.1227 -0.2207
11752W        W27886   5.589   4.647   3.566 -0.0978 -0.1584 -0.1980
11753W        W27887   3.095  11.613   0.304 -0.0882  0.2693  0.3175
11754W        W27888  10.763   7.261   1.360 -0.0675  0.1225 -0.3053
11755W        W27889   2.858  16.031   4.592 -0.1574 -0.1748  0.1039
11756W        W27890  11.368  12.295   2.769  0.0758  0.4070  0.1442
11757W        W27891   1.115   1.342   5.091  0.0892  0.0888 -0.3891
11758W        W27892   9.225  12.062   1.816 -0.0296 -0.0645  0.0584
11759W        W27893  13.782   9.180  10.657 -0.2191 -0.0613  0.2711
11760W        W27894  10.429  18.068   4.302  0.1213 -0.1677 -0.1123
11761W        W27895  18.963   3.690   3.789 -0.2907 -0.1725  0.1335
11762W        W27896   4.788   4.924  12.485  0.0398  0.0680  0.0919
11763W        W27897   0.752  12.457   4.595 -0.1249 -0.1816  0.1640
11764W        W27898  16.731  14.916   1.140  0.1709 -0.0679 -0.0770
11765W        W27899   1.040   5.260   0.132  0.0911 -0.1745 -0.1534
11766W        W27900   0.685   6.173  12.418  0.2087 -0.0406  0.1998
11767W        W27901   6.270  13.583   1.414 -0.1701 -0.0498  0.0916
11768W        W27902   9.149  15.858   1.482  0.1259 -0.1613 -0.3535
11769W        W27903  16.002  12.507   0.665  0.0375 -0.1460  0.2288
11770W        W27904  14.791   5.598   4.602  0.2320  0.0473 -0.1698
11771W        W27905  17.405   9.510  13.250 -0.2846 -0.2929 -0.0052
11772W        W27906  14.454   3.127   3.404  0.1704 -0.0313 -0.0050
11773W        W27907   4.722  13.607   1.648  0.1259  0.4219 -0.0982
11774W        W27908  17.744  14.883   0.041 -0.2127 -0.1766 -0.2978
11775W        W27909  14.638  10.291   5.650  0.2254 -0.0181  0.0901
11776W        W27910   6.176   7.833   4.445  0.1171  0.0369  0.1370
11777W        W27911   1.997   6.652   1.645 -0.0911  0.1585  0.1416
11778W        W27912   9.412  15.116   4.339  0.2620 -0.0906  0.3905
11779W        W27913   9.267   8.027   3.023  0.1901  0.1586  0.0441
11780W        W27914   2.128   0.306   5.061 -0.0748 -0.2954  0.1009
11781W        W27915   7.173   5.696   4.067  0.2204 -0.2951 -0.0629
11782W        W27916  18.446   0.547   4.090 -0.0862 -0.2956  0.1067
11783W        W27917   5.259  11.394  10.569 -0.0938 -0.2296  0.0399
11784W        W27918   1.005   6.440  10.555 -0.0824 -0.3007 -0.0790
11785W        W27919   3.484   7.916  14.860 -0.1252  0.0757  0.4984
11786W        W27920   8.730   6.273   5.428  0.3547  0.2035  0.1079
11787W        W27921   4.796  15.354   1.158  0.1156  0.0379  0.2795
11788W        W27922  11.773  14.057  11.658 -0.1982 -0.4499 -0.3864
11789W        W27923  10.926  13.780   1.842 -0.0443  0.4033  0.4872
11790W        W27924  12.400  18.239   1.971  0.2100 -0.0581  0.1135
11791W        W27925   1.984   5.559   3.342 -0.0253  0.0076  0.0954
11792W        W27926  18.131  12.545  14.569  0.1761 -0.1978 -0.3165
11793W        W27927  13.979  12.521  13.293  0.0791  0.2600 -0.0896
11794W        W27928   6.415   9.432  13.112 -0.2786 -0.0087 -0.0412
11795W        W27929   3.730  13.493   3.395  0.1520  0.1678  0.0490
11796W        W27930  19.087  16.435  14.622 -0.3658  0.0614  0.2147
11797W        W27931   5.593  13.816   3.999 -0.2854  0.4215 -0.0093
11798W        W27932  14.183   9.747  13.526 -0.3540  0.0484 -0.0811
11799W        W27933   3.162  13.176   4.060  0.1489  0.1390 -0.0333
11800W        W27934   1.967  16.810   2.211 -0.0714 -0.0022 -0.1774
11801W        W27935   1.814  14.135  12.295  0.2866 -0.4198  0.1565
11802W        W27936   5.018  14.115   1.423  0.0176 -0.2522  0.0612
11803W        W27937  15.210   2.861  13.750  0.0903  0.0261  0.2022
11804W        W27938   8.542  13.979   2.487  0.1037 -0.2598 -0.1170
11805W        W27939   0.109   8.053  14.673  0.0487  0.2767 -0.1745
11806W        W27940   0.512  17.444  11.713 -0.1990 -0.0211 -0.0757
11807W        W27941  11.817   4.333   4.133 -0.2309 -0.1012 -0.0147
11808W        W27942   6.313   8.559  13.477  0.0112  0.1224  0.4807
11809W        W27943   8.375   8.426  14.594 -0.0438  0.0152  0.1052
11810W        W27944  10.045   0.702   0.812  0.2454  0.0656  0.1829
11811W        W27945  13.498   0.251  11.906  0.0784  0.0599 -0.0331
11812W        W27946  18.699  17.373   0.364  0.1773 -0.1396  0.1679
11813W        W27947  10.216   9.244  13.714 -0.0250  0.2306  0.0562
11814W        W27948   4.858  15.137   4.591 -0.4366 -0.1176  0.1822
11815W        W27949   0.521  13.799   4.824  0.0064  0.0896 -0.1326
11816W        W27950  16.139   1.310   5.632 -0.0037  0.0836  0.1515
11817W        W27951   3.504   5.247   3.895  0.1061  0.2879 -0.3086
11818W        W27952  13.640   7.120   4.017 -0.0684  0.3320  0.1413
11819W        W27953  15.330   7.343  14.405 -0.1682 -0.0942  0.1346
11820W        W27954  14.725   2.396   4.239 -0.1390 -0.0670 -0.1831
11821W        W27955  14.757   6.279  13.680 -0.3519 -0.1739 -0.0410
11822W        W27956   8.430   9.706   0.774 -0.1232  0.0353  0.1174
11823W        W27957  16.167   6.373  12.022  0.2727  0.0290  0.0639
11824W        W27958  18.876  13.273  12.497  0.2346 -0.2888 -0.0132
11825W        W27959   9.668   4.159  12.117 -0.0132  0.0317 -0.1544
11826W        W27960   7.413  11.784  13.350 -0.0362  0.2313  0.0676
11827W        W27961   4.812   8.426  14.272 -0.2815  0.4002 -0.1156
11828W        W27962   7.949  11.252  10.925 -0.0691 -0.1251 -0.2628
11829W        W27963   8.167  13.690   9.866  0.0104 -0.4054 -0.3043
11830W        W27964   4.783  12.698  12.807  0.1739  0.1380  0.1163
11831W        W27965   0.589  18.944   0.743  0.2915 -0.1113 -0.2213
11832W        W27966   6.551  14.525  10.323  0.0405  0.0915 -0.0943
11833W        W27967   3.488  17.717  14.381  0.1595 -0.0601  0.0181
11834W        W27968   8.504  12.416   2.369 -0.0806  0.4908 -0.3231
11835W        W27969  15.519  18.230   1.957 -0.1604  0.0377  0.2310
11836W        W27970  15.956  14.105   0.008 -0.2611 -0.2769  0.0290
11837W        W27971   6.825   5.546  10.650  0.1000 -0.1645  0.0920
11838W        W27972   6.563   3.050  11.004  0.1051 -0.0516 -0.3243
11839W        W27973  14.627   3.038  10.542 -0.0101 -0.2189  0.0049
11840W        W27974   2.937   9.679  14.435  0.1641 -0.0894 -0.2429
11841W        W27975   5.424  11.941  12.129 -0.1365 -0.0204 -0.1668
11842W        W27976   1.829   7.098   3.901 -0.2398 -0.0340  0.1220
11843W        W27977   6.539   4.548   3.473  0.1090  0.2719  0.0774
11844W        W27978   8.857  15.247  12.590  0.3015 -0.1689 -0.0656
11845W        W27979   8.990   2.975   4.785 -0.0612 -0.0583  0.1284
11846W        W27980   5.788   1.310  11.614 -0.3229 -0.0761 -0.0806
11847W        W27981   2.202   6.733  15.094 -0.0089 -0.4537 -0.0280
11848W        W27982  11.074   1.090  12.996  0.2893 -0.0325  0.0420
11849W        W27983   7.739   0.078  14.849  0.3322  0.1616  0.1007
11850W        W27984  10.500  10.745   1.127 -0.0203 -0.0562  0.0741
11851W        W27985  19.092  18.210  13.374  0.1192  0.4275  0.0965
11852W        W27986   4.462   6.015   0.062 -0.0264 -0.1589 -0.1552
11853W        W27987   3.199   0.349  14.581  0.3486 -0.2103  0.3832
11854W        W27988  17.560   2.375   2.965  0.0550 -0.4042 -0.1037
11855W        W27989   7.211   8.184  11.630  0.2007  0.1175  0.1027
11856W        W27990   6.271  12.060  11.220 -0.2585 -0.0030  0.1351
11857W        W27991   5.441  12.447   0.211  0.1745 -0.2656  0.1057
11858W        W27992  11.166  17.795   0.841 -0.1111 -0.2753  0.1519
11859W        W27993   9.419   6.833  14.608 -0.0080 -0.1849  0.1219
11860W        W27994   6.235   4.700   2.250  0.2628  0.3252  0.1150
11861W        W27995   4.851   4.886   4.339  0.1109  0.4688 -0.5893
11862W        W27996   1.858  14.579   5.141 -0.0007  0.0843 -0.3079
11863W        W27997  12.327   9.280  15.009 -0.0231 -0.0056 -0.1177
11864W        W27998   8.862   6.923   1.253 -0.0379 -0.0938 -0.0276
11865W        W27999   3.622   9.274   4.028  0.0264 -0.2211  0.1639
11866W        W28000   1.562   4.752  14.933 -0.0537  0.1167 -0.0414
11867W        W28001   8.339   8.028   0.944  0.0105  0.1117  0.3612
11868W        W28002   7.537   4.206  12.952 -0.1909  0.0326  0.3947
11869W        W28003   6.143   0.423  13.873  0.1615  0.0615 -0.0446
11870W        W28004  10.836  10.141  14.502 -0.3101 -0.1353 -0.0530
11871W        W28005   6.272  10.516   2.292  0.0588  0.2177  0.2892
11872W        W28006  10.716  12.147   2.801  0.0415  0.2685  0.1222
11873W        W28007   4.610  17.675   1.521 -0.2014  0.2623  0.0916
11874W        W28008  18.157   1.549  12.755  0.0924 -0.2416 -0.0676
11875W        W28009  14.032  16.652  13.337  0.1904  0.0835  0.1947
11876W        W28010  16.362   5.136  12.816 -0.0376  0.1026  0.2128
11877W        W28011  11.759  16.703   2.597  0.2115 -0.2407  0.3108
11878W        W28012   4.729   0.835  11.564 -0.1730  0.0625 -0.0370
11879W        W28013  14.104  11.062   3.506 -0.1116  0.0448  0.2271
11880W        W28014   0.621   1.929   1.852 -0.2845  0.0634 -0.0549
11881W        W28015   7.664  14.587   1.477 -0.1783 -0.1926  0.2366
11882W        W28016  13.164   5.917  11.864  0.2268 -0.1020 -0.3590
11883W        W28017   3.054   6.246  14.868  0.1197 -0.2568 -0.0244
11884W        W28018  14.063  15.267  15.173  0.4082  0.1606  0.0479
11885W        W28019  11.451   5.565  12.371 -0.0442  0.0169 -0.0700
11886W        W28020   5.865  13.277  13.291 -0.1197  0.1700  0.0035
11887W        W28021   0.592   3.336   3.463  0.1576 -0.2810 -0.0959
11888W        W28022   4.107  15.266  13.199 -0.0440 -0.1986 -0.3887
11889W        W28023   4.170  16.342  11.772  0.1385 -0.2796 -0.0267
11890W        W28024  15.839   1.636  13.949  0.2325 -0.1113  0.0471
11891W        W28025  10.906  15.538   9.549 -0.0743 -0.0079 -0.0888
11892W        W28026   5.020   2.742   0.821  0.3024 -0.0714  0.2259
11893W        W28027   8.110  14.486   0.173 -0.2718 -0.2614  0.1047
11894W        W28028   2.264   5.429   0.764 -0.1775  0.2200  0.3082
11895W        W28029  11.858  13.246   1.793 -0.1186 -0.0835 -0.1846
11896W        W28030   4.405  15.788   2.746  0.0117  0.2089 -0.0718
11897W        W28031   5.659  15.590   0.389 -0.1514 -0.1187  0.1373
11898W        W28032   4.016  17.478   4.859  0.1359  0.1362  0.1224
11899W        W28033  11.636  14.072  13.936  0.1941 -0.1277  0.1148
11900W        W28034   0.594  14.606  12.203 -0.1762  0.2271  0.2632
11901W        W28035   4.953   7.114   0.552  0.5286 -0.1026  0.3310
11902W        W28036   2.888   4.346   1.459 -0.1135  0.0220 -0.2146
11903W        W28037   7.402  14.756   1.976  0.3035 -0.0237 -0.1181
11904W        W28038   6.487  17.498  10.947  0.1008 -0.0441 -0.1870
11905W        W28039  11.776   6.211  11.932  0.1008  0.0508  0.0085
11906W        W28040   1.735  18.239  14.251 -0.0955  0.0843  0.0605
11907W        W28041   5.011  16.255  11.875  0.2990  0.2375 -0.2673
11908W        W28042  10.748  13.452   3.298  0.0454  0.1399  0.0007
11909W        W28043  16.025  17.981  10.316 -0.3841 -0.1669  0.0129
11910W        W28044   8.941  18.408   2.898 -0.1721  0.1446  0.3661
11911W        W28045  13.092  15.154  14.433 -0.2162  0.0367 -0.0852
11912W        W28046   2.344  18.435   3.523 -0.0710  0.1255  0.0266
11913W        W28047  17.399   8.179  10.110  0.2871  0.0757  0.1980
11914W        W28048   0.600  13.594  13.901  0.0287 -0.2643 -0.0217
11915W        W28049   6.675   9.201   1.443  0.2726  0.0005  0.0846
11916W        W28050  10.744   1.227  14.855  0.2497 -0.1102  0.0072
11917W        W28051  17.778  18.683   2.512  0.0426 -0.2926 -0.2371
11918W        W28052  16.284  17.177   2.183  0.3199 -0.2186 -0.0284
11919W        W28053   4.060   1.972  14.222  0.2076 -0.1717  0.1797
11920W        W28054   5.660  10.367   4.260  0.1999  0.1644 -0.0012
11921W        W28055  15.367   6.255   2.790  0.1012 -0.2589  0.1150
11922W        W28056   2.335   2.635  11.683 -0.2388  0.0542 -0.2060
11923W        W28057  13.333  11.767   2.390  0.0041  0.1109 -0.1108
11924W        W28058   8.903  12.652   2.732 -0.3160 -0.2318  0.0230
11925W        W28059  13.590  16.071   0.288  0.1710 -0.3294  0.1213
11926W        W28060  12.426  13.971   3.890  0.1798 -0.0469 -0.0028
11927W        W28061   4.607  11.275   1.651  0.0789  0.2834 -0.0988
11928W        W28062   1.299  16.217  12.531  0.2850  0.0399  0.4184
11929W        W28063   4.805   5.104   0.941 -0.1306 -0.2048 -0.2097
11930W        W28064  12.802  13.480   0.710 -0.0300  0.1103  0.2181
11931W        W28065  11.899   5.752  14.619 -0.1563 -0.3240  0.0717
11932W        W28066   8.393  10.116  14.153  0.1224  0.0263  0.1583
11933W        W28067  17.887   0.967   1.991 -0.1741  0.2697  0.0047
11934W        W28068  13.615  17.486  14.955 -0.2084  0.0096 -0.2099
11935W        W28069   3.262  10.059  10.838 -0.0769 -0.1928  0.1060
11936W        W28070  12.906  12.347   1.256  0.1384 -0.0441  0.2302
11937W        W28071   0.651  11.977  15.069  0.2940 -0.1270 -0.1188
11938W        W28072   7.762   6.501   3.548 -0.1460 -0.0660 -0.1889
11939W        W28073  15.660   1.963   2.487 -0.1823 -0.1687 -0.0536
11940W        W28074   0.750  12.513   3.031  0.0291 -0.0931 -0.1124
11941W        W28075   4.777   9.656  14.120  0.0192  0.0935  0.2225
11942W        W28076   5.612   1.874  14.911  0.1541 -0.1728 -0.0013
11943W        W28077  13.049   9.276   0.069  0.1738  0.0125 -0.0028
11944W        W28078   7.220   2.340   2.415 -0.3094 -0.1576  0.0167
11945W        W28079   7.369  15.670  11.470  0.2629  0.0982  0.0152
11946W        W28080  19.075   5.407   1.781 -0.1058 -0.2345 -0.0701
11947W        W28081   8.265  19.091  11.588  0.0028  0.2858 -0.0558
11948W        W28082  13.151   4.732   5.817  0.7246  0.1739  0.0736
11949W        W28083   5.815   8.903  12.410 -0.1701 -0.2099 -0.2144
11950W        W28084   5.774  14.090   4.759  0.0656 -0.1464  0.0424
11951W        W28085   7.107   6.863   1.317  0.1539  0.2185  0.1061
11952W        W28086  17.343   0.317   1.650  0.0248  0.2765  0.6266
11953W        W28087  13.324   7.718   4.997  0.0324 -0.0467  0.1557
11954W        W28088  11.128  12.182   0.604  0.2933 -0.2573 -0.1994
11955W        W28089   0.566  10.749   0.434  0.1260  0.2932 -0.2886
11956W        W28090   4.991  18.454  14.515  0.2786 -0.2315  0.0177
11957W        W28091   3.174   8.458   1.580  0.0953 -0.1246 -0.0180
11958W        W28092  15.543  15.764  13.552 -0.2244  0.0623 -0.0845
11959W        W28093  11.305  12.070   1.043  0.2517  0.0839 -0.1805
11960W        W28094  11.675  15.759   3.968  0.3256  0.0259 -0.1713
11961W        W28095  17.573  18.624   0.595 -0.1448 -0.0251  0.0514
11962W        W28096   5.782   3.360   0.518  0.2418  0.1529 -0.3480
11963W        W28097   6.692   0.397  15.123  0.0895 -0.0500 -0.1034
11964W        W28098  10.773   0.098  14.404  0.0154 -0.0897  0.2292
11965W        W28099   4.320  13.283   4.042  0.1185  0.0075 -0.2638
11966W        W28100   9.580  18.918  14.467 -0.0966 -0.0063 -0.1979
11967W        W28101  14.866  11.637   0.720  0.0028  0.1996  0.3794
11968W        W28102   1.441   6.417   0.462  0.2432  0.4585 -0.0138
11969W        W28103   6.451   0.702   3.771 -0.1145  0.0658  0.1479
11970W        W28104   8.142  17.209   1.332 -0.1039 -0.0534 -0.2913
11971W        W28105  11.903   9.430  14.621 -0.1091 -0.1605  0.0788
11972W        W28106  16.199   1.874  10.527  0.1101 -0.3310 -0.2830
11973W        W28107  16.664  10.040   3.811 -0.1786  0.1847  0.0067
11974W        W28108   9.427   7.719   4.268  0.0345 -0.3178  0.0278
11975W        W28109   7.331  11.562   2.271  0.1836 -0.4562  0.1553
11976W        W28110  10.613  15.461  14.538  0.0631  0.3405 -0.0333
11977W        W28111  16.077   4.409  11.106  0.2861  0.2529 -0.0401
11978W        W28112   8.578   0.889  10.339  0.2386 -0.1544  0.0449
11979W        W28113   5.378  14.614   1.238  0.1943  0.1298  0.0074
11980W        W28114   4.316  13.575  12.643  0.3986  0.2088  0.0810
11981W        W28115  16.747   4.071   4.262  0.0866  0.0854 -0.0970
11982W        W28116  18.437  16.011   1.067 -0.0925 -0.2686 -0.2065
11983W        W28117  11.005   9.865   1.776 -0.2684 -0.1986 -0.0213
11984W        W28118   4.515  18.062   2.708 -0.0124 -0.2128 -0.0070
11985W        W28119  12.737  16.619  11.065 -0.0378 -0.1529  0.2990
11986W        W28120   1.211  12.282   3.823 -0.2773  0.1512  0.0330
11987W        W28121  16.990   5.971   3.424 -0.1865 -0.2068  0.1868
11988W        W28122  14.798   6.473  10.971  0.1060 -0.0524  0.0040
11989W        W28123  12.096  17.216  14.311  0.0192  0.0932  0.2345
11990W        W28124   2.581  12.036  14.733  0.0753 -0.1508 -0.2415
11991W        W28125  11.030   3.928   4.458  0.2157  0.0850  0.0844
11992W        W28126   2.808  12.028  15.199 -0.0095  0.0981 -0.2743
11993W        W28127  16.054   1.615   0.804 -0.0238  0.0389 -0.3546
11994W        W28128  13.421   3.108   2.982 -0.0430  0.0051  0.3791
11995W        W28129  10.486  18.109   1.433 -0.2616  0.4046 -0.1959
11996W        W28130  16.676   8.327  11.595  0.2269 -0.1454 -0.2512
11997W        W28131  10.596  17.948  14.500  0.0540 -0.2553 -0.3303
11998W        W28132   1.127   8.532  12.917  0.3707  0.1134 -0.0008
11999W        W28133  12.580  13.881   2.921  0.0149 -0.1442  0.0291
12000W        W28134  15.471  15.137  13.574 -0.0046  0.2353  0.0129
12001W        W28135   3.183   8.402  12.947 -0.2008 -0.0990 -0.3925
12002W        W28136   5.424  17.714  12.994 -0.1151  0.0631  0.1878
12003W        W28137   8.766  16.081  10.960  0.3524 -0.0089  0.4650
12004W        W28138  16.184   0.071   0.944 -0.1947  0.1526  0.1212
12005W        W28139  15.796  16.995   5.861 -0.1575 -0.0957  0.2153
12006W        W28140  14.375   6.234  12.948 -0.1961 -0.0913 -0.1838
12007W        W28141   7.056  10.006  14.372 -0.0164  0.2887 -0.2034
12008W        W28142  18.462   2.353   3.361  0.2277  0.2321  0.0446
12009W        W28143  18.348   7.732   1.843  0.1451 -0.0380 -0.0392
12010W        W28144  11.473  13.273   0.752 -0.0473 -0.0321 -0.1690
12011W        W28145  16.274   5.376   0.771  0.0327  0.0269 -0.2255
12012W        W28146   7.652  17.355  13.531 -0.1766 -0.2715  0.0845
12013W        W28147   0.375   9.115  12.384  0.0943  0.1025  0.0391
12014W        W28148  14.610   1.286  11.480 -0.0872 -0.2225 -0.3738
12015W        W28149  15.901   6.786  11.389 -0.2103 -0.2567 -0.0257
12016W        W28150   0.920   8.145  13.275 -0.1052  0.0270 -0.0753
12017W        W28151   4.995  14.989   3.264  0.1490  0.0827  0.0231
12018W        W28152   8.714   2.947  12.475 -0.2034  0.1430 -0.0856
12019W        W28153   6.090   2.634  15.154 -0.1526  0.2663 -0.2004
12020W        W28154   9.989  12.371  13.535  0.0020  0.3050 -0.1511
12021W        W28155   4.438  10.206  12.519 -0.3552 -0.2000  0.2653
12022W        W28156  18.497  16.258  12.525  0.0062  0.3080  0.0678
12023W        W28157   1.334   1.593  12.022  0.3883  0.5528 -0.4792
12024W        W28158  17.642  12.521  12.961 -0.1181  0.1287  0.0430
12025W        W28159  12.412   6.424   0.956 -0.4403  0.3465  0.1139
12026W        W28160   5.304   7.021   2.441  0.1230 -0.1616  0.0383
12027W        W28161   5.751   3.096  12.051  0.0023 -0.1664 -0.2313
12028W        W28162   8.317   3.281  14.670 -0.0893  0.3398 -0.1034
12029W        W28163   1.455   4.869   3.951 -0.2723 -0.0302 -0.0180
12030W        W28164   2.815  11.501   4.110  0.0259 -0.2676  0.1109
12031W        W28165  14.516  18.847   0.116 -0.0576  0.3337 -0.0663
12032W        W28166   4.487  10.556  14.971 -0.0207  0.2697  0.3848
12033W        W28167   1.839   0.580  11.090 -0.0824 -0.0979 -0.1144
12034W        W28168   7.656   0.359   1.424 -0.2774 -0.5090 -0.0756
12035W        W28169   7.597   5.519  11.661  0.0321 -0.1019  0.1520
12036W        W28170  13.587  18.318  12.787  0.0171 -0.6746 -0.0313
12037W        W28171  10.442   9.861  12.512 -0.1326  0.2157 -0.0631
12038W        W28172   0.854  16.390   2.640  0.0696  0.0171  0.0530
12039W        W28173   3.040  10.583  14.992 -0.0772 -0.0084 -0.1243
12040W        W28174  13.066  13.424  14.506  0.0527 -0.1415 -0.0516
12041W        W28175   0.932   5.609  12.463  0.0467 -0.0329  0.3438
12042W        W28176   5.614   5.663   0.026 -0.1874  0.2089  0.1095
12043W        W28177   8.687  12.104  13.250  0.0215  0.1088  0.1321
12044W        W28178   2.390   5.561  10.179  0.3872  0.1328  0.0490
12045W        W28179  15.730   0.387   3.624  0.1016 -0.0272 -0.2681
12046W        W28180   6.824   0.300  14.613  0.2258  0.1301 -0.1144
12047W        W28181   1.308  16.536  12.908  0.1323 -0.0753 -0.0353
12048W        W28182   9.326  12.877  13.600 -0.0031 -0.1166 -0.0235
12049W        W28183   8.864   4.131   3.964  0.1947  0.1047 -0.1709
12050W        W28184  13.569   0.689   1.550  0.3000 -0.1232  0.2245
12051W        W28185   9.793  14.374  13.661  0.3309  0.2079  0.0044
12052W        W28186   3.558  13.920  13.279  0.0913  0.1607 -0.0922
12053W        W28187   6.776  10.615  11.327  0.0763  0.0622  0.1489
12054W        W28188  18.576  18.706   4.360 -0.0106  0.2225  0.0230
12055W        W28189   1.892   8.114  13.067 -0.3535  0.1393  0.1345
12056W        W28190   4.813  13.418  13.617  0.0181 -0.3106  0.2227
12057W        W28191  10.776  13.879  11.607  0.0770 -0.0234  0.1318
12058W        W28192   6.561   3.600  11.916 -0.0149 -0.2806 -0.1060
12059W        W28193  11.243  15.720   2.926 -0.3950  0.0567 -0.0720
12060W        W28194  15.176  13.095  13.065 -0.2136 -0.0765 -0.2760
12061W        W28195  10.561   2.138   4.493 -0.2072  0.0922 -0.2584
12062W        W28196  16.019   8.017  12.326  0.0263  0.0736 -0.3567
12063W        W28197   2.586  17.324   2.080  0.0687  0.1745 -0.2134
12064W        W28198   7.205   9.271   4.267 -0.3936 -0.0359  0.3538
12065W        W28199  11.189  15.123   2.789  0.0036  0.1312 -0.0979
12066W        W28200  18.450   2.373  12.361  0.1632 -0.1006  0.2518
12067W        W28201   8.348   4.793  12.540 -0.1147 -0.1387 -0.0873
12068W        W28202   5.671   5.683   5.548  0.1614 -0.1323  0.2442
12069W        W28203   8.422   5.921   0.597  0.2745  0.2396  0.5066
12070W        W28204  15.963   0.826  11.374  0.2433 -0.0714  0.1602
12071W        W28205   5.272  15.389   0.685 -0.1476  0.0784  0.0653
12072W        W28206  18.681   3.167   2.935  0.2874 -0.0172  0.1239
12073W        W28207   2.352   4.541   5.624 -0.1410  0.2864  0.0900
12074W        W28208   9.872   3.244   0.131 -0.1225 -0.0332  0.1573
12075W        W28209   5.539   6.822   0.353  0.2032 -0.0608 -0.2014
12076W        W28210  18.909  14.751   2.866 -0.0695  0.0737 -0.0637
12077W        W28211  15.564   2.427   2.211 -0.2445 -0.2297  0.0936
12078W        W28212  12.101   8.210   3.886 -0.0555  0.2550 -0.1476
12079W        W28213  17.271  14.729   0.730 -0.1622 -0.2582 -0.1671
12080W        W28214   3.265   9.442   3.224  0.1171  0.1668  0.2267
12081W        W28215   8.907  12.861   2.253  0.1272  0.1703 -0.1437
12082W        W28216  17.304  13.624  14.407 -0.1662 -0.0371  0.0893
12083W        W28217   6.419  11.387  14.218  0.3061  0.1473 -0.2066
12084W        W28218   6.567   3.629   1.448 -0.2615  0.0788 -0.0454
12085W        W28219   2.158  17.166  15.056 -0.1116  0.1107 -0.2615
12086W        W28220  16.711   2.810   2.034  0.5347 -0.0280 -0.0343
12087W        W28221  17.206  12.633   3.912 -0.0516  0.4452  0.1056
12088W        W28222   9.502  15.801   1.781 -0.0743 -0.2432 -0.1087
12089W        W28223   2.777   0.128   0.650  0.2475 -0.2109  0.1478
12090W        W28224   6.950   6.654  13.680 -0.3711  0.3233 -0.1867
12091W        W28225   7.260   4.026  11.098 -0.1352  0.2650  0.1442
12092W        W28226   0.928   5.782  10.565  0.2331 -0.0049  0.0415
12093W        W28227  17.795   5.132  12.179 -0.0325  0.1071 -0.0577
12094W        W28228  13.908  10.083   1.016  0.3152  0.0168 -0.1685
12095W        W28229   0.170  16.508   0.782  0.2315 -0.0941 -0.0748
12096W        W28230   6.234   1.689   3.836 -0.0541 -0.1781  0.0252
12097W        W28231   3.616   2.437  10.175 -0.1034 -0.0304  0.2373
12098W        W28232   7.739  11.292   2.524 -0.1381 -0.1118 -0.0168
12099W        W28233  14.808  10.436  11.576  0.0813  0.1634  0.5326
12100W        W28234   0.018  10.464   3.101  0.2147  0.4774  0.3162
12101W        W28235   9.250  12.634  10.875 -0.2012  0.1665 -0.1880
12102W        W28236   9.887   4.027   2.067  0.0840 -0.1010  0.3365
12103W        W28237  13.752   2.561  14.903 -0.0462 -0.3417  0.3656
12104W        W28238   8.204  12.088   5.082 -0.0001  0.1101  0.0466
12105W        W28239  17.458   7.992   0.894  0.4077 -0.0699  0.0154
12106W        W28240   3.983  17.427  15.064  0.0071 -0.1565 -0.3432
12107W        W28241  10.060   0.298   3.039 -0.0421 -0.0555  0.0006
12108W        W28242   5.359  13.299   0.085 -0.0377  0.2178  0.0311
12109W        W28243  15.753   6.675  10.083  0.0587  0.0900 -0.0074
12110W        W28244   5.120  11.361  14.695  0.2142  0.0551 -0.3542
12111W        W28245   0.934  17.586  14.422  0.1200 -0.0335  0.0557
12112W        W28246  10.825   1.727   2.240 -0.1955  0.0493  0.4255
12113W        W28247   1.145   1.431   2.034 -0.4149  0.0982 -0.2119
12114W        W28248  18.154   7.126   4.346  0.0173 -0.1218 -0.1048
12115W        W28249  16.293  16.728   1.555  0.0763 -0.1357  0.1701
12116W        W28250  15.890  11.100  12.224  0.0887 -0.2535 -0.0104
12117W        W28251   7.256  10.116   3.982 -0.1165 -0.1391  0.0963
12118W        W28252   0.086   4.654  10.655 -0.2448  0.0773 -0.2034
12119W        W28253   7.774   7.929  11.351 -0.1078  0.4386 -0.2553
12120W        W28254  13.188   5.897   1.818 -0.1275 -0.4637 -0.0239
12121W        W28255   7.159   0.326  14.106  0.1789  0.0383  0.2966
12122W        W28256   0.898   1.369  14.177 -0.0271  0.4388 -0.0160
12123W        W28257  13.376  12.609  11.439 -0.0519  0.1063 -0.4261
12124W        W28258   9.010   8.768  12.356  0.1842  0.3924  0.0500
12125W        W28259  12.340  17.923   3.755 -0.1000 -0.1766 -0.0708
12126W        W28260   2.409   1.433  12.580 -0.0854 -0.0566  0.1297
12127W        W28261  11.351  12.589   2.335 -0.1622  0.0943  0.0548
12128W        W28262   4.508  10.215   2.951  0.0427 -0.1445 -0.0256
12129W        W28263   6.644  12.990  11.424  0.0721 -0.1976  0.1315
12130W        W28264  10.212   8.995   3.635  0.0413  0.0001 -0.0180
12131W        W28265   5.921   3.546  11.765 -0.1011  0.2002  0.0598
12132W        W28266  15.900  16.585   1.230 -0.1007  0.2976  0.1027
12133W        W28267   7.507   1.940   2.695  0.0952  0.2367  0.0836
12134W        W28268  14.783   0.546  14.345 -0.0143 -0.1693  0.0027
12135W        W28269  10.029  14.400   0.357  0.0894  0.2719  0.0454
12136W        W28270   5.346  13.953   2.937 -0.0944 -0.0056 -0.0890
12137W        W28271   3.546   2.655  14.265  0.2001 -0.1004  0.1411
12138W        W28272   7.762   5.515  13.793  0.0111 -0.2399  0.0290
12139W        W28273  16.942   6.209   0.548  0.1752  0.2240  0.0313
12140W        W28274   0.283   7.412  11.883  0.1977  0.3939  0.0293
12141W        W28275  13.266  18.880   3.536  0.1550  0.0450  0.0163
12142W        W28276   5.239  14.310  10.962 -0.4702  0.1701  0.1379
12143W        W28277  10.742  17.113  13.934 -0.3621  0.0894 -0.2084
12144W        W28278   2.549   9.318   2.224  0.0807  0.2345 -0.0982
12145W        W28279  11.500  14.115   3.846  0.0948  0.3684 -0.0304
12146W        W28280  18.430   8.817   4.821 -0.1648 -0.1102  0.0722
12147W        W28281   3.656   0.743  10.353  0.1188  0.2927  0.0001
12148W        W28282  10.790   6.660  14.723 -0.4403  0.2056  0.0826
12149W        W28283   3.395  12.681   4.576 -0.1497  0.0201 -0.0567
12150W        W28284  10.502  16.826   4.249  0.2789 -0.0526 -0.2366
12151W        W28285  17.597   4.780   2.686 -0.0123  0.2424 -0.0822
12152W        W28286   3.937  12.614  13.442 -0.1131  0.2765 -0.0434
12153W        W28287  17.814   7.015   2.193 -0.4533  0.0183  0.2961
12154W        W28288   7.035   2.218  15.203 -0.3222  0.3538  0.1222
12155W        W28289   3.533  16.553   0.329 -0.1463  0.0442 -0.0382
12156W        W28290  18.667   5.172   0.910  0.0472  0.0969  0.0272
12157W        W28291   3.299   8.169   1.953 -0.3175 -0.2439  0.0030
12158W        W28292   6.631  10.614   3.004 -0.0835 -0.1080 -0.1097
12159W        W28293   8.639  10.996   1.938 -0.0517 -0.1714  0.3119
12160W        W28294   1.883   4.365  12.932 -0.0404  0.5571 -0.0261
12161W        W28295   0.834   1.098   1.343 -0.1433 -0.1905  0.0554
12162W        W28296  17.932  12.629  13.779  0.3088 -0.1034 -0.0350
12163W        W28297   5.889  15.136  14.916 -0.0665  0.0275  0.0544
12164W        W28298  17.732   4.770   0.145  0.3189 -0.0722  0.2513
12165W        W28299  18.781  10.563  10.438 -0.1830 -0.3952 -0.0805
12166W        W28300   1.132  11.624   0.023  0.5191 -0.1110  0.1415
12167W        W28301  16.970   5.650  10.574 -0.2110  0.1185 -0.0604
12168W        W28302   0.241   9.505   3.566  0.2526 -0.0198 -0.0695
12169W        W28303  17.096  13.422   5.129  0.0004 -0.0695 -0.1311
12170W        W28304   0.904  10.565  14.592 -0.1218 -0.2040  0.0628
12171W        W28305   6.334  10.761  12.829 -0.1288 -0.2294 -0.0490
12172W        W28306   4.154   8.685   4.671  0.0837 -0.2388  0.1563
12173W        W28307  16.625   6.056   3.087  0.2097 -0.2441 -0.0910
12174W        W28308  14.090  14.182  13.286 -0.0339  0.0000  0.0431
12175W        W28309  14.768   8.600  12.663 -0.2740 -0.0426 -0.1173
12176W        W28310  14.966  17.429  10.200 -0.1852 -0.0645  0.2406
12177W        W28311   0.402  11.543   1.979  0.0857  0.2369 -0.0252
12178W        W28312   2.693   1.035   1.981 -0.0509  0.0183 -0.0505
12179W        W28313  18.162   0.841   2.922  0.1263 -0.1637 -0.0099
12180W        W28314   3.546  11.778   1.973  0.1632  0.2359  0.2096
12181W        W28315   5.587   7.944   4.518  0.1021 -0.0497 -0.0216
12182W        W28316   2.873   4.765  14.108  0.1728 -0.2976 -0.2673
12183W        W28317   3.729  14.016  12.792  0.0952  0.1732 -0.2458
12184W        W28318   8.953   4.468   3.570 -0.2042  0.2754  0.0349
12185W        W28319   3.301   2.228  11.582  0.1045  0.2176 -0.0442
12186W        W28320   2.556   5.780   4.032  0.1253  0.2167 -0.1426
12187W        W28321   8.716   8.720  11.589 -0.0407 -0.4717  0.1084
12188W        W28322   7.062  11.461   3.189 -0.0781  0.1541  0.1279
12189W        W28323  12.896   3.373   3.284 -0.1015 -0.0415  0.1506
12190W        W28324  16.339   8.615  11.824 -0.3444 -0.1651 -0.2476
12191W        W28325   7.997   1.954   1.461 -0.1519  0.2548  0.0951
12192W        W28326   0.419   9.968  10.476  0.0766  0.0226 -0.0505
12193W        W28327   1.747   8.688  14.668  0.0137 -0.0267 -0.0812
12194W        W28328  11.666   8.642  13.749 -0.0265 -0.1808  0.0581
12195W        W28329   5.205   3.889  14.713 -0.1568 -0.1138  0.2456
12196W        W28330  17.369  11.181  14.099 -0.0941 -0.2998 -0.1675
12197W        W28331   1.352   1.001   1.862 -0.0549  0.0334  0.1187
12198W        W28332   1.181  15.676   3.825 -0.0131  0.1147 -0.1848
12199W        W28333  13.933  11.508  11.143 -0.0658 -0.0366 -0.1220
12200W        W28334   7.551  13.413  11.492 -0.3099 -0.0264  0.2517
12201W        W28335   9.724  14.123   0.899 -0.1648  0.0416 -0.0948
12202W        W28336  15.497  11.663   3.102 -0.1527 -0.0688 -0.0332
12203W        W28337  15.860   6.231   1.888 -0.0536 -0.1542 -0.0334
12204W        W28338   1.737  17.864  13.488 -0.1730 -0.0649  0.0620
12205W        W28339   8.512   2.743   2.629  0.3545 -0.0149  0.4651
12206W        W28340  16.744   7.513   0.025  0.0840  0.0973 -0.0441
12207W        W28341  17.139   5.457   3.457  0.4267  0.1550  0.1769
12208W        W28342   2.610   1.732  14.238 -0.0063  0.2144 -0.2972
12209W        W28343   7.340   8.479   1.910  0.0819 -0.0596 -0.1754
12210W        W28344  11.478   3.879   5.658  0.0100 -0.4144 -0.0497
12211W        W28345   6.655  15.372   1.856 -0.3415 -0.0148 -0.0792
12212W        W28346  10.295   1.398  11.978  0.0472 -0.1052 -0.1194
12213W        W28347   8.879  18.829   4.251  0.4201 -0.0511  0.2053
12214W        W28348  12.645   1.484   0.740  0.0570  0.0426  0.1535
12215W        W28349   8.572  14.188   4.764  0.3648 -0.1807 -0.3036
12216W        W28350  14.885  13.519  13.435 -0.0099  0.3493 -0.3829
12217W        W28351   0.094   6.589   0.281 -0.1060 -0.4314 -0.1333
12218W        W28352   7.550  18.124   4.104  0.2731 -0.0900  0.0680
12219W        W28353   1.735  13.348   3.408 -0.1118 -0.3729  0.1115
12220W        W28354  19.134   9.741  10.692  0.0732 -0.1162  0.2020
12221W        W28355  13.526   8.388   1.531  0.0073  0.1592  0.1090
12222W        W28356   4.533   1.178   0.446 -0.2022 -0.2009 -0.1572
12223W        W28357  10.221  13.486  13.776  0.0172 -0.0188  0.2755
12224W        W28358   3.249  18.412  13.152 -0.2153 -0.0920  0.1956
12225W        W28359   9.271   1.201   0.500 -0.0692 -0.1132 -0.1085
12226W        W28360  17.284   6.173  10.518  0.1592  0.2202  0.0529
12227W        W28361  14.862   7.778  13.846  0.0877  0.0309 -0.4011
12228W        W28362   3.593   2.806   0.509  0.0190  0.1085 -0.1813
12229W        W28363  13.761  10.149   4.488  0.0027 -0.1817  0.2779
12230W        W28364  17.847   2.788   3.231 -0.0861  0.2747 -0.3724
12231W        W28365  17.745   4.341  12.675  0.0338  0.0906 -0.2680
12232W        W28366   9.994  15.189   5.986 -0.0909 -0.1807  0.1196
12233W        W28367   6.840   2.642  13.522 -0.0711  0.2772 -0.0443
12234W        W28368  13.024   0.775   4.319 -0.0745  0.1145 -0.0596
12235W        W28369   4.891   1.382   3.385 -0.4751  0.1578 -0.3718
12236W        W28370  13.495   4.310   1.776 -0.0760 -0.0211 -0.0251
12237W        W28371   6.655  12.173  14.622  0.0163 -0.1518  0.1789
12238W        W28372  12.419  11.433   2.057 -0.0793  0.0882 -0.1978
12239W        W28373   5.842  16.507   2.143  0.0099 -0.0687 -0.1833
12240W        W28374   2.660   5.569  14.193 -0.0682 -0.0821 -0.2163
12241W        W28375  15.230   5.171  13.856  0.0573 -0.3126 -0.0323
12242W        W28376  10.832  16.359   2.821 -0.1550 -0.1168  0.2245
12243W        W28377   4.604   5.914   1.607 -0.0346 -0.3260  0.1662
12244W        W28378   3.001  12.086   0.538  0.0889  0.0838 -0.3896
12245W        W28379  11.707   0.017   2.052  0.0716  0.1371 -0.1431
12246W        W28380  10.721   5.506  13.307  0.0792 -0.0366 -0.4062
12247W        W28381   0.242   1.199  13.534 -0.5370 -0.1323  0.1678
12248W        W28382   8.397  18.857   5.077  0.1460 -0.0891  0.1454
12249W        W28383  10.426  10.145   3.986  0.0000  0.1088 -0.0997
12250W        W28384   9.216  14.882   5.576  0.1753 -0.0064  0.2064
12251W        W28385  16.410  18.748   0.305 -0.2028  0.0301 -0.0794
12252W        W28386   9.566   7.085   2.012 -0.1489 -0.1581 -0.0027
12253W        W28387   7.406  11.406  13.706 -0.1579  0.2566 -0.2891
12254W        W28388   7.050   0.739  13.534 -0.0819 -0.1033  0.0717
12255W        W28389   3.122  17.030   3.273  0.3474  0.3283 -0.0001
12256W        W28390   1.287   3.101  10.435 -0.2731  0.1524 -0.2342
12257W        W28391   2.324   2.432   4.580  0.0595 -0.1637 -0.4482
12258W        W28392  18.135  10.127   2.379  0.0247  0.1824 -0.3140
12259W        W28393   4.491   9.511   4.012 -0.0164  0.0445  0.1493
12260W        W28394   9.720  10.277  10.029 -0.1115 -0.2125  0.3608
12261W        W28395  14.742  12.434  14.138 -0.3817 -0.0507  0.0087
12262W        W28396   5.539   8.547  11.255 -0.1770 -0.2963  0.1384
12263W        W28397  16.324   0.219   4.808  0.2109  0.1849 -0.0961
12264W        W28398  14.659  15.985  13.156 -0.3271  0.3656 -0.1699
12265W        W28399  16.786   1.598   1.438  0.0617 -0.0996  0.0606
12266W        W28400  14.009  11.978  13.269 -0.0815 -0.1568 -0.0479
12267W        W28401   3.723  18.967  14.524  0.1113 -0.0529 -0.3413
12268W        W28402   3.066  13.910   9.663  0.1525  0.1629  0.0872
12269W        W28403  12.379   0.128   2.240  0.0610 -0.1757 -0.1710
12270W        W28404   2.754  16.905  12.278  0.3617  0.0613  0.2621
12271W        W28405   5.181  18.228   2.123 -0.1708  0.3137 -0.1147
12272W        W28406  15.589  17.902  10.469 -0.0749  0.1243 -0.1075
12273W        W28407  18.529  13.354   2.727  0.0020 -0.1874 -0.1261
12274W        W28408  11.173   9.119   9.837  0.1406  0.1135  0.2999
12275W        W28409   0.271   0.351   3.097  0.0455  0.4477 -0.2076
12276W        W28410  16.049  12.949   0.390  0.1597 -0.0705 -0.0441
12277W        W28411  15.414  10.831  13.565  0.0353 -0.0116 -0.2664
12278W        W28412   7.060   9.522   3.309  0.2482  0.2361  0.1274
12279W        W28413   3.279   3.609   1.463 -0.1831 -0.0767  0.0856
12280W        W28414   2.909   4.452   4.965  0.0480  0.0978 -0.0009
12281W        W28415   4.095  11.377  14.713 -0.0648 -0.3554 -0.1157
12282W        W28416  11.820  12.708  14.344 -0.0834  0.0506  0.0713
12283W        W28417   3.132  17.738   0.197  0.1239 -0.2980 -0.1393
12284W        W28418  15.517  17.453  12.767  0.0522  0.1885 -0.2262
12285W        W28419  11.966  18.844   4.301  0.0053 -0.1001  0.1586
12286W        W28420   6.129  14.372   3.415 -0.1722 -0.0651  0.2529
12287W        W28421  19.048   2.739   2.230  0.1804  0.2967 -0.0413
12288W        W28422  10.320  19.113   2.028  0.1229 -0.2532 -0.1451
12289W        W28423   7.991   4.287   3.994  0.2170  0.0262 -0.1839
12290W        W28424   3.809   3.525  12.386  0.0378 -0.1273 -0.0042
12291W        W28425  14.749   8.538  11.680 -0.1223 -0.2020  0.2968
12292W        W28426  16.860   2.637  13.271  0.2513 -0.2378  0.2156
12293W        W28427   1.061   2.091  12.734 -0.0381 -0.3038  0.1962
12294W        W28428   1.946  18.851  10.436  0.2155 -0.2287  0.0413
12295W        W28429  17.863  18.542  14.892 -0.0338 -0.1443  0.0088
12296W        W28430   5.460   9.344   3.264 -0.0515  0.2394 -0.1155
12297W        W28431   8.475  12.805   2.903 -0.0066 -0.1979 -0.0091
12298W        W28432  18.158  12.247  14.090 -0.1778 -0.0032  0.1307
12299W        W28433  16.832  14.133  12.889  0.1352  0.0791 -0.1954
12300W        W28434  17.328  11.600  14.774 -0.2135  0.1436 -0.1375
12301W        W28435  17.787   3.066  11.290  0.1206  0.2794  0.1833
12302W        W28436  17.357   5.858  14.563  0.2342 -0.1650 -0.4340
12303W        W28437   2.369   5.273  11.597 -0.2904  0.1924  0.0763
12304W        W28438   4.682   7.106  10.393 -0.0175  0.1332 -0.1034
12305W        W28439  11.013  16.606   1.496  0.0558 -0.1845 -0.2305
12306W        W28440   5.734  15.388   2.075 -0.2270  0.2156  0.0575
12307W        W28441   0.786   1.130  11.834 -0.1917  0.0949 -0.0848
12308W        W28442  15.412   5.396  11.264  0.1165  0.0409  0.2878
12309W        W28443   8.882   8.941   3.751 -0.0971  0.0351  0.0975
12310W        W28444  13.921   0.035   2.211 -0.0987 -0.0048  0.2750
12311W        W28445   5.521   9.269   4.141  0.5907 -0.0904 -0.1168
12312W        W28446  18.050   8.266   2.771 -0.0776  0.0112  0.0229
12313W        W28447   8.256  11.558  12.013 -0.0402  0.0131 -0.2793
12314W        W28448  18.680   7.951  13.686 -0.1263 -0.1711  0.2141
12315W        W28449   8.496  12.051   3.517 -0.0785  0.1124 -0.0045
12316W        W28450   3.134  14.378  12.216  0.3167 -0.0243 -0.1732
12317W        W28451   2.448  15.417  10.287  0.0866  0.1341 -0.2724
12318W        W28452  16.150  10.337  10.382 -0.0911 -0.1016  0.0410
12319W        W28453   1.244   6.568   5.033 -0.0561 -0.1335  0.0303
12320W        W28454   7.337   7.669  11.941 -0.0295  0.0910 -0.3382
12321W        W28455   0.511  16.442   1.383  0.1136  0.1937 -0.2130
12322W        W28456  18.969  12.097  12.509  0.1416 -0.2158  0.0848
12323W        W28457  12.135  12.610  13.833  0.0423  0.2866  0.1233
12324W        W28458  18.039  10.984  11.257 -0.0866  0.1940  0.0311
12325W        W28459   8.973  17.782   0.662 -0.0182  0.1939  0.2325
12326W        W28460  12.906   5.577   1.167 -0.0659  0.2739 -0.2358
12327W        W28461   9.191  16.804   3.344  0.2065 -0.0641 -0.1477
12328W        W28462  16.076  12.175   2.071  0.2296  0.1778  0.1015
12329W        W28463   3.158   1.944  10.710 -0.1320  0.1437  0.3102
12330W        W28464  18.195  17.398  13.272  0.1169  0.1599  0.1216
12331W        W28465   8.442   2.036   3.405  0.1174 -0.1211  0.0652
12332W        W28466  14.093  13.107  13.098  0.0603 -0.1645 -0.0495
12333W        W28467  16.727   5.529  12.883 -0.1227  0.1260  0.0927
12334W        W28468   9.771  12.760  12.023  0.1350 -0.2291  0.3310
12335W        W28469  15.595   0.235  10.688 -0.1222 -0.0878 -0.1279
12336W        W28470   8.707   5.530   5.026 -0.0886 -0.0737  0.1693
12337W        W28471  13.624  18.547   1.448  0.0462  0.0916  0.2617
12338W        W28472  14.811  18.952  10.599 -0.0887  0.2281  0.1387
12339W        W28473  18.610   6.593   1.307 -0.1201  0.0637 -0.1139
12340W        W28474  16.709   1.042   3.751 -0.1879 -0.2844  0.0437
12341W        W28475   6.205  12.221  12.368  0.0122  0.0644  0.5658
12342W        W28476   5.793  17.932   9.606  0.3635 -0.0290 -0.0222
12343W        W28477  13.264  15.947  10.472  0.2284 -0.1537  0.1367
12344W        W28478  13.364  14.726  11.973  0.1924  0.4317  0.2724
12345W        W28479  18.614   1.204   0.074 -0.3381  0.1081  0.4230
12346W        W28480   9.222  19.017   2.228 -0.2378  0.0697 -0.0829
12347W        W28481  15.173  12.987   0.222 -0.3922 -0.0158 -0.0360
12348W        W28482   5.590   4.315   1.722 -0.1673  0.3789 -0.1769
12349W        W28483  13.456  18.917   2.131  0.2882 -0.0332 -0.3295
12350W        W28484  13.924   1.955   2.355 -0.2143  0.1524  0.1721
12351W        W28485   8.727  12.473   1.946  0.4558 -0.1082  0.0760
12352W        W28486  11.712  14.755   0.020 -0.2278 -0.2497  0.3589
12353W        W28487  15.497   5.461  10.718  0.1928 -0.1133 -0.0062
12354W        W28488  11.294   4.125   2.079 -0.3508 -0.1925 -0.1700
12355W        W28489  11.528  13.750  14.770 -0.2857 -0.1444  0.5109
12356W        W28490  10.926   9.011  11.669  0.1392 -0.2251  0.3928
12357W        W28491  15.363   5.317  12.556 -0.0380  0.2049 -0.0602
12358W        W28492   0.606   4.286  12.312  0.0877 -0.3222  0.0635
12359W        W28493   0.726   7.963   0.525  0.2483  0.1128 -0.0207
12360W        W28494  10.178  10.740  13.963 -0.4600  0.1164  0.1662
12361W        W28495   8.297  10.188  12.081 -0.0217 -0.1803  0.1698
12362W        W28496   3.408   4.596   4.810  0.2399 -0.2074 -0.1939
12363W        W28497  18.821   1.547  10.903  0.3762 -0.0190  0.2034
12364W        W28498  18.021   2.165   0.680 -0.0068 -0.1310 -0.1103
12365W        W28499  16.764  18.171  13.956  0.0631  0.1971  0.0001
12366W        W28500  10.391  15.815  11.892  0.1032 -0.5008  0.2502
12367W        W28501  17.234  18.784   4.332  0.1782  0.3184  0.2157
12368W        W28502   6.692  11.207  11.496  0.0832  0.0286 -0.2173
12369W        W28503   5.039   4.127  14.307 -0.0689 -0.1786  0.1082
12370W        W28504  14.490   7.372  13.925  0.4249  0.1945 -0.3382
12371W        W28505   9.201   9.237   2.785  0.1991  0.1262  0.0616
12372W        W28506   0.236   4.135   2.552 -0.2661 -0.1563  0.0343
12373W        W28507   6.498   5.121  10.876 -0.3288  0.2630 -0.0132
12374W        W28508  11.963  16.699   3.601  0.1520  0.0249  0.1873
12375W        W28509   6.816   8.827   5.234  0.3821 -0.2263 -0.0790
12376W        W28510   0.526   6.059  10.662  0.0425  0.1709  0.0950
12377W        W28511  17.768  17.404   0.792 -0.3053 -0.3074 -0.0134
12378W        W28512   4.234   3.912  10.757 -0.0048 -0.0509 -0.3422
12379W        W28513  12.475   7.439   0.371 -0.0985  0.0325  0.2714
12380W        W28514   7.338   7.465   2.026  0.1714  0.1089 -0.1779
12381W        W28515   3.992   6.772   2.100 -0.1445 -0.1619 -0.1785
12382W        W28516   7.559   7.496  11.001  0.2184  0.0013 -0.2246
12383W        W28517   5.236   9.787   3.146 -0.2679 -0.0095 -0.1207
12384W        W28518   3.034   0.486  11.520 -0.0448  0.4533 -0.0944
12385W        W28519   1.965   4.495   0.775 -0.1490  0.0775  0.1182
12386W        W28520  17.504  13.253  10.640 -0.1556  0.2970  0.1963
12387W        W28521  12.118  18.941   1.259  0.0192  0.1091  0.1254
12388W        W28522   0.915   9.307   0.108 -0.0072 -0.2595  0.0679
12389W        W28523  16.187   6.735   1.321 -0.0377 -0.0737  0.0558
12390W        W28524   1.142   2.687  14.984 -0.1836 -0.1312 -0.3772
12391W        W28525   0.609   2.822  11.772 -0.0834  0.4473 -0.2182
12392W        W28526  15.567   9.601  12.093 -0.0131 -0.2826  0.0372
12393W        W28527   9.610   8.726  12.248  0.1888  0.0207  0.0704
12394W        W28528   1.726   7.008   2.924 -0.1695 -0.2022 -0.2583
12395W        W28529  18.517  17.875   2.973 -0.1162 -0.1787 -0.1231
12396W        W28530   2.372  13.684  13.311 -0.1905  0.1841 -0.5104
12397W        W28531   8.557  17.949   4.846 -0.0352 -0.1178  0.1708
12398W        W28532   1.045  13.222  11.145 -0.0663  0.3063 -0.2400
12399W        W28533  18.965   0.313  13.718 -0.1199  0.0205 -0.2624
12400W        W28534   2.597   1.629   3.883  0.2764 -0.1090  0.0360
12401W        W28535  18.600   1.655   4.022  0.1535  0.1283  0.1408
12402W        W28536  11.571  11.274   1.943 -0.1917 -0.2095  0.0124
12403W        W28537  12.363   7.779   3.148 -0.0752 -0.0066 -0.0444
12404W        W28538   6.876   7.017  14.639 -0.0996  0.1546  0.2707
12405W        W28539   1.386  14.361  14.620  0.1005 -0.0710  0.0133
12406W        W28540   0.334  15.278   2.081 -0.4128  0.1809  0.2839
12407W        W28541  11.838   4.704   3.753  0.3441  0.1887 -0.0637
12408W        W28542   7.684   6.181   1.269 -0.1593  0.4713  0.0982
12409W        W28543   0.613  10.651   2.336 -0.0925  0.1174 -0.0457
12410W        W28544   8.569  10.524   3.486 -0.0151  0.1440  0.2978
12411W        W28545   9.522   4.423   0.089  0.1737 -0.0657 -0.1680
12412W        W28546   6.041   7.879   0.332  0.1498 -0.0082  0.2514
12413W        W28547  12.005  15.084  10.302 -0.0327 -0.0474 -0.2339
12414W        W28548  10.123   3.332   2.485 -0.0577 -0.1616 -0.0769
12415W        W28549   9.602   7.573   1.697  0.4658  0.1216  0.1809
12416W        W28550   1.281  15.133   0.305  0.1213 -0.1325  0.0011
12417W        W28551  17.041  17.620   0.894 -0.0898 -0.0516 -0.2085
12418W        W28552   7.553  12.384   2.480 -0.0989  0.1025 -0.1111
12419W        W28553  11.999  12.049   3.304 -0.0871 -0.0315 -0.3950
12420W        W28554   8.421   2.375  13.076 -0.1763 -0.0647  0.1405
12421W        W28555  15.608  17.014   2.847  0.0661 -0.1820 -0.2513
12422W        W28556   6.192   6.195   1.183 -0.0081  0.0960  0.0872
12423W        W28557   8.344  18.291  11.122  0.0750 -0.1203 -0.1455
12424W        W28558   4.395   9.533  10.456 -0.1577 -0.1418  0.0182
12425W        W28559  18.019  11.527  13.453  0.0563  0.4077  0.1916
12426W        W28560  19.002   3.995  12.644  0.0713  0.1997  0.0871
12427W        W28561   1.197  11.837   1.638 -0.3220  0.0684 -0.1233
12428W        W28562   5.218   8.890   3.209  0.0226 -0.0489  0.0637
12429W        W28563   6.570  10.000  11.547 -0.2712  0.3486 -0.0837
12430W        W28564   8.917  13.782  13.322 -0.0663  0.1506  0.0591
12431W        W28565   0.788   6.328   5.001  0.0751  0.1451  0.0066
12432W        W28566  17.612   5.504   3.641  0.4162  0.1871  0.0244
12433W        W28567   6.590   1.908  14.963  0.0059 -0.0712  0.0535
12434W        W28568   5.314  16.937   3.925  0.2201 -0.1066 -0.1498
12435W        W28569   2.708  11.281  14.197  0.0061 -0.1950  0.2150
12436W        W28570   8.453   1.778   0.609  0.0940  0.0408  0.3129
12437W        W28571  12.401  16.051   2.346  0.2293 -0.4220  0.0068
12438W        W28572  14.887   9.540   0.189 -0.0460  0.1520 -0.4464
12439W        W28573   1.452   5.229  15.066  0.4632  0.3810  0.0952
12440W        W28574  18.301   9.666   2.540 -0.2560  0.0970 -0.3508
12441W        W28575   9.806   5.102   1.643 -0.1836 -0.0066 -0.2071
12442W        W28576   1.597   3.612   3.258  0.2366  0.1976  0.0329
12443W        W28577   2.689   8.424   1.625  0.1639 -0.0557 -0.0903
12444W        W28578   7.570  16.777  10.489  0.0291  0.0789  0.2414
12445W        W28579   5.199   0.778   0.090  0.1843 -0.0278 -0.1469
12446W        W28580   7.820   1.418   3.314  0.0280  0.2013 -0.0487
12447W        W28581   1.547   8.341   1.944 -0.1108 -0.0142 -0.0085
12448W        W28582   6.015   7.669  14.600  0.1959  0.3180 -0.0460
12449W        W28583   8.482   6.025   5.093  0.1376 -0.1174 -0.0413
12450W        W28584   9.321   2.043   4.750  0.0982  0.2093 -0.0268
12451W        W28585  18.504   0.065   1.230 -0.2343 -0.2333  0.1238
12452W        W28586   3.009  10.184  14.623 -0.2281 -0.1742 -0.0297
12453W        W28587  13.115  17.631  10.191  0.1153 -0.0381 -0.1009
12454W        W28588  15.629  17.955   0.653  0.2067 -0.1805  0.1764
12455W        W28589  16.596  15.796   2.629  0.0539 -0.2451  0.0964
12456W        W28590   2.906   7.698  12.803  0.0263 -0.1512 -0.0148
12457W        W28591  16.185  11.636   0.467 -0.1890  0.1351  0.2092
12458W        W28592   2.049  18.473   4.160  0.2370  0.0669 -0.0604
12459W        W28593  17.893  14.641  10.628 -0.1956  0.1662 -0.0235
12460W        W28594   9.057   6.172   1.853 -0.4280  0.0624 -0.1744
12461W        W28595   5.008   6.551   1.159  0.3769 -0.0050  0.0160
12462W        W28596   4.390   7.419   3.808  0.0532  0.1997 -0.2527
12463W        W28597   7.778   7.583   4.622 -0.2092 -0.2325 -0.1644
12464W        W28598   2.925   1.118  13.977  0.1605  0.1372 -0.0028
12465W        W28599   3.662   5.859  12.098 -0.2753 -0.1213  0.0086
12466W        W28600  11.427   6.091  12.979  0.0972  0.2969 -0.4088
12467W        W28601  17.387   9.369   3.501 -0.0284 -0.2280  0.2195
12468W        W28602  13.230   9.339  13.578  0.3397  0.0858  0.1892
12469W        W28603   8.171  10.385   4.266 -0.1685  0.1476 -0.0122
12470W        W28604  14.712  13.795   1.774  0.0426 -0.0741 -0.0550
12471W        W28605   7.514  14.542   0.999 -0.0123  0.2630  0.3140
12472W        W28606  18.614  14.333  13.353  0.0290 -0.0831  0.0082
12473W        W28607   0.666  12.914  11.112  0.4020 -0.0271  0.2379
12474W        W28608   1.901  17.053   5.856 -0.0249 -0.3581  0.0727
12475W        W28609  14.747   8.247  14.200 -0.5126 -0.5486 -0.1232
12476W        W28610  10.391   7.375   0.467  0.2690  0.1973 -0.0019
12477W        W28611  12.717   4.267   1.188  0.0256  0.3057  0.1093
12478W        W28612  11.871   6.705   2.640 -0.0499 -0.1307  0.1262
12479W        W28613  12.009   2.832  11.001  0.0179 -0.0978  0.2130
12480W        W28614   4.339   4.549  13.277 -0.2023 -0.1597 -0.4249
12481W        W28615   4.798  12.436   3.541  0.0260  0.0461  0.0758
12482W        W28616  18.957   2.864   1.714 -0.6522  0.3645  0.1838
12483W        W28617   6.664   0.112   1.989  0.2785  0.1428  0.1599
12484W        W28618  14.286   1.565  12.682  0.0173  0.0468 -0.0942
12485W        W28619  13.297  13.871  12.261 -0.0622  0.0029 -0.0697
12486W        W28620  10.082  16.838  12.922  0.4105 -0.0400  0.4325
12487W        W28621   5.039  11.406   1.909 -0.0225  0.1608  0.1018
12488W        W28622  14.349   4.127   4.989 -0.0899  0.1774 -0.2301
12489W        W28623  13.891  10.905   0.558  0.2207 -0.0697  0.1738
12490W        W28624  13.286   0.021   3.117  0.0118  0.0194 -0.1338
12491W        W28625   4.421   9.569   2.738 -0.1160 -0.2292 -0.0648
12492W        W28626   8.526   3.312  10.713  0.3743 -0.2180 -0.0496
12493W        W28627  17.323   7.889   1.849 -0.4337 -0.0028 -0.1433
12494W        W28628   5.423   6.099  13.350 -0.1486  0.0430 -0.1969
12495W        W28629  14.680   1.224   4.981  0.2160 -0.2224 -0.1320
12496W        W28630  18.707   7.773   0.957 -0.0483  0.0003 -0.0989
12497W        W28631  13.549  18.408   2.037 -0.4014 -0.0342  0.0088
12498W        W28632   3.299  12.907   5.851  0.0429  0.2148  0.5552
12499W        W28633   7.768  15.296  15.039 -0.3154 -0.1138 -0.2404
12500W        W28634   7.386  16.357   5.091  0.1660 -0.0703  0.0494
12501W        W28635  13.971   4.217   1.885  0.1096  0.0641 -0.0824
12502W        W28636  13.890   5.804   0.913 -0.0245  0.0945  0.1002
12503W        W28637  17.044   2.325  10.386 -0.0641 -0.0032 -0.2073
12504W        W28638  17.523   8.569   4.390 -0.1373 -0.2752 -0.1251
12505W        W28639  11.396   5.168   1.210  0.1880  0.0379  0.1083
12506W        W28640   0.400  14.243  13.093 -0.3785  0.2396 -0.1966
12507W        W28641   5.357  18.849   1.134 -0.0596 -0.0750  0.2823
12508W        W28642   9.466  11.100   1.444 -0.4410 -0.0908  0.1918
12509W        W28643  11.994  18.870  13.636 -0.1006  0.4235 -0.2737
12510W        W28644   1.099   2.755   0.720 -0.3358 -0.2557 -0.3645
12511W        W28645  10.772  14.007   2.948 -0.0052  0.1255  0.3841
12512W        W28646   9.554   3.558  15.164  0.1604  0.3254  0.1692
12513W        W28647   1.310   9.022  12.998  0.1405  0.0224  0.0642
12514W        W28648  14.800  17.779  13.714 -0.0006  0.0751 -0.0920
12515W        W28649   8.243  14.190   4.076  0.1277  0.2150 -0.4077
12516W        W28650  18.308  13.770   2.894 -0.0943 -0.0858 -0.2938
12517W        W28651   6.150   4.251   5.060 -0.4444  0.0372 -0.0979
12518W        W28652   9.908   0.463   1.274  0.1248 -0.0145 -0.4007
12519W        W28653   0.291   2.926   5.207 -0.2017 -0.0326 -0.3474
12520W        W28654   3.410   6.095  15.196  0.2510  0.0937  0.0559
12521W        W28655  11.265   5.044  13.964  0.1508 -0.0429 -0.2566
12522W        W28656   3.186  13.521  14.281 -0.4016 -0.2586  0.1043
12523W        W28657  16.827   0.410   1.940 -0.4217 -0.0719  0.1369
12524W        W28658  12.781   4.122   5.101 -0.1040 -0.0409  0.2031
12525W        W28659   4.999  13.658   0.670 -0.0994 -0.0327  0.0731
12526W        W28660   3.191  18.169   4.684 -0.0156 -0.2298 -0.1501
12527W        W28661  10.413  18.968  14.719 -0.0071  0.5092  0.5372
12528W        W28662  17.273   3.884   4.235 -0.1337 -0.2520 -0.3125
12529W        W28663   7.999  11.910   0.183 -0.1093 -0.1423 -0.0439
12530W        W28664  13.374   3.552   0.533 -0.1643 -0.1325  0.0184
12531W        W28665   3.211  15.836  13.539  0.2544  0.0133 -0.2275
12532W        W28666   7.448  14.584   3.273 -0.1586  0.1310 -0.0384
12533W        W28667   7.165  16.170   2.433  0.2909 -0.2250  0.0592
12534W        W28668   9.425   2.339  13.417 -0.0571 -0.0165  0.2213
12535W        W28669   3.681   9.998   0.635 -0.2962 -0.0091  0.0749
12536W        W28670   4.136  18.990  14.863  0.2350  0.3850 -0.1035
12537W        W28671  12.425   9.628   4.461 -0.1215 -0.1788 -0.2612
12538W        W28672   3.066   2.462  13.947 -0.5062 -0.1444 -0.0909
12539W        W28673  13.449   4.756   1.646  0.1454 -0.0521 -0.0938
12540W        W28674  11.025   2.310   2.222 -0.1660  0.2058 -0.0790
12541W        W28675  16.307  10.718   1.750  0.2889  0.1962 -0.3410
12542W        W28676   1.410   3.423  14.501 -0.1410 -0.4087  0.0005
12543W        W28677  10.116   1.904   0.634 -0.4590 -0.0666  0.3856
12544W        W28678  15.192   3.098  12.379  0.0162  0.1516 -0.1933
12545W        W28679  14.749   7.324  14.323  0.6482 -0.6284 -0.0957
12546W        W28680  17.324  10.634   1.151  0.4308 -0.4330  0.5121
12547W        W28681  10.306  12.882   0.795 -0.1738  0.2348 -0.2080
12548W        W28682   5.226   6.235   5.031 -0.0348 -0.5582 -0.0814
12549W        W28683   3.482   3.672  10.389 -0.1206  0.0434 -0.0844
12550W        W28684  15.380   8.118  12.323 -0.1015  0.2453 -0.0584
12551W        W28685   1.814   7.143  11.553 -0.0993 -0.3739  0.1735
12552W        W28686  14.946   9.292   2.420 -0.2494 -0.2195 -0.0140
12553W        W28687   5.683  11.524  11.193 -0.2387 -0.2157  0.0046
12554W        W28688   0.594   3.252  14.381 -0.3176 -0.0766 -0.1257
12555W        W28689   8.813   9.197   2.386  0.3285 -0.1629 -0.1225
12556W        W28690   3.593  10.661  14.221  0.0837  0.2516  0.2136
12557W        W28691   7.178   9.370   1.474 -0.0612  0.1176 -0.0897
12558W        W28692  15.437   5.860  11.066  0.2774  0.0477  0.2936
12559W        W28693   2.674  14.605  10.624 -0.2306 -0.3712  0.2813
12560W        W28694   8.786  12.521   0.511  0.1594  0.6431  0.2917
12561W        W28695   8.106   8.349   3.113 -0.1768 -0.0837 -0.0113
12562W        W28696   2.069   4.389  11.032  0.2784  0.2556 -0.0535
12563W        W28697   5.042  12.465  15.072 -0.0342  0.0063 -0.1781
12564W        W28698  18.471  14.370   1.130  0.4067 -0.0634 -0.0703
12565W        W28699   0.076  14.056  10.272 -0.2732 -0.1528 -0.2053
12566W        W28700  10.528   6.859  10.901 -0.2015 -0.0723  0.3080
12567W        W28701   3.811  12.565  10.703 -0.0005  0.1758 -0.3729
12568W        W28702  14.981  14.141   0.228 -0.4596  0.0630  0.0799
12569W        W28703  14.659  10.665  13.554 -0.0438 -0.2855 -0.0088
12570W        W28704   7.882   3.494  13.516  0.1388  0.1227 -0.1216
12571W        W28705   9.030  11.893  12.951 -0.2950  0.0295 -0.0446
12572W        W28706  18.275   5.885   2.181 -0.1257 -0.0927  0.1557
12573W        W28707  16.397  18.375  13.629 -0.0838 -0.3137 -0.1483
12574W        W28708  13.791   5.158  12.187  0.1491  0.1256  0.0423
12575W        W28709  13.690   3.118  11.669 -0.0636 -0.2816 -0.4394
12576W        W28710  17.943   4.223   2.900  0.0926  0.1878  0.0477
12577W        W28711   5.705  12.751  11.592 -0.2191 -0.0313  0.4390
12578W        W28712   0.616   2.613   0.972 -0.0201 -0.2158  0.0331
12579W        W28713   3.488  16.718   2.086  0.2075 -0.0609 -0.1826
12580W        W28714  12.012  13.055   0.372 -0.0181  0.0482 -0.0617
12581W        W28715  14.343   2.317   1.055  0.0462 -0.2294  0.1105
12582W        W28716   4.517   2.201   4.864  0.1010 -0.0459 -0.0755
12583W        W28717  18.679   2.739   5.653 -0.0336  0.2194  0.0602
12584W        W28718   6.419  10.039  12.061 -0.0218  0.3090 -0.0569
12585W        W28719   1.890  16.000  13.403 -0.2409  0.2824  0.0154
12586W        W28720   1.498   3.445   4.035  0.0129  0.0843 -0.3367
12587W        W28721   3.907  18.255   1.433  0.1615 -0.0644 -0.2129
12588W        W28722  16.583  10.942   3.773  0.4504  0.1943  0.0202
12589W        W28723  17.696   8.084  12.138  0.0844  0.1128 -0.0059
12590W        W28724   5.848   2.986  11.528 -0.3810  0.1513  0.2427
12591W        W28725   4.834  18.149   5.834  0.2426 -0.1473 -0.0496
12592W        W28726  13.641  12.258   4.392 -0.0882 -0.1505  0.2602
12593W        W28727  10.431  14.223  13.887 -0.1288  0.2017  0.2055
12594W        W28728   2.919   4.241  11.515  0.2281  0.0202 -0.1396
12595W        W28729   1.302  14.967   6.143 -0.0205 -0.2898  0.1004
12596W        W28730   7.493  16.280  13.360 -0.0232  0.0953 -0.1925
12597W        W28731  16.711  10.401   0.583 -0.2157  0.3903  0.0830
12598W        W28732  10.328   4.332  13.879 -0.1607 -0.3324 -0.1868
12599W        W28733   2.313   3.927   0.628  0.0787  0.3049  0.0994
12600W        W28734   5.629   7.318   2.839  0.0959 -0.0013  0.2248
12601W        W28735   9.129  14.812  11.970 -0.0014  0.0522  0.1142
12602W        W28736  12.483  13.633   1.082 -0.1351  0.1436 -0.3271
12603W        W28737   7.009  10.708  10.902  0.0390 -0.1774 -0.0426
12604W        W28738  14.699  12.820  10.268 -0.1856 -0.0029  0.4416
12605W        W28739  14.197  16.899   3.683 -0.0882  0.1125 -0.1345
12606W        W28740   4.832   1.473   0.047  0.3737 -0.0227  0.1723
12607W        W28741  14.326  15.330  12.309  0.2245 -0.0710  0.0085
12608W        W28742  12.810   3.631   4.704 -0.0597 -0.0679  0.0971
12609W        W28743  18.599  12.050   2.581 -0.1101 -0.4012  0.3284
12610W        W28744   8.918  10.633  13.562  0.5421  0.0133  0.0420
12611W        W28745   9.273  14.724   6.268 -0.0168 -0.0654  0.4402
12612W        W28746   6.338  13.210  12.113 -0.0761  0.3153 -0.0032
12613W        W28747  17.606   0.981   0.104 -0.1729  0.0087  0.0997
12614W        W28748   4.132   4.243  15.140 -0.2689  0.0972 -0.0537
12615W        W28749  12.846  18.631  15.119 -0.1950  0.0641  0.1520
12616W        W28750   2.894   3.191   2.626 -0.2291 -0.0865 -0.3254
12617W        W28751   1.756   8.389   2.820 -0.2539  0.0993  0.0335
12618W        W28752   8.960  12.946  14.212  0.0057  0.1601 -0.0432
12619W        W28753  15.212  16.481  13.719 -0.0618  0.2905 -0.0016
12620W        W28754   4.976  14.526  12.874 -0.2427  0.0341  0.3029
12621W        W28755   1.406  15.851   2.078  0.1044  0.3190 -0.1098
12622W        W28756   7.966  15.160   4.992  0.1410 -0.1779 -0.1035
12623W        W28757   3.191   4.910   2.496 -0.0707  0.1013  0.0745
12624W        W28758   4.455  18.390  10.959  0.0519  0.0002 -0.3050
12625W        W28759  13.859   1.340   3.898  0.1087  0.1810  0.3342
12626W        W28760  15.115   4.110  13.319  0.1248 -0.1350 -0.0117
12627W        W28761   0.708   9.863   4.012  0.1106  0.1983  0.2507
12628W        W28762   5.617  13.185  12.843 -0.1125  0.3816 -0.1243
12629W        W28763   1.243   1.033   4.172 -0.0747 -0.1185 -0.2131
12630W        W28764  12.742   8.494  10.467  0.1635  0.5792  0.0053
12631W        W28765  13.382   0.621   4.625  0.1017  0.0509 -0.2682
12632W        W28766  16.289  17.455   3.339  0.1579 -0.1490  0.3932
12633W        W28767   8.764   2.097  14.572 -0.3521 -0.1579 -0.1286
12634W        W28768  13.814   6.561   0.036  0.0720 -0.0147  0.1545
12635W        W28769  16.837   4.252  10.560  0.2414  0.0798 -0.1432
12636W        W28770  10.402   0.952  11.110 -0.0583 -0.3912 -0.1111
12637W        W28771  15.058  16.480   1.821  0.0061 -0.0224 -0.1857
12638W        W28772   8.750  17.131   9.644 -0.0212 -0.1137  0.0390
12639W        W28773  11.725   8.564   2.323 -0.1840  0.1725 -0.3073
12640W        W28774   5.704  18.742   0.593  0.0028  0.3129 -0.3893
12641W        W28775   1.708   7.016   2.429 -0.0600  0.0795  0.0469
12642W        W28776   2.845   6.527  13.471  0.1131 -0.0956 -0.2228
12643W        W28777   7.288  15.044   5.247  0.0758 -0.0316 -0.4910
12644W        W28778  14.626  11.650  11.537  0.3207 -0.0778 -0.0835
12645W        W28779   5.097   2.370  15.017 -0.0657 -0.0006  0.1696
12646W        W28780  13.974   0.947   1.226  0.1638  0.1105  0.0279
12647W        W28781  17.790   1.745  10.620  0.2984  0.0586 -0.0154
12648W        W28782   8.739  13.390   2.247  0.2427 -0.2826 -0.4657
12649W        W28783  18.659  11.773   1.129 -0.0944  0.1695  0.2460
12650W        W28784   1.232  14.999  11.203  0.2369 -0.1215 -0.0693
12651W        W28785  12.903  15.592  12.031  0.0143 -0.1974 -0.0722
12652W        W28786  18.167   5.305  13.438 -0.0106 -0.0378 -0.2152
12653W        W28787   5.481  12.920   0.402 -0.1498  0.4668  0.2240
12654W        W28788   9.953   2.853  14.092 -0.0002  0.0391  0.1850
12655W        W28789   7.356  13.790  15.130  0.0938 -0.1330  0.1183
12656W        W28790   2.142   2.905  11.228 -0.2346 -0.2940  0.1233
12657W        W28791  17.891   3.367   2.605 -0.1423  0.2538  0.2423
12658W        W28792   3.344  14.450  10.663 -0.1249  0.3728 -0.1554
12659W        W28793  18.810   2.340  14.185 -0.1591  0.3233  0.1807
12660W        W28794   1.751   6.014   3.184 -0.0689 -0.2934 -0.1745
12661W        W28795  10.594  13.862   4.009  0.1955  0.1932 -0.1495
12662W        W28796   7.256  14.573  12.952  0.3195 -0.2764  0.0068
12663W        W28797  15.405  18.983   1.311  0.3194 -0.2465  0.2298
12664W        W28798  15.410   0.098   2.180  0.2350 -0.1567  0.0146
12665W        W28799   4.514  12.111   3.849 -0.1169  0.1725 -0.4690
12666W        W28800   1.976  16.043   1.298 -0.2975  0.1439 -0.0904
12667W        W28801   3.352  16.432  13.755 -0.1673 -0.2324  0.0496
12668W        W28802  14.221   2.879  14.705  0.1490 -0.0373 -0.1532
12669W        W28803   5.920   7.349  12.221  0.0721  0.0979 -0.1943
12670W        W28804   8.420  13.548  10.366  0.1938 -0.1395 -0.0074
12671W        W28805  15.389   8.514   3.541  0.0174 -0.0219  0.1007
12672W        W28806  18.207   5.679  13.111  0.2566  0.2863  0.2090
12673W        W28807  10.872  10.119   1.141 -0.0440  0.0895  0.0766
12674W        W28808  12.069   5.861  13.572 -0.0445  0.3219 -0.3782
12675W        W28809  15.398   3.208  10.577 -0.0674 -0.2156 -0.1812
12676W        W28810   6.722  13.918   1.988 -0.2740  0.0049  0.1279
12677W        W28811  15.162   0.625   1.232 -0.4844  0.0203  0.2014
12678W        W28812  15.275   4.039   0.169 -0.0319  0.0674  0.2137
12679W        W28813  10.558  17.634  10.257  0.2007  0.2059 -0.1628
12680W        W28814  16.777   7.600  10.976 -0.1255 -0.1565  0.0080
12681W        W28815   1.748   0.110  14.500 -0.2594 -0.0735 -0.1949
12682W        W28816  12.571   9.298  12.726 -0.1876  0.3759 -0.1394
12683W        W28817   3.209  12.118  12.751 -0.3348  0.1933 -0.1104
12684W        W28818   2.533   2.037   4.262  0.1045 -0.1153  0.2258
12685W        W28819  17.713   5.781  15.076  0.2147  0.2181  0.2788
12686W        W28820  12.329   4.689   3.806  0.2064  0.0152 -0.1784
12687W        W28821   9.733  15.378  15.141  0.0470 -0.1887  0.3116
12688W        W28822   4.435  14.956   3.119  0.2356 -0.2671 -0.3062
12689W        W28823   0.572   0.291  10.176  0.0077 -0.0536  0.0831
12690W        W28824   0.091   6.616  14.996 -0.1167  0.2353 -0.0670
12691W        W28825  10.344  14.294  12.614 -0.1021  0.0820 -0.3155
12692W        W28826  11.275   7.511   1.464 -0.1393 -0.1403  0.0475
12693W        W28827  15.752   5.637  12.599 -0.2789  0.1311 -0.1246
12694W        W28828  14.040  14.601   4.301  0.1196  0.3267 -0.1657
12695W        W28829   8.177   2.751  12.492  0.4237 -0.2252  0.1299
12696W        W28830   4.543   7.269  12.348  0.0751 -0.0567  0.2324
12697W        W28831   3.693  15.612   4.677  0.0924 -0.2422  0.0753
12698W        W28832   8.085   1.841   0.973 -0.0147  0.4306  0.0937
12699W        W28833  10.114  16.924   3.640  0.1299  0.2642 -0.1231
12700W        W28834   9.426  13.152  12.024  0.3783  0.0484 -0.0214
12701W        W28835  16.473   3.460  13.153  0.1166  0.0285 -0.0808
12702W        W28836   9.916  13.806  14.499 -0.3208 -0.0758  0.0530
12703W        W28837  14.930   5.288   5.551  0.2281  0.1722  0.2278
12704W        W28838  17.668  13.828  10.379  0.2626 -0.1601  0.2644
12705W        W28839  11.260  17.012   2.597  0.1147  0.0174 -0.0069
12706W        W28840  16.024   2.062   2.827 -0.1111 -0.1519 -0.4221
12707W        W28841   3.591  11.290  14.818 -0.0190 -0.0298  0.3893
12708W        W28842   5.374   8.091  12.553  0.1600  0.2332 -0.0774
12709W        W28843  13.503   0.940  10.953  0.0195  0.0312 -0.0628
12710W        W28844  10.556   6.096   0.049 -0.0325 -0.0467  0.0431
12711W        W28845   6.380  15.533   1.440  0.0907  0.2923  0.2139
12712W        W28846   7.843  19.014   1.393  0.2995  0.0655 -0.0780
12713W        W28847  15.104   7.758   0.475  0.1434 -0.0915  0.1143
12714W        W28848   4.660  12.060  13.299  0.0947 -0.1340 -0.2601
12715W        W28849   6.874   7.479  12.787  0.0402  0.3140  0.2001
12716W        W28850   9.629  15.814  11.877  0.2436 -0.3260  0.1144
12717W        W28851  13.215   1.320   0.463 -0.1487 -0.0433  0.3310
12718W        W28852  16.443  12.865   2.138 -0.1156  0.0048 -0.1647
12719W        W28853  12.015   4.015   3.257 -0.0520 -0.0846  0.1722
12720W        W28854   6.251  15.365   4.398  0.0441 -0.0949 -0.3594
12721W        W28855   6.810   8.461   4.108 -0.2774  0.2251  0.0798
12722W        W28856  16.542  16.083  14.647 -0.0877  0.3696 -0.2017
12723W        W28857   3.408  17.449   3.707 -0.6265 -0.0028  0.0907
12724W        W28858   6.350   6.290  11.270  0.3109 -0.2267  0.0622
12725W        W28859   9.966   2.864  11.448 -0.0229  0.0531  0.0685
12726W        W28860   8.452   6.177   0.123  0.1708  0.0879 -0.0613
12727W        W28861  11.543   7.321  13.904 -0.0636 -0.0644  0.0565
12728W        W28862  13.344  16.755   0.834 -0.0895 -0.0716 -0.1816
12729W        W28863   0.811   5.525   0.682  0.1753  0.1780  0.0977
12730W        W28864  12.230   4.819   1.148 -0.3617  0.0104  0.0932
12731W        W28865  10.169  10.327  12.827 -0.0064 -0.1892 -0.1469
12732W        W28866  11.460   0.671  10.587  0.2203 -0.0749  0.1396
12733W        W28867  13.282  17.229  13.354  0.0063 -0.2187  0.0866
12734W        W28868  17.929  16.733  12.500  0.3372 -0.2772  0.1387
12735W        W28869   5.133  10.189  12.461  0.0234 -0.1325  0.2500
12736W        W28870   5.320  18.798   0.279  0.1818 -0.1498  0.3512
12737W        W28871   6.303  13.679   3.245 -0.0873  0.1464  0.2754
12738W        W28872  13.869   9.361  12.358 -0.4239  0.0537 -0.0990
12739W        W28873   5.825   6.249  11.223 -0.1118 -0.1069  0.2152
12740W        W28874  15.076   2.206  11.627 -0.0459  0.0280 -0.0183
12741W        W28875  12.893  10.522  14.595  0.1076  0.2041  0.1412
12742W        W28876   3.941  16.323  13.694  0.1295 -0.1827  0.0625
12743W        W28877  17.789   9.063   3.511  0.1254  0.0673  0.1779
12744W        W28878   0.485  10.352  14.675  0.0799 -0.0361 -0.0009
12745W        W28879   4.080   4.308   0.653 -0.1891 -0.1002  0.1337
12746W        W28880  17.166  14.123  13.307 -0.1217  0.0124 -0.1183
12747W        W28881  14.682  11.321  14.918 -0.0277  0.0166  0.0115
12748W        W28882  12.385  10.541  11.320  0.0951 -0.2336 -0.0222
12749W        W28883   5.221  14.217   2.044 -0.1745  0.0328 -0.0785
12750W        W28884   5.426  11.746  10.841  0.1769  0.0861  0.2448
12751W        W28885   6.025   6.962   0.641  0.1691  0.2389 -0.2027
12752W        W28886  11.401  15.866  12.930  0.2101  0.1546 -0.3307
12753W        W28887   1.639  16.840   4.975 -0.5397  0.1685  0.1417
12754W        W28888  11.345   5.982   1.094 -0.0051  0.3902  0.0355
12755W        W28889   8.495   7.930   2.965  0.2453 -0.3302  0.2453
12756W        W28890  16.752   0.609  12.898  0.2964  0.0797 -0.3549
12757W        W28891   2.216  16.782  12.933  0.0684  0.1240  0.2376
12758W        W28892  12.731   8.880  15.107 -0.1121  0.0625  0.0062
12759W        W28893  18.768  10.029  12.177  0.0319 -0.2205 -0.0452
12760W        W28894  10.926   6.971  11.132 -0.4464 -0.3486  0.2185
12761W        W28895   2.073  10.550   4.405  0.1336 -0.1234 -0.2869
12762W        W28896  10.793  15.060   1.190 -0.1413  0.2688  0.0815
12763W        W28897   2.371  12.453   2.274  0.3586 -0.0028  0.2073
12764W        W28898  14.095   3.076   3.057 -0.1496 -0.0036 -0.2493
12765W        W28899  16.006   0.769  12.795 -0.1000  0.4299  0.1463
12766W        W28900   7.883  13.558   5.326  0.0154  0.1773  0.1109
12767W        W28901  14.295  17.634   1.293  0.2219  0.4900  0.1537
12768W        W28902  16.653  17.927  14.637 -0.0928 -0.1706  0.2475
12769W        W28903  15.202   0.406  12.330  0.2131  0.0715  0.1800
12770W        W28904  11.742  16.554  13.887 -0.0699 -0.0624  0.1832
12771W        W28905   3.308   1.593   3.322 -0.2539  0.1666  0.1176
12772W        W28906   6.247   2.643  11.382 -0.1778  0.0157  0.0497
12773W        W28907  16.537  18.883   0.769  0.1881  0.0217  0.2045
12774W        W28908  19.102   4.213   4.553  0.1766  0.1800 -0.0980
12775W        W28909   4.492  18.062   0.576 -0.2953 -0.3665 -0.3764
12776W        W28910   3.872   7.571  11.737 -0.1875  0.2252 -0.5878
12777W        W28911  12.319  13.938  13.391  0.1893  0.0299 -0.2305
12778W        W28912   6.916  19.028  11.945  0.3230  0.0568  0.0081
12779W        W28913  17.051  17.901  11.816 -0.1600 -0.0111  0.0292
12780W        W28914   7.798  14.451  12.846  0.0373 -0.0640 -0.0557
12781W        W28915  14.964  16.924   0.855 -0.0121  0.1872 -0.2015
12782W        W28916  13.901  13.762   2.056  0.1604  0.0028 -0.0778
12783W        W28917  13.423   7.572   3.851  0.1065 -0.1986 -0.0683
12784W        W28918   5.236  15.053  13.765 -0.1190  0.0320  0.1773
12785W        W28919  13.190   3.385   4.913  0.0069 -0.0820 -0.3105
12786W        W28920   0.898  10.817  14.100  0.2433 -0.3678 -0.0518
12787W        W28921  13.765  15.123   3.552 -0.0498 -0.3512  0.0003
12788W        W28922   8.013  17.418   0.224 -0.0768 -0.1224  0.0885
12789W        W28923   7.706   2.572   1.512 -0.1608 -0.3411  0.3795
12790W        W28924   5.040   7.915   5.229 -0.0465 -0.1622  0.2102
12791W        W28925   6.273   7.431   5.700 -0.1523 -0.2899  0.1070
12792W        W28926  14.103   4.492   2.863  0.2569  0.1803 -0.0127
12793W        W28927  16.354   9.275  12.410  0.3663 -0.3166 -0.0828
12794W        W28928  12.484   2.812  12.499 -0.0111 -0.0668  0.1116
12795W        W28929   9.628   1.419   4.915  0.1409 -0.0460  0.1581
12796W        W28930   5.139   3.582  13.490 -0.0599  0.1313  0.0565
12797W        W28931  11.199  18.039   4.733  0.0423 -0.1230 -0.0002
12798W        W28932  12.370   0.507  13.393  0.3052 -0.2532  0.0452
12799W        W28933  16.251   3.546   1.302  0.2200  0.1915  0.2339
12800W        W28934   8.506   2.878   4.665 -0.3141  0.1616  0.0359
12801W        W28935  12.520   1.607  13.247 -0.0164 -0.3807  0.2446
12802W        W28936  11.285  17.817   2.028 -0.3729 -0.1865 -0.1431
12803W        W28937   6.641  15.290   3.692  0.0251 -0.1519 -0.0024
12804W        W28938  12.747  14.317   1.115 -0.1143 -0.0025  0.0642
12805W        W28939   2.858  16.888   4.878  0.1785  0.1129  0.0263
12806W        W28940  15.268   7.831   3.704 -0.0805  0.0946 -0.1733
12807W        W28941   7.999   7.594  13.517 -0.1058  0.2352 -0.1888
12808W        W28942   6.476  18.702  14.992  0.2080  0.4825  0.3152
12809W        W28943   9.467  17.254   2.016  0.1030 -0.0176  0.3576
12810W        W28944   5.371  12.385   3.501 -0.1011 -0.1769  0.1674
12811W        W28945  14.127  12.027  11.423 -0.1611 -0.0477 -0.1419
12812W        W28946  15.699  11.346   1.894 -0.0351 -0.1686  0.4125
12813W        W28947  14.416   4.550   0.838  0.0753  0.0725  0.2601
12814W        W28948   2.891  17.865  12.641  0.0773 -0.0433  0.1252
12815W        W28949   5.945  15.698   3.087  0.2777 -0.3288 -0.1542
12816W        W28950   2.676  11.437  13.724 -0.0485 -0.0283 -0.0419
12817W        W28951  11.795   0.179   5.062 -0.0359 -0.0215 -0.0058
12818W        W28952  13.120  17.592   0.299 -0.0459 -0.0927 -0.3351
12819W        W28953  18.571  18.695  11.640 -0.0404 -0.0126  0.0817
12820W        W28954  10.424  14.425   2.475 -0.3701 -0.1759  0.0403
12821W        W28955  13.597   9.811  13.717  0.0273  0.0810 -0.4287
12822W        W28956  13.007  18.381   1.175  0.0781  0.2650  0.0989
12823W        W28957   5.000   8.906  14.173 -0.0062 -0.2591  0.4248
12824W        W28958   2.306   6.988  14.232  0.7504  0.0214 -0.1394
12825W        W28959   6.836  16.732   4.648  0.0627 -0.1825 -0.3193
12826W        W28960   2.141  11.221   3.563 -0.1271  0.4171 -0.1676
12827W        W28961  15.331  12.263  11.994  0.0555  0.1470 -0.0057
12828W        W28962  16.247   4.524   1.225 -0.0388  0.0668  0.0538
12829W        W28963   9.326  10.055   4.423 -0.0321 -0.0387 -0.1001
12830W        W28964   7.065  12.883   0.682  0.1144 -0.0856 -0.0448
12831W        W28965  18.447  11.524   3.150  0.0957  0.1219  0.1209
12832W        W28966  11.429  19.009  15.195 -0.3148  0.2718 -0.0225
12833W        W28967   1.816   5.151  14.786  0.1381  0.3055 -0.3656
12834W        W28968   1.978   8.587  11.705  0.1451 -0.0922 -0.0121
12835W        W28969   5.250  10.394   0.554 -0.1325 -0.1620 -0.2516
12836W        W28970  16.699  15.416   4.482  0.0243  0.2654  0.0308
12837W        W28971   2.454  11.914   2.251  0.0969 -0.1753 -0.2233
12838W        W28972  18.873   2.382  12.038  0.3369 -0.0227  0.1786
12839W        W28973  16.176   2.260   1.316 -0.1468 -0.0383  0.1011
12840W        W28974  12.770   7.341   1.445  0.0235 -0.2502 -0.3608
12841W        W28975   5.322   4.424   3.086 -0.1382  0.3698 -0.0430
12842W        W28976  13.935   3.318   0.245  0.2156 -0.1599  0.2284
12843W        W28977   3.438  17.118   2.349  0.2867 -0.0745  0.4453
12844W        W28978  14.038  14.177  11.666 -0.1933  0.0785  0.2455
12845W        W28979   8.482   4.093  12.012 -0.1637 -0.1824 -0.2987
12846W        W28980  16.339   3.720   0.537 -0.1392 -0.1843  0.2526
12847W        W28981   3.691  15.941  14.451  0.0247  0.0710  0.2423
12848W        W28982  19.044  12.488   1.557 -0.2646  0.2330 -0.2546
12849W        W28983  13.827  18.634   0.881  0.3171 -0.2677 -0.0987
12850W        W28984   5.845  16.802  11.179  0.3022  0.0748 -0.3053
12851W        W28985  14.478   5.883   1.317  0.0236 -0.0641  0.0865
12852W        W28986  17.103   5.953   4.896  0.1890 -0.2818 -0.1582
12853W        W28987   7.393  17.452  15.188 -0.2352 -0.1010  0.0882
12854W        W28988   9.722  13.261  13.729  0.1286  0.0830 -0.0783
12855W        W28989  14.800   1.543  10.980  0.1670  0.0621 -0.0175
12856W        W28990   8.195   7.104   5.298 -0.1017 -0.0576  0.0499
12857W        W28991   1.211   7.362  12.214 -0.2321 -0.1763  0.0706
12858W        W28992   5.622  14.278  13.526  0.0668 -0.1114  0.2245
12859W        W28993  18.805  16.100  10.664 -0.2199  0.1575  0.1573
12860W        W28994   1.106   5.726   4.173  0.0445 -0.1513  0.1965
12861W        W28995   3.662  13.850   4.425 -0.5383 -0.1754  0.3272
12862W        W28996  18.870  17.164   2.518 -0.0516 -0.1074 -0.3177
12863W        W28997   1.327   4.956   1.657 -0.0201 -0.0593  0.0060
12864W        W28998  17.276   3.247  14.071 -0.1214  0.0382  0.0694
12865W        W28999   2.496   9.430   3.053 -0.1529  0.1342  0.0422
12866W        W29000  18.309  17.231   2.574 -0.1890  0.1516  0.3579
12867W        W29001   7.026   0.193   0.248 -0.1772 -0.2193 -0.1192
12868W        W29002   4.223  16.989  12.537  0.0024 -0.0940  0.3605
12869W        W29003   7.356  16.476  14.813  0.2356 -0.3208  0.1002
12870W        W29004   3.263   4.222   5.175  0.1445  0.1013  0.1101
12871W        W29005  18.008  18.363   1.576 -0.0360  0.3009  0.0677
12872W        W29006  14.035  12.671   3.707 -0.0484  0.1033 -0.2757
12873W        W29007  12.432  18.513  10.502 -0.3737  0.0771 -0.0537
12874W        W29008   9.963  17.528  10.804  0.1804 -0.2140  0.0197
12875W        W29009  16.531   8.979  14.401 -0.3655  0.1124 -0.0830
12876W        W29010   6.762   9.253   3.040  0.0652  0.1898  0.3684
12877W        W29011   1.219  12.787  10.874  0.1320  0.0325  0.1629
12878W        W29012  11.026  14.892   2.310  0.0596  0.0062  0.0926
12879W        W29013   4.693   8.539   4.441 -0.2385 -0.3515 -0.0451
12880W        W29014   5.207  15.660  13.067  0.2610  0.0275  0.0277
12881W        W29015   6.175   7.668  11.226  0.0189  0.0389 -0.1213
12882W        W29016   0.750  17.509   2.428  0.0922  0.0759 -0.2704
12883W        W29017  12.087  12.313   1.999 -0.0223 -0.1367 -0.1183
12884W        W29018   1.688  13.827  11.843 -0.1358 -0.2868 -0.1179
12885W        W29019   5.122  15.005   0.950  0.0646 -0.0058  0.0845
12886W        W29020   4.524   0.739   0.177 -0.2428 -0.2703  0.0831
12887W        W29021   2.725  11.896   1.647 -0.0664 -0.1337 -0.2321
12888W        W29022   8.098   3.597  14.348  0.2125  0.0194 -0.4668
12889W        W29023   2.649  11.540   9.523  0.3324 -0.1775  0.3747
12890W        W29024   9.430   1.921  11.954 -0.0597  0.0527 -0.0287
12891W        W29025  15.222  14.632  15.092  0.1164 -0.2094 -0.2329
12892W        W29026  19.101   8.589  10.184  0.0101  0.2151  0.1359
12893W        W29027   5.980   2.769   9.374  0.3044 -0.2066  0.0334
12894W        W29028  11.186  14.459   4.687  0.1809  0.1726 -0.0178
12895W        W29029   3.802  11.240   2.785 -0.2093  0.0702  0.2599
12896W        W29030  16.873  12.830   3.037  0.0094  0.0055 -0.0808
12897W        W29031   1.347   1.295   1.471 -0.5314 -0.0355  0.0464
12898W        W29032   1.214   7.714  10.505 -0.2423  0.1731  0.0138
12899W        W29033   1.225   4.489   1.438 -0.0268 -0.0938 -0.5399
12900W        W29034  17.253  18.731   2.575 -0.1314  0.0333  0.0693
12901W        W29035   2.210  14.985  13.621 -0.0939 -0.1331  0.0667
12902W        W29036  17.671   0.469  12.340 -0.1259  0.0616  0.1506
12903W        W29037  16.821   4.855  14.664 -0.0327  0.0245 -0.0373
12904W        W29038   8.102  11.417   0.891  0.1656  0.0797  0.0573
12905W        W29039   1.709  14.182  14.053 -0.0608 -0.1480  0.0611
12906W        W29040   1.728  16.311   4.794 -0.0450 -0.0610  0.1668
12907W        W29041   1.982   8.193  10.563 -0.0813  0.0132 -0.0884
12908W        W29042   8.968   6.631   2.608  0.2480  0.1754 -0.0668
12909W        W29043  12.705   5.565  12.008  0.2482  0.0774  0.2197
12910W        W29044  11.498  16.834   1.401  0.0814  0.2604 -0.0221
12911W        W29045  10.209   6.023  11.023 -0.1374  0.1333 -0.0699
12912W        W29046   3.075   1.388   0.300  0.2793 -0.0469 -0.0635
12913W        W29047  13.258  14.905   5.537  0.0923  0.2641  0.0330
12914W        W29048  12.560  12.170   2.120 -0.0908  0.1095  0.2302
12915W        W29049  11.551   5.551   0.914 -0.1552 -0.0071 -0.3063
12916W        W29050  11.990  18.540  11.103 -0.0435  0.1449  0.0088
12917W        W29051  16.433   0.979  13.664 -0.0067 -0.2103  0.2487
12918W        W29052  14.456   4.222   2.680 -0.2985 -0.0132 -0.0910
12919W        W29053  16.952   3.845  14.478 -0.0930 -0.3684  0.1856
12920W        W29054   1.467  13.770  13.709 -0.0027  0.0572  0.0668
12921W        W29055   4.935  14.354  14.594  0.0412  0.1939  0.2818
12922W        W29056  15.264  16.010  10.867 -0.0560  0.0081  0.2972
12923W        W29057   9.590  17.910  14.231  0.1420 -0.0332 -0.0409
12924W        W29058  17.124  13.491   2.483 -0.0502 -0.1248 -0.1705
12925W        W29059  11.950   4.609  11.076  0.0259  0.0664  0.1139
12926W        W29060  18.672   3.671   1.859  0.3221  0.0546  0.0246
12927W        W29061  17.104  17.371   2.954 -0.3988 -0.0460 -0.0828
12928W        W29062   6.475   2.272  11.051  0.3336  0.1360  0.2688
12929W        W29063  17.080  17.231   1.267 -0.0329 -0.1348  0.0444
12930W        W29064  17.162   8.319   0.489  0.1297  0.0241 -0.0756
12931W        W29065  15.256   8.409   4.463 -0.2051 -0.0498  0.0260
12932W        W29066  18.944   0.258   2.131 -0.1831  0.2307  0.5261
12933W        W29067  10.267   3.584   2.906  0.2573 -0.5366  0.0532
12934W        W29068  11.935  18.409  13.491 -0.1343 -0.2608  0.0418
12935W        W29069   6.781  11.101   1.459 -0.3912 -0.3011 -0.1319
12936W        W29070  10.580   1.799  13.650 -0.1496 -0.0605 -0.0192
12937W        W29071   7.270   9.669   6.155 -0.0916  0.2497 -0.0051
12938W        W29072  15.243   1.769  13.416 -0.2223 -0.2349  0.1777
12939W        W29073  17.371   7.513  12.713 -0.0659 -0.1708  0.0736
12940W        W29074  12.703  16.331   0.487 -0.0464  0.2305 -0.4762
12941W        W29075  13.559  15.864  12.343 -0.2024 -0.0527  0.3862
12942W        W29076   4.587   0.632  13.301 -0.4075  0.1329  0.0678
12943W        W29077   4.840  15.128  10.856 -0.0116 -0.1131  0.0641
12944W        W29078   2.408  18.615  14.487  0.1978  0.1844 -0.1690
12945W        W29079   5.399   2.921   4.144 -0.0445 -0.0282  0.1431
12946W        W29080   4.068   5.666  10.817  0.4388  0.1628 -0.0104
12947W        W29081  19.016  12.463  14.757  0.1971  0.2238 -0.1369
12948W        W29082  16.774   0.372   3.161 -0.0232 -0.0302 -0.1245
12949W        W29083   2.382  15.424  13.336  0.1092  0.0141  0.1243
12950W        W29084   5.172  15.310   2.816 -0.1251  0.0595  0.2523
12951W        W29085  10.143   4.167  11.360  0.0571 -0.1090  0.1067
12952W        W29086   3.973   4.743   0.838 -0.2470  0.0220  0.1175
12953W        W29087  16.946  15.390  12.682  0.0397 -0.3728 -0.4419
12954W        W29088  10.607   0.886   4.773  0.1121 -0.3220  0.2195
12955W        W29089   0.923   5.695  11.812  0.4011  0.0172 -0.0951
12956W        W29090  10.938   9.455  11.890 -0.3778  0.0667  0.1340
12957W        W29091  15.951   4.134   2.082 -0.1230 -0.2938 -0.1746
12958W        W29092  10.571   6.637   4.229  0.0294 -0.0640 -0.1150
12959W        W29093   7.275  16.700  13.011  0.0218 -0.2444 -0.1622
12960W        W29094   3.704  13.978   3.051 -0.1435 -0.1388 -0.0393
12961W        W29095   6.211   2.303   0.346 -0.0648  0.1044 -0.0430
12962W        W29096  12.267  12.811   5.412  0.2131  0.2085 -0.0764
12963W        W29097  14.219  13.692  15.176 -0.0281 -0.1261 -0.0389
12964W        W29098  10.049   7.313   0.844  0.4306  0.2512  0.0708
12965W        W29099   2.343  17.238  14.555  0.0070 -0.1485 -0.3113
12966W        W29100   7.853  16.797   0.888 -0.1418 -0.0701  0.0326
12967W        W29101   5.480   7.281  13.326  0.0037  0.4159  0.3999
12968W        W29102   4.665   1.627   1.896  0.0262  0.1426  0.2739
12969W        W29103   2.813  16.633   3.239 -0.1032 -0.2980 -0.1304
12970W        W29104   6.519  16.464  10.486 -0.2768  0.0156  0.1539
12971W        W29105  17.906  16.490   2.179  0.2392  0.1365 -0.1869
12972W        W29106   9.833  11.619   0.694 -0.2309 -0.0462  0.3819
12973W        W29107  16.613   6.382   9.688 -0.3014  0.2663  0.3686
12974W        W29108  13.789  12.615   0.961 -0.2490 -0.0974 -0.1390
12975W        W29109  14.265  15.286   0.840  0.3399  0.3009 -0.0034
12976W        W29110   8.145   4.891  11.682  0.1843 -0.2672  0.0686
12977W        W29111   7.750   4.442  14.778 -0.1568 -0.0033  0.1089
12978W        W29112  18.744  10.135   1.668 -0.2379  0.5040 -0.1046
12979W        W29113   8.036   9.200  14.965 -0.0460  0.1916  0.1643
12980W        W29114  13.287   6.287   0.501  0.0649 -0.2940  0.1228
12981W        W29115  10.107   2.514   1.293  0.4065 -0.0398  0.3228
12982W        W29116   6.949   6.546  11.857 -0.1478 -0.1841 -0.4543
12983W        W29117   9.936  13.703   1.820  0.2211  0.0103  0.3249
12984W        W29118   4.404  13.121  12.186  0.1079 -0.1914  0.0785
12985W        W29119   1.155  10.387  14.193  0.1129 -0.1516 -0.1132
12986W        W29120   7.675   6.657  13.138  0.0244  0.1883 -0.2143
12987W        W29121   3.023  19.040  12.862  0.1404 -0.0209  0.3109
12988W        W29122  16.536  19.105  10.550  0.1273 -0.2310 -0.3583
12989W        W29123  11.825  12.734  13.067 -0.3288  0.1271  0.0677
12990W        W29124   7.964   9.999  13.070 -0.1840  0.0244  0.0905
12991W        W29125   2.188  16.988   1.194 -0.0664 -0.0866 -0.1504
12992W        W29126   7.441  18.147  11.964  0.2744 -0.0052  0.1100
12993W        W29127  14.947   3.505   1.318  0.1481  0.0628 -0.0867
12994W        W29128  10.935  17.936  10.471 -0.0631  0.1902 -0.2330
12995W        W29129  18.395   0.771  11.923 -0.0796 -0.1020  0.0558
12996W        W29130   6.006  16.529   3.453 -0.1379  0.0006  0.2611
12997W        W29131  10.547  12.891   1.745 -0.0822  0.0246  0.0377
12998W        W29132   0.238  12.353  15.051 -0.0967 -0.1325  0.0233
12999W        W29133  10.634  13.698   1.037 -0.0509  0.1310  0.2294
13000W        W29134  10.315  15.100  10.329 -0.1045 -0.0515 -0.2746
13001W        W29135   0.297  12.557   4.589  0.1460 -0.2214 -0.0278
13002W        W29136  14.874   7.803   0.029 -0.1247 -0.1702 -0.0653
13003W        W29137  16.634  11.255   4.164 -0.0774 -0.0513  0.1652
13004W        W29138   3.921  17.286  12.775  0.0717 -0.4633 -0.0206
13005W        W29139  14.128  11.933   4.507 -0.2642  0.1384  0.0177
13006W        W29140   1.326   4.393  12.430  0.1603 -0.0397 -0.0431
13007W        W29141   0.015   7.245  14.298 -0.2552 -0.0589  0.2497
13008W        W29142  15.220   0.054   2.625  0.0448  0.2712  0.0151
13009W        W29143  15.354   0.593  11.777  0.0527 -0.1591 -0.1522
13010W        W29144   6.234   1.874  13.454  0.0543 -0.1350 -0.1884
13011W        W29145  10.981   4.149  10.930 -0.2528 -0.2098  0.2181
13012W        W29146   7.618   8.299  11.069  0.0283 -0.1525  0.3878
13013W        W29147  10.983   0.550   5.041 -0.0971 -0.1219  0.1180
13014W        W29148   3.515  11.896   0.809  0.1852  0.0233  0.2441
13015W        W29149  13.024  14.762   3.900  0.1651 -0.0210 -0.1255
13016W        W29150  10.139   8.978  11.345  0.1501 -0.3990  0.2090
13017W        W29151  10.110  10.130  15.094  0.0679 -0.1642  0.0859
13018W        W29152  14.297  12.955   4.545 -0.0520 -0.4011 -0.0297
13019W        W29153   9.191  12.624   1.829  0.0283  0.0813  0.2160
13020W        W29154   5.724  11.215   1.570  0.0118 -0.1694 -0.2129
13021W        W29155  14.179   1.154  15.170  0.1089  0.3751 -0.1144
13022W        W29156  15.952   3.632  11.403  0.1421 -0.1607  0.0363
13023W        W29157   7.738   0.316   3.558  0.0382  0.0312 -0.0013
13024W        W29158  14.291   7.691  12.627 -0.2507 -0.0024 -0.0272
13025W        W29159   3.990   9.648   4.968  0.1658  0.0153 -0.0934
13026W        W29160  13.918   3.600   4.510 -0.0312 -0.0302 -0.0109
13027W        W29161  11.734   9.520  10.904 -0.2734 -0.1153  0.1737
13028W        W29162  14.058  15.110  11.869  0.2374 -0.1258  0.1033
13029W        W29163   6.786   5.990   4.964  0.0523 -0.0257  0.0698
13030W        W29164   1.154  17.315   0.910  0.0944 -0.2609  0.0035
13031W        W29165  14.764  10.851  12.292 -0.4248 -0.1383  0.0435
13032W        W29166   9.371  13.632  12.018  0.0565  0.1284 -0.0000
13033W        W29167   8.381  18.694   2.578  0.4672 -0.0637  0.0948
13034W        W29168   6.739   1.479  10.835  0.0048  0.2441 -0.0578
13035W        W29169  12.141   7.041   2.347  0.4280 -0.2466  0.0980
13036W        W29170  16.654   9.086  11.108  0.2080  0.1605 -0.2217
13037W        W29171   8.907   7.657  13.739  0.0881  0.2269 -0.0768
13038W        W29172   3.424   1.168   2.514  0.0294  0.1503  0.1231
13039W        W29173  17.784   7.838  10.309  0.2966 -0.0809 -0.0669
13040W        W29174   5.342  15.926   0.006 -0.0223 -0.0992  0.0684
13041W        W29175   9.395  13.025  14.075 -0.1183 -0.2471 -0.2166
13042W        W29176   6.505   9.690   3.746 -0.1393 -0.1998 -0.2540
13043W        W29177  11.020   2.529  13.116  0.3129  0.0451 -0.1751
13044W        W29178   4.873  10.772   0.452 -0.4081  0.1918 -0.2024
13045W        W29179   9.878   3.707  10.695  0.0381  0.4516  0.1070
13046W        W29180   4.348   5.944  11.089 -0.0797  0.1898  0.0505
13047W        W29181  16.787  10.787   1.014 -0.3003  0.0955 -0.2137
13048W        W29182  17.742  14.668   0.533 -0.1250 -0.0510  0.1862
13049W        W29183  17.725  13.419   4.232  0.2035 -0.2624  0.2112
13050W        W29184  11.608  16.856  11.913  0.1491 -0.0633  0.0848
13051W        W29185  10.993  11.356   1.502 -0.0730  0.3144 -0.0618
13052W        W29186   0.637  14.055   4.394 -0.3252  0.2894  0.0097
13053W        W29187  10.572   4.325   5.095  0.0734 -0.0896 -0.1026
13054W        W29188  14.365   7.073   5.272 -0.4017  0.0377 -0.3001
13055W        W29189   3.683  17.442   2.738 -0.1417  0.2452  0.1609
13056W        W29190  13.042   8.942  10.548 -0.1480 -0.1091 -0.1450
13057W        W29191  12.340   0.255   0.245  0.1849  0.4576 -0.1360
13058W        W29192   8.467   8.800  12.258 -0.0886  0.2018 -0.3943
13059W        W29193   6.897   8.353  14.574 -0.1326 -0.3275  0.0397
13060W        W29194  16.823  10.072   2.446 -0.1109 -0.0506  0.0885
13061W        W29195  10.507   9.323  14.664  0.1640  0.3453  0.0409
13062W        W29196   1.762  16.821   3.163 -0.1863  0.0058 -0.0794
13063W        W29197  18.826   8.462  11.685 -0.0293 -0.3362 -0.0523
13064W        W29198  12.432   1.322   4.268  0.0918  0.1190 -0.4081
13065W        W29199  11.602   8.717   0.693  0.2057 -0.1869 -0.3611
13066W        W29200   4.405  11.507  11.543  0.2731  0.0607  0.0006
13067W        W29201   2.623   1.476  11.361 -0.0370 -0.2723 -0.0790
13068W        W29202  12.687  12.077   3.219 -0.1758 -0.0499 -0.0315
13069W        W29203  12.964   7.735   0.087  0.0910  0.1779 -0.1206
13070W        W29204  14.517   4.024  10.767  0.2702 -0.2283 -0.0834
13071W        W29205  17.820   0.838  10.640  0.3215 -0.2987 -0.0374
13072W        W29206   7.582   5.580  12.743 -0.1110 -0.2722 -0.0307
13073W        W29207   3.091   6.731   0.249 -0.1653 -0.2369 -0.0185
13074W        W29208   5.106  12.197   1.229 -0.1652  0.5217 -0.4406
13075W        W29209  17.102   5.727  12.522 -0.0331 -0.0177  0.1776
13076W        W29210   6.761   9.409  12.750 -0.0096 -0.0765  0.0721
13077W        W29211   4.512  13.390  14.014 -0.0879  0.0287  0.0455
13078W        W29212   1.512   0.269   0.103  0.0013 -0.0201  0.1177
13079W        W29213   7.442   0.297   4.389 -0.0214 -0.0581 -0.0839
13080W        W29214  17.344   7.628   2.768  0.0825  0.1771 -0.2233
13081W        W29215   6.512   7.020  12.860 -0.3065 -0.4721  0.0560
13082W        W29216  17.140   1.289   5.087  0.1562 -0.1316 -0.1979
13083W        W29217   7.515   4.868   0.042 -0.3438 -0.0297  0.1287
13084W        W29218   7.754  11.589  15.053  0.0205  0.2518  0.0588
13085W        W29219   0.693   1.457  10.809  0.3281 -0.2700 -0.1180
13086W        W29220  10.988   1.669   0.313  0.1665 -0.0131  0.3206
13087W        W29221  16.028  17.518   3.828 -0.1074  0.0218 -0.0440
13088W        W29222   1.818  13.682  12.681 -0.0662 -0.0909 -0.1551
13089W        W29223  16.122   5.301  10.644  0.0300 -0.0420  0.0332
13090W        W29224  12.658   4.577   5.024  0.1881  0.1486  0.0385
13091W        W29225  15.470  13.112  11.575  0.1404  0.0581  0.0167
13092W        W29226   8.407   8.995   2.082  0.0257 -0.1550 -0.3581
13093W        W29227   5.442   7.111  12.115 -0.0961  0.0463  0.0182
13094W        W29228  15.575   7.727   1.490 -0.0700 -0.2343 -0.1611
13095W        W29229  15.666  15.290  14.527  0.1761  0.0378 -0.2481
13096W        W29230   5.677   5.153   3.639 -0.1232 -0.0205 -0.0371
13097W        W29231   4.162   3.388   2.149 -0.1173  0.3826 -0.1503
13098W        W29232   9.337  15.728   5.333  0.2217  0.2517  0.3253
13099W        W29233  18.634   4.684   1.706 -0.0054  0.0702 -0.1004
13100W        W29234  10.015   8.669   2.866  0.0974 -0.0825  0.0496
13101W        W29235   8.872  14.666   4.763 -0.2007  0.2053 -0.0587
13102W        W29236  17.614  15.614  13.565  0.3283  0.1237 -0.0979
13103W        W29237  16.805  17.414  13.135 -0.0554 -0.0220  0.1964
13104W        W29238   0.353   7.343   3.741 -0.2860  0.3144 -0.0869
13105W        W29239   3.764  10.606  13.717 -0.0017 -0.0595 -0.1282
13106W        W29240  13.074  12.162   2.235 -0.1157  0.0173  0.0612
13107W        W29241  16.290  17.110   3.899 -0.2348 -0.0486  0.1932
13108W        W29242   2.059  14.574   0.577  0.0678  0.0891 -0.2287
13109W        W29243  18.968  13.285   2.577 -0.0896  0.3496 -0.3699
13110W        W29244  15.212  12.480  14.267  0.1652  0.3662 -0.0350
13111W        W29245   7.247   2.437   9.867  0.5155  0.0013 -0.4289
13112W        W29246  18.259   0.535  14.706  0.1100  0.0535  0.2532
13113W        W29247   3.742  17.369   4.449 -0.0578 -0.4858 -0.1908
13114W        W29248   6.645  16.957  10.583 -0.0950  0.6614 -0.0275
13115W        W29249   5.242  10.482  15.167 -0.0493 -0.3222  0.1427
13116W        W29250   1.172  15.320   0.783 -0.2243 -0.3503 -0.0568
13117W        W29251   5.777  13.129  13.770 -0.3417 -0.0285 -0.1088
13118W        W29252  16.660  10.268  10.352  0.0635 -0.2054 -0.0202
13119W        W29253   6.558   5.188   2.097 -0.3675  0.1385  0.0489
13120W        W29254   5.703   5.446  12.416  0.3052  0.5244  0.8012
13121W        W29255   1.081  11.121   9.949  0.2167  0.0629 -0.0518
13122W        W29256   7.414   7.191   4.804  0.0824  0.4551 -0.4590
13123W        W29257   5.920   8.160  11.300 -0.1816  0.0590 -0.0433
13124W        W29258   7.672   8.240  12.495 -0.1287  0.1829  0.4450
13125W        W29259   7.690   4.707  11.716 -0.2063 -0.2780  0.0083
13126W        W29260  11.018  17.981  12.582 -0.2121 -0.3500  0.0637
13127W        W29261   0.532  18.002  13.727 -0.0127 -0.1218 -0.0256
13128W        W29262   2.506  17.699   1.589  0.1753 -0.0954  0.3088
13129W        W29263  18.826   2.814   4.383 -0.0408 -0.0866  0.3013
13130W        W29264   7.225   3.597  12.259 -0.2907 -0.0109 -0.2875
13131W        W29265  10.498   8.653   4.653  0.1493 -0.2123  0.3862
13132W        W29266   0.256   3.391  13.915 -0.0017 -0.0826  0.1069
13133W        W29267   0.728   7.815   1.917  0.2679  0.1602 -0.0288
13134W        W29268   7.289   7.502   2.687 -0.0805  0.2018 -0.3746
13135W        W29269  11.706  15.726   2.705 -0.0345 -0.1575  0.0424
13136W        W29270  16.288   5.021  10.275  0.0234  0.1369 -0.2052
13137W        W29271  17.649  11.468  14.362  0.4636 -0.0024  0.0339
13138W        W29272   2.128   2.171   2.115 -0.0189  0.2334 -0.1469
13139W        W29273  15.131  15.129   5.163 -0.3402  0.0491 -0.0358
13140W        W29274  10.221   5.668   0.162 -0.1082 -0.1571  0.3063
13141W        W29275   6.846  12.404   3.277 -0.1922  0.1510 -0.3010
13142W        W29276  10.750  11.441  13.571 -0.1776 -0.2338  0.0375
13143W        W29277   2.142   0.368   4.547  0.0144  0.0175  0.0741
13144W        W29278   4.439   0.836   1.840 -0.1165  0.2158 -0.1926
13145W        W29279  16.833   2.125   5.494  0.1502  0.1545 -0.3642
13146W        W29280   7.134   4.634   1.083  0.1430  0.2384 -0.2320
13147W        W29281  10.859  15.368   2.433 -0.0489 -0.4333  0.0931
13148W        W29282   9.717  16.482  12.946 -0.1213  0.3600  0.1707
13149W        W29283  19.015   4.746  13.486  0.0235  0.0713  0.1469
13150W        W29284  15.979  13.448  14.883  0.1405 -0.2519 -0.0980
13151W        W29285   8.944  14.969   3.442 -0.3059  0.1676  0.1436
13152W        W29286  15.377   3.927  14.002 -0.0411 -0.3445 -0.0687
13153W        W29287   1.962   7.876   2.606  0.1130  0.0405 -0.3118
13154W        W29288  18.096  14.563   1.559 -0.0965  0.0839  0.1639
13155W        W29289   2.910   7.159  14.371 -0.1323  0.0883  0.0654
13156W        W29290  10.927   4.407  12.071  0.2540  0.1234 -0.0717
13157W        W29291   4.412   3.432  10.571 -0.0695  0.0719 -0.0939
13158W        W29292  16.609  17.398   0.060  0.0866 -0.1772  0.0935
13159W        W29293   6.200  13.152   4.963  0.3185 -0.0929  0.2165
13160W        W29294  12.216  12.483  12.085  0.0602  0.6596 -0.0209
13161W        W29295   1.788  18.002   2.686 -0.0303 -0.0997  0.0017
13162W        W29296  18.773   7.253  13.122  0.3840  0.1180 -0.0282
13163W        W29297   1.110   0.313   2.687  0.1778 -0.0390 -0.2513
13164W        W29298   5.089   2.765   4.526  0.1515  0.0709  0.2355
13165W        W29299   4.832   7.941  11.221 -0.1724 -0.0099 -0.5725
13166W        W29300   7.126  17.393   2.254 -0.3755 -0.0907  0.1991
13167W        W29301   1.682  18.121  11.282  0.0504 -0.0769  0.1802
13168W        W29302   6.397   1.278  14.901  0.1920  0.0869  0.0960
13169W        W29303  17.667   1.609   1.755 -0.0145 -0.2741  0.0339
13170W        W29304  13.455   7.449   1.888 -0.1124  0.1922  0.1162
13171W        W29305   4.372   0.445  12.827  0.2439  0.0721 -0.2317
13172W        W29306  10.424   3.037  11.776 -0.3134 -0.0396  0.2559
13173W        W29307   8.690   9.632   5.431 -0.2579 -0.0990  0.0131
13174W        W29308  18.724   7.538  15.038 -0.2230 -0.0110 -0.1133
13175W        W29309   8.093  13.117  13.115 -0.0150 -0.0883  0.0704
13176W        W29310  18.445  13.961  13.114 -0.0550 -0.1724 -0.1048
13177W        W29311   9.499   3.570  14.626  0.0220  0.0927  0.2153
13178W        W29312  19.086   6.565   4.271 -0.3182 -0.1434 -0.0901
13179W        W29313   6.409  15.643   4.013  0.0475  0.1604  0.2774
13180W        W29314   5.053   7.191  12.623 -0.3681  0.1395 -0.3008
13181W        W29315  10.004  19.138  14.363 -0.1065 -0.5806 -0.1169
13182W        W29316   8.872  18.958   3.221 -0.0626  0.0112  0.1521
13183W        W29317  17.685  10.074  10.922 -0.0593 -0.5147 -0.0994
13184W        W29318   9.806   9.353  11.369 -0.1711 -0.0675  0.2435
13185W        W29319   1.921   1.208  13.696 -0.2295 -0.0857  0.0782
13186W        W29320  17.244  17.575   5.337  0.2270  0.2597  0.1154
13187W        W29321   2.162  12.197  10.457  0.0777 -0.0009  0.0847
13188W        W29322  12.914   9.636   2.878  0.1295 -0.1949 -0.1561
13189W        W29323   5.320   7.392   3.350 -0.1530 -0.2251 -0.0289
13190W        W29324   5.249   9.203   0.545  0.0140  0.0005 -0.1447
13191W        W29325  18.239  18.406   0.614 -0.0242  0.2620  0.1507
13192W        W29326  12.616  10.065   4.744 -0.3746  0.0753  0.0247
13193W        W29327  12.018  12.310  11.127  0.1177  0.0629 -0.1242
13194W        W29328  18.281   5.379  15.095 -0.0576 -0.0242  0.2408
13195W        W29329  11.788   8.520  11.616 -0.0602  0.2594  0.1889
13196W        W29330  17.225   0.678   4.299 -0.0355 -0.1280  0.3772
13197W        W29331  18.905   1.996   4.199 -0.2427  0.0124  0.0381
13198W        W29332   0.999   0.448  11.131 -0.1422 -0.2571 -0.2156
13199W        W29333   8.081  14.162  10.058 -0.0773  0.0333  0.1569
13200W        W29334   5.316  10.092   4.514  0.3382  0.1279 -0.0359
13201W        W29335  12.349   6.153   5.007 -0.0420 -0.2224 -0.0294
13202W        W29336   0.189  18.819   4.863 -0.1912 -0.0275  0.1214
13203W        W29337  10.870  17.214  12.965 -0.2867  0.0181 -0.2593
13204W        W29338   6.689   2.998   2.020  0.1829 -0.1800 -0.6906
13205W        W29339  12.719  14.408  12.287 -0.0294  0.0026 -0.0226
13206W        W29340  11.938  17.134   3.397  0.0986 -0.1293 -0.2351
13207W        W29341  17.048  18.699   2.106  0.0962  0.0893 -0.0082
13208W        W29342   3.720   8.081   9.964 -0.3520 -0.0216  0.0840
13209W        W29343  16.380  18.271  11.241  0.2855  0.1842 -0.2336
13210W        W29344   8.757  14.715  13.548  0.0721 -0.1733 -0.1105
13211W        W29345  11.754   0.439   3.325 -0.0212  0.7387  0.0459
13212W        W29346   3.092  16.282  13.347 -0.0971 -0.1732 -0.2372
13213W        W29347   1.886  14.567   4.092 -0.1035 -0.1701 -0.1634
13214W        W29348   4.392   2.336  11.341 -0.1060  0.0167 -0.2147
13215W        W29349   4.067   4.737   3.655 -0.0579 -0.2872 -0.0372
13216W        W29350   1.814  15.050   0.419  0.4343  0.0326  0.3175
13217W        W29351  12.836   2.599  12.157  0.3111 -0.1284 -0.0551
13218W        W29352   4.380   5.428   2.878  0.1358  0.2904  0.2432
13219W        W29353  14.549  14.349   2.568 -0.3012 -0.1638 -0.4351
13220W        W29354  14.013   9.461  13.939  0.0419  0.0018 -0.0562
13221W        W29355   6.003   8.675  11.437  0.1014 -0.2462  0.0210
13222W        W29356  16.044   4.087   3.826 -0.3014 -0.2308 -0.0726
13223W        W29357   7.203  13.285   4.552 -0.0538  0.0511 -0.0135
13224W        W29358   6.263  18.937   2.973 -0.0149  0.3608 -0.0203
13225W        W29359   2.302   9.301  14.997  0.1166 -0.0886 -0.0604
13226W        W29360  15.516  15.851   3.758 -0.0971 -0.0172 -0.2484
13227W        W29361   1.328  15.080   4.937  0.2513  0.1591  0.2687
13228W        W29362  10.484  17.043  10.489  0.1421  0.0052 -0.1157
13229W        W29363  10.457  16.995  13.179 -0.6906  0.0132  0.0771
13230W        W29364   9.428   3.389   3.658 -0.2019  0.0151  0.1045
13231W        W29365   3.580  15.970   4.235  0.0543  0.1453 -0.1331
13232W        W29366   4.088   8.209  13.488  0.3139 -0.2163 -0.3644
13233W        W29367  13.754   6.539   5.096  0.0923  0.3720 -0.0132
13234W        W29368   8.389   3.890   1.856 -0.2505 -0.3770  0.3078
13235W        W29369  16.815  13.169  11.303 -0.2628  0.1130  0.0133
13236W        W29370   7.030   2.480   3.143  0.2944 -0.1221  0.1817
13237W        W29371   8.278  10.894   3.335  0.0035  0.1452  0.0284
13238W        W29372   5.338   8.797  12.170  0.0388  0.0606  0.2674
13239W        W29373   0.143  15.599  11.159 -0.1276  0.0823  0.0496
13240W        W29374  12.749   1.260  13.609  0.1220 -0.0785 -0.2538
13241W        W29375   0.044   4.037  11.672  0.1002 -0.2170 -0.0364
13242W        W29376   9.840   8.337  11.349  0.2072  0.2904 -0.1611
13243W        W29377   0.677  13.594   4.175  0.0182 -0.1807  0.1057
13244W        W29378   5.915  13.657   4.979  0.3057 -0.1523 -0.0062
13245W        W29379  13.799  12.811  11.309 -0.0764  0.0141 -0.3256
13246W        W29380   9.526   3.627   1.512  0.0899  0.1246 -0.0818
13247W        W29381   5.025   6.708  10.287  0.0021  0.3925 -0.0468
13248W        W29382  16.242   7.090   4.338  0.0823 -0.0982  0.1045
13249W        W29383   0.926   4.917   1.351 -0.3107  0.0388 -0.1298
13250W        W29384  15.128   4.212  11.247 -0.0009  0.0139  0.0990
13251W        W29385   8.191   7.993  13.263 -0.2846  0.0332 -0.4047
13252W        W29386  12.471   4.026   1.587  0.0985  0.0069 -0.2556
13253W        W29387   4.212  14.224   0.388 -0.3643  0.4643 -0.1665
13254W        W29388  13.289  14.244   3.742  0.4401 -0.1237 -0.1270
13255W        W29389   5.296   2.884   1.352  0.1157 -0.0776 -0.0637
13256W        W29390   0.466   3.251  13.444 -0.0845 -0.0135  0.3219
13257W        W29391  11.108  16.625   3.923 -0.0981 -0.0985  0.3658
13258W        W29392   6.772  16.143   3.128  0.1980  0.3279  0.0282
13259W        W29393   3.517   8.134   0.569  0.1760  0.2577 -0.1523
13260W        W29394   5.180   7.845  12.986  0.1351  0.5918  0.2463
13261W        W29395   5.035   0.391   2.304 -0.2117  0.0090  0.1173
13262W        W29396  12.650   5.133   1.354  0.1587 -0.0200 -0.0021
13263W        W29397   6.707   4.565  12.580  0.1177 -0.1324 -0.2306
13264W        W29398  12.990  10.463  12.659  0.0865  0.2878 -0.1026
13265W        W29399  12.280  10.122  12.603 -0.0431  0.1220  0.0924
13266W        W29400   8.398  12.443  14.882 -0.3010 -0.2479  0.5284
13267W        W29401   1.861   5.983   4.720  0.0482  0.2083  0.0968
13268W        W29402  17.812  17.429   2.497 -0.2870  0.1204 -0.0383
13269W        W29403   5.259   5.494  11.004  0.2827  0.3653  0.1946
13270W        W29404   7.807  15.360  12.805 -0.2415  0.0376  0.2081
13271W        W29405  17.916   5.040  13.861 -0.0343 -0.0455  0.2301
13272W        W29406  18.686  13.969   4.934  0.0003  0.0709  0.1364
13273W        W29407   6.269   0.719   1.041 -0.1818  0.1197 -0.4715
13274W        W29408  18.694  14.016   4.295 -0.0083  0.0693  0.0609
13275W        W29409  11.869  10.618  13.522  0.0904  0.3913 -0.0844
13276W        W29410   0.453   5.889   2.546 -0.4165  0.0371 -0.0716
13277W        W29411  16.495   3.208  11.743 -0.0254 -0.1110 -0.2101
13278W        W29412   7.283  10.953   5.428 -0.1533 -0.0853 -0.4117
13279W        W29413   4.980   5.938   0.081 -0.1649 -0.0518  0.2844
13280W        W29414  15.979  13.787   9.445  0.3726  0.0185 -0.0330
13281W        W29415   9.746   5.986  14.107  0.3021 -0.0821  0.2792
13282W        W29416   8.604  11.371   2.788 -0.0347 -0.1325  0.1207
13283W        W29417  10.040  12.423   4.404 -0.1070 -0.1428 -0.0031
13284W        W29418  16.882  16.039  15.119  0.1584 -0.1294 -0.1887
13285W        W29419   6.908   4.717   2.761  0.0157  0.0295  0.2170
13286W        W29420   8.844   1.508  12.997  0.1884 -0.5991  0.0600
13287W        W29421   6.751   3.972  11.118  0.0172  0.4044 -0.0650
13288W        W29422   7.773   7.241   0.572  0.0721  0.1477 -0.1830
13289W        W29423  17.251   2.448  12.330  0.0087 -0.0954 -0.0363
13290W        W29424   6.593  17.174   1.957 -0.3476 -0.0565 -0.1809
13291W        W29425  18.043   8.711   3.864 -0.1734  0.0699  0.0193
13292W        W29426  16.303  10.433  13.752  0.0904  0.1499 -0.0612
13293W        W29427   1.953   7.171   0.002 -0.0426 -0.2321  0.0574
13294W        W29428  11.305  15.606  13.823  0.5007  0.1362 -0.0224
13295W        W29429  13.845   8.394  13.124  0.0769  0.1662  0.1828
13296W        W29430   8.638  17.248  14.600  0.0470 -0.1055  0.0594
13297W        W29431  18.098  18.179  15.154  0.0742 -0.2489  0.1891
13298W        W29432  16.995  16.259   1.358  0.0629  0.2819 -0.3589
13299W        W29433  13.626  17.975   2.277 -0.2594  0.1282 -0.3530
13300W        W29434  12.724  14.419   3.644  0.0221 -0.1834 -0.0537
13301W        W29435  10.387  18.398  11.073 -0.0191 -0.1774 -0.0771
13302W        W29436  17.046   5.845  11.339 -0.0751  0.2023 -0.0692
13303W        W29437   8.638  16.118   3.382 -0.1473  0.2535 -0.1428
13304W        W29438   6.014   4.037  14.674  0.0388 -0.0652  0.2145
13305W        W29439  12.694   5.278  11.050  0.4309  0.3172 -0.0846
13306W        W29440  15.032   9.670   4.070 -0.0219 -0.0814  0.1991
13307W        W29441   8.301   1.537  12.887  0.0310  0.3863  0.1275
13308W        W29442   1.778   2.627  12.185 -0.3751 -0.0563 -0.2679
13309W        W29443   5.236   7.594   2.694 -0.5307  0.3664  0.1879
13310W        W29444   9.497  12.829   3.737  0.0176 -0.2181  0.1664
13311W        W29445  16.400  11.126   3.308 -0.2130 -0.0401  0.1849
13312W        W29446  16.419  18.623   2.229 -0.0127  0.0619 -0.1244
13313W        W29447   3.632  18.534   2.116  0.1203 -0.0036 -0.0047
13314W        W29448  15.204   9.953   0.034 -0.2679  0.1254 -0.0876
13315W        W29449  11.968  16.598   1.421  0.0124 -0.0374  0.1518
13316W        W29450  11.032   3.239   1.873  0.0222 -0.2803 -0.1547
13317W        W29451  16.310  13.593   4.580 -0.3372  0.0591 -0.0877
13318W        W29452   7.831  12.280  12.749 -0.2563 -0.0104  0.1481
13319W        W29453  10.850   1.938   2.759  0.1782 -0.2221  0.0593
13320W        W29454   3.137   2.391   3.082 -0.2857 -0.1338 -0.2617
13321W        W29455  10.740  13.346  10.736  0.0871 -0.0594  0.1740
13322W        W29456  10.360  10.729   6.175 -0.4542  0.4428 -0.1119
13323W        W29457  13.998   1.370   0.722 -0.0417 -0.0450  0.0803
13324W        W29458   8.712  18.919   9.999  0.2716  0.0937  0.0769
13325W        W29459  14.982   7.082   3.611 -0.1462 -0.1485 -0.3934
13326W        W29460  13.042   8.834   3.531 -0.0223  0.3148  0.2751
13327W        W29461  15.476  11.486  12.355 -0.1151 -0.2346  0.0764
13328W        W29462   2.036   6.939  10.143 -0.0037 -0.3589 -0.0198
13329W        W29463   6.275   4.697  14.878  0.4440  0.6281  0.1972
13330W        W29464  11.905  13.107   3.043  0.1156 -0.0951  0.3695
13331W        W29465  15.400   3.489  12.121  0.0758  0.2887 -0.0336
13332W        W29466  10.721  13.333   6.137  0.1704 -0.2308  0.0644
13333W        W29467   9.747  17.841  13.263  0.2448  0.0116  0.0735
13334W        W29468   0.123  13.940   0.636  0.2430  0.4863  0.0453
13335W        W29469  18.343  14.625  12.097  0.3348  0.3922 -0.0901
13336W        W29470  11.584  17.769  13.002  0.0420  0.0806  0.4892
13337W        W29471  14.832   9.211  10.951  0.2538 -0.0537  0.0169
13338W        W29472   4.037  13.275   0.695 -0.0010  0.1593  0.0319
13339W        W29473   0.104   3.050  11.910  0.0459 -0.0963 -0.5752
13340W        W29474   5.684  18.539   2.592  0.1867 -0.1795 -0.1179
13341W        W29475  16.272  15.197  12.121 -0.1401 -0.2174  0.2401
13342W        W29476   4.564  16.722   2.856 -0.4082  0.1941 -0.1562
13343W        W29477   5.875   4.764   1.720 -0.2844  0.1141 -0.1140
13344W        W29478   0.960   2.419  14.339 -0.1837 -0.2269 -0.0633
13345W        W29479   5.262   9.533   1.012  0.4956  0.0949 -0.3537
13346W        W29480   9.502   9.463   0.599 -0.0752  0.0009  0.0401
13347W        W29481   2.193  15.124  11.500 -0.1933  0.0483  0.0709
13348W        W29482  16.185  18.220   2.051  0.2318 -0.1366 -0.4858
13349W        W29483   8.761  12.796   1.000 -0.1060  0.2528  0.0394
13350W        W29484  19.003   3.953  11.205  0.2605  0.0541  0.1367
13351W        W29485  13.649   1.150  15.004  0.0965  0.0317  0.4508
13352W        W29486   3.330   1.165   3.921 -0.1607  0.1694  0.0245
13353W        W29487  13.917  14.416   3.803 -0.3293 -0.0094 -0.0436
13354W        W29488   7.699   3.697  14.054  0.2183  0.0317  0.0495
13355W        W29489  16.285  16.090   2.921 -0.0757  0.2702  0.2883
13356W        W29490   5.181   2.311  12.206 -0.1346 -0.0720 -0.0384
13357W        W29491  15.542  13.132  10.679  0.1205  0.0135 -0.2097
13358W        W29492   4.977   0.780  13.648 -0.1051  0.0397 -0.3246
13359W        W29493  18.001  17.953  10.677 -0.1614 -0.0849 -0.3027
13360W        W29494   4.405  15.425  11.939  0.1482 -0.0718 -0.1981
13361W        W29495   8.177  11.355   5.602  0.1112  0.2942 -0.3501
13362W        W29496   9.135  13.680   1.946  0.0793  0.2523 -0.1679
13363W        W29497   7.328  13.307  12.129  0.0962 -0.4422  0.0887
13364W        W29498   3.036   2.749  15.055  0.0306 -0.3498  0.1956
13365W        W29499  16.548  16.537  13.412 -0.0935  0.2272 -0.4194
13366W        W29500   1.303   9.944  12.988  0.3986 -0.0182  0.2887
13367W        W29501  10.784  16.142  14.950  0.0044  0.2268  0.0630
13368W        W29502  18.148  10.214   3.883 -0.0078 -0.1200  0.4584
13369W        W29503   4.065   9.129   4.832  0.1249 -0.2517 -0.1538
13370W        W29504   8.562  10.015   1.256  0.2845 -0.1360  0.3917
13371W        W29505  16.902   6.770   2.469 -0.1691  0.0890 -0.0836
13372W        W29506   2.277  10.221   1.371 -0.1028 -0.1141  0.1117
13373W        W29507   2.659  15.877  14.237 -0.0889  0.1737  0.1466
13374W        W29508  14.217  11.556  10.173 -0.1897 -0.1362 -0.0938
13375W        W29509   4.790   9.902  12.751 -0.0016  0.0545  0.0566
13376W        W29510   3.727  11.710  14.658 -0.0673  0.2700 -0.2282
13377W        W29511  13.212   3.841   0.034 -0.0533 -0.0793  0.1244
13378W        W29512  10.165  12.998  14.779  0.1846 -0.1738 -0.0494
13379W        W29513  12.599  11.823  10.544 -0.1614  0.0207  0.2390
13380W        W29514   2.520  15.162   4.222  0.1868  0.1428  0.2162
13381W        W29515  17.691   6.491  10.823 -0.2708  0.1655 -0.1436
13382W        W29516  17.790   6.193   2.323 -0.3384  0.0243  0.4739
13383W        W29517   6.113   1.980   3.206  0.0001 -0.2778  0.1616
13384W        W29518   2.308   9.680   1.301 -0.3241 -0.1116  0.0293
13385W        W29519  17.300   5.496  14.950  0.0427  0.1666  0.0249
13386W        W29520  12.097  15.274   1.926 -0.5681  0.0123 -0.0598
13387W        W29521  18.069  15.510   1.405  0.0944  0.0702 -0.1585
13388W        W29522   7.306  13.552   3.206 -0.1896 -0.0010  0.0054
13389W        W29523   0.725  17.058   3.594  0.0955  0.2046 -0.2055
13390W        W29524  12.480  15.095   4.890  0.1928 -0.0746  0.0313
13391W        W29525  18.937   0.333  13.113 -0.6201 -0.1306 -0.2601
13392W        W29526   4.570   7.894   1.534 -0.1833  0.0674 -0.3709
13393W        W29527   5.192   8.647   1.379 -0.1530  0.0254  0.3819
13394W        W29528   1.645   7.155  12.292 -0.1042 -0.3274  0.3425
13395W        W29529  14.262  15.754  12.978  0.3358 -0.0834 -0.1149
13396W        W29530  17.016  17.001   3.330 -0.1751  0.3098 -0.0447
13397W        W29531  16.542  10.018   4.626 -0.0596 -0.0235  0.1442
13398W        W29532  11.911   5.458  13.887  0.3849  0.2590 -0.3308
13399W        W29533   8.738   1.788   1.041  0.1154 -0.1173  0.2039
13400W        W29534  15.156   1.812   5.607 -0.0314  0.1934 -0.0986
13401W        W29535  10.940   5.657   2.530 -0.2665 -0.1537  0.2235
13402W        W29536   4.579  13.105   5.344  0.3803 -0.1887  0.2212
13403W        W29537  11.815   3.424   2.324  0.0458 -0.0411  0.1135
13404W        W29538   7.388   7.103  15.115 -0.0285  0.0753 -0.0362
13405W        W29539  17.614   9.082  13.138 -0.1251 -0.1075  0.1553
13406W        W29540  15.526  18.465   4.840 -0.0868 -0.1652 -0.1113
13407W        W29541  19.144   0.004  15.063 -0.2335 -0.0087  0.0383
13408W        W29542  18.803   6.110   1.069  0.0122  0.0334 -0.0764
13409W        W29543   3.594   4.657   5.780 -0.0194 -0.1017  0.3137
13410W        W29544   4.220   8.677  11.970 -0.0455 -0.1154  0.1900
13411W        W29545   4.868  16.027  11.439 -0.1112 -0.1863  0.1944
13412W        W29546  15.127   3.646  13.158 -0.0137  0.1156 -0.2604
13413W        W29547  10.966  16.681  13.112  0.0834  0.3056 -0.4869
13414W        W29548   6.441   9.586  14.053  0.3212  0.1116 -0.2518
13415W        W29549  13.274   4.576  14.963 -0.0714 -0.2262  0.1327
13416W        W29550  18.137   4.375   4.274  0.1779 -0.0365  0.0896
13417W        W29551  18.475  12.664  11.862 -0.2048  0.0792 -0.0419
13418W        W29552  17.056  17.122  11.383  0.1647 -0.1072 -0.0240
13419W        W29553   3.400  18.673  12.087 -0.1826 -0.1464 -0.0143
13420W        W29554  10.195  12.506  12.631  0.2384  0.0385  0.0948
13421W        W29555  13.573   9.085   0.813  0.4608  0.3763 -0.2288
13422W        W29556  12.774  11.423   5.965 -0.2207 -0.3450 -0.1201
13423W        W29557  14.007   9.680   2.422 -0.0850 -0.0509 -0.0948
13424W        W29558   4.028   4.141  12.278  0.2809  0.1986  0.1911
13425W        W29559   6.833   1.812  12.859  0.0553 -0.1520  0.2199
13426W        W29560   3.541  11.723  14.105  0.1240 -0.1933 -0.0083
13427W        W29561  10.377  10.978   0.191 -0.2386  0.1604 -0.3636
13428W        W29562  17.030   7.035  13.862  0.0051  0.0559  0.2784
13429W        W29563   8.470  10.907  10.897 -0.4440 -0.1957  0.0458
13430W        W29564  12.030   4.454   1.420 -0.3137 -0.1672 -0.0939
13431W        W29565  16.540   8.567  14.731 -0.0890  0.1165  0.1006
13432W        W29566  17.655  12.384  14.700  0.0138  0.0414  0.1732
13433W        W29567  12.399   5.436  13.454 -0.0646 -0.0572 -0.0262
13434W        W29568   0.858   7.943  13.743 -0.1217  0.2010  0.0995
13435W        W29569   6.638  12.081   3.605 -0.0334 -0.0934  0.0054
13436W        W29570   2.971  11.482  13.294  0.2771 -0.0655  0.0058
13437W        W29571   9.494   0.233   1.256 -0.1411 -0.2143  0.1916
13438W        W29572  15.679   7.272  13.955  0.2313  0.3139 -0.0606
13439W        W29573   2.302   1.860   2.560  0.0331 -0.0085  0.0121
13440W        W29574  10.967   1.250   3.591 -0.1325 -0.4936  0.1524
13441W        W29575  10.224   9.444  12.395 -0.0369  0.0105  0.0388
13442W        W29576  19.004   8.708   0.788  0.1212  0.0893 -0.2458
13443W        W29577   9.018  19.116   3.695  0.1011  0.1795  0.0032
13444W        W29578  13.868  13.996   3.022 -0.0607  0.3649 -0.1482
13445W        W29579   6.973   0.956   5.079 -0.1742  0.1765  0.0981
13446W        W29580  16.883  10.803   4.267  0.3300  0.1706  0.0732
13447W        W29581   1.478   7.443   2.708  0.0250 -0.3433 -0.0313
13448W        W29582  16.670  11.319  10.381 -0.6276 -0.0954 -0.0216
13449W        W29583  17.612   8.835  14.610 -0.1460 -0.1206  0.1443
13450W        W29584  11.945   6.830  14.456 -0.1117  0.1912  0.0117
13451W        W29585   0.470  16.002   2.680  0.0301  0.0280 -0.3204
13452W        W29586   9.395   8.759   3.696 -0.0793 -0.2768  0.1093
13453W        W29587   3.021   1.760  12.674  0.2033 -0.0100  0.0945
13454W        W29588  16.989   4.948  13.587  0.2657 -0.3374  0.1611
13455W        W29589  13.455  13.961   1.063  0.0802 -0.1332  0.1231
13456W        W29590  18.440   4.769  12.134 -0.1298  0.0348  0.2429
13457W        W29591  18.518   6.949  11.983 -0.0045  0.0655 -0.3002
13458W        W29592  12.063  10.148  14.659 -0.1493 -0.3555 -0.1441
13459W        W29593   4.920  10.587   2.698  0.0398  0.0965 -0.1294
13460W        W29594  14.449   5.313   2.336 -0.2028  0.0035 -0.0206
13461W        W29595   7.579   4.156   1.794  0.2129 -0.0912 -0.0496
13462W        W29596  13.181   5.741  10.595 -0.0649 -0.2564  0.1522
13463W        W29597   0.378  18.102  13.152 -0.0054  0.2389  0.0129
13464W        W29598   1.531  15.651  13.342  0.0968 -0.1376 -0.1771
13465W        W29599  18.195   9.377  12.049  0.2536 -0.5530 -0.4731
13466W        W29600  13.697   8.858  11.723  0.0267  0.0724  0.3130
13467W        W29601   1.707  12.709  11.162  0.1488 -0.0927 -0.2293
13468W        W29602  16.543   5.975  12.756 -0.2632  0.1357  0.1629
13469W        W29603  14.397  17.037   4.856 -0.1224  0.1604 -0.1945
13470W        W29604  12.814   1.511   0.235 -0.0986  0.1185 -0.0348
13471W        W29605  13.998   1.817   5.182 -0.2151  0.4980  0.1337
13472W        W29606   8.675   9.894  10.768 -0.0010 -0.0674  0.2636
13473W        W29607   4.884   5.339  12.788  0.1396 -0.0820 -0.0697
13474W        W29608   3.399   7.881  12.845  0.0309 -0.1046 -0.0320
13475W        W29609  13.649  18.450  11.047  0.2989 -0.0424 -0.2687
13476W        W29610  11.031  14.589   5.151 -0.0166  0.0755  0.3096
13477W        W29611  15.341   1.713  13.948 -0.2218  0.0340  0.0002
13478W        W29612   1.564   1.698  10.627 -0.2892  0.0190  0.3144
13479W        W29613   5.855  18.681   5.274 -0.2048  0.1002  0.0459
13480W        W29614   3.053  13.786  12.090 -0.0139 -0.3965 -0.0578
13481W        W29615  13.658   3.335   4.138 -0.2934  0.1634 -0.1247
13482W        W29616  13.766   0.038   0.812 -0.4675  0.0740 -0.2114
13483W        W29617   7.527   9.098   1.342  0.0241 -0.1918  0.0895
13484W        W29618   2.636   2.289   2.268 -0.3442 -0.1385 -0.0219
13485W        W29619  11.303  17.623   1.538 -0.2048  0.1335 -0.1721
13486W        W29620   5.167   5.464   0.198  0.0874 -0.1566  0.3724
13487W        W29621   6.900   6.029  10.728  0.3296 -0.0635 -0.1482
13488W        W29622  18.847   9.106   4.466 -0.0306 -0.0587 -0.2465
13489W        W29623   9.812  12.899  10.954  0.2598  0.0985 -0.0181
13490W        W29624  17.569  12.859  11.009  0.0449 -0.2041 -0.0657
13491W        W29625   7.074  15.318  11.400 -0.1917 -0.1712  0.0415
13492W        W29626  17.898  15.356  11.523  0.2605  0.3185 -0.3082
13493W        W29627  12.341   6.923   5.527 -0.1767  0.2707 -0.2770
13494W        W29628   5.784   0.199  13.475  0.0277  0.1368  0.1280
13495W        W29629  17.009  13.944   3.671  0.0620 -0.3753  0.0751
13496W        W29630  10.179   0.486  11.403  0.1651  0.1247  0.1302
13497W        W29631   6.731  14.073  12.305  0.3474 -0.0980  0.3414
13498W        W29632   7.473  15.258  11.830  0.2215 -0.2119  0.0190
13499W        W29633   2.880   3.929   2.928 -0.1872  0.0003 -0.2349
13500W        W29634  16.647   7.523  12.959  0.0907 -0.1983  0.2153
13501W        W29635  14.152   9.672  12.042  0.1063 -0.1183 -0.2470
13502W        W29636  12.559   9.187   9.889 -0.1354  0.2451  0.3156
13503W        W29637   3.776   5.634  14.503 -0.0392 -0.2869 -0.1493
13504W        W29638  10.077   9.654   2.822 -0.0556  0.0644  0.0315
13505W        W29639   2.967   6.346  12.485  0.0961 -0.1401 -0.2434
13506W        W29640   9.071   5.427  12.756  0.0486  0.0631  0.0137
13507W        W29641   1.408   4.586   0.679  0.1287  0.2750 -0.0591
13508W        W29642   9.446  14.482   5.559  0.1603  0.1179 -0.0151
13509W        W29643   1.053   9.252  13.674 -0.1765 -0.0250  0.3516
13510W        W29644  13.873   9.455   2.002 -0.0403 -0.0592 -0.1119
13511W        W29645  17.347  16.572   3.070  0.1637  0.0052 -0.1697
13512W        W29646   6.131  11.842   2.983  0.2670  0.1788 -0.1051
13513W        W29647  14.481  18.895   2.264 -0.0223  0.0125  0.1292
13514W        W29648   2.623   2.654  12.468  0.2766 -0.0462  0.2528
13515W        W29649  14.027  11.112  14.085  0.0156  0.0519  0.0640
13516W        W29650  12.412  11.854   1.798  0.0709 -0.2731  0.0973
13517W        W29651   4.424   8.752   3.296  0.3542 -0.4993 -0.0812
13518W        W29652   3.666   4.329   3.112 -0.0801  0.1168  0.0650
13519W        W29653  15.017   1.049  11.032  0.2034  0.3675  0.0367
13520W        W29654  17.534   6.736   0.984  0.2045  0.2955 -0.0221
13521W        W29655   2.159   0.901  10.683  0.1259 -0.0538  0.0175
13522W        W29656   0.081   0.175  14.484 -0.0655  0.1763 -0.0729
13523W        W29657  12.775   6.642   2.854 -0.2320 -0.2289 -0.4232
13524W        W29658  10.629   0.645  10.517 -0.1459 -0.0682 -0.2385
13525W        W29659  10.149   4.002  14.739  0.1701  0.4484  0.2500
13526W        W29660   8.089  10.473  12.958  0.0080 -0.0705  0.1362
13527W        W29661  19.003  11.683   3.185  0.1939 -0.2045 -0.2205
13528W        W29662   5.758   0.426   0.743 -0.0747 -0.0612  0.0644
13529W        W29663   5.108  13.192  14.774 -0.1870 -0.0730 -0.3790
13530W        W29664   3.026   0.280   1.071 -0.0792  0.2094 -0.0819
13531W        W29665   5.736  13.264   3.956  0.0177  0.1686 -0.0995
13532W        W29666  15.628  17.927  12.571 -0.1346 -0.0735 -0.0265
13533W        W29667  10.555  12.341  14.333 -0.2534  0.0073  0.2966
13534W        W29668  11.772  10.940  15.196 -0.3971 -0.2339 -0.2079
13535W        W29669  11.042   4.039   5.308  0.1378 -0.0025 -0.0930
13536W        W29670   7.814  16.860   4.025  0.0015  0.1050 -0.1092
13537W        W29671   2.448  14.527   2.495  0.0512  0.0319  0.2308
13538W        W29672  13.171   3.608   2.295 -0.1349  0.0516 -0.0511
13539W        W29673   2.202   9.509  11.851  0.0938  0.0118  0.0954
13540W        W29674   2.769  11.389  10.429  0.1712 -0.3593 -0.2295
13541W        W29675   3.566  15.168  11.783 -0.0629  0.3411  0.0197
13542W        W29676   1.495   1.790   1.585  0.2318  0.1659 -0.1604
13543W        W29677  18.406   5.709   0.872 -0.0005 -0.1080 -0.2472
13544W        W29678   4.237   7.759   0.125 -0.1979 -0.0385 -0.1646
13545W        W29679  15.021   9.229   1.540  0.2281 -0.1820  0.4442
13546W        W29680   8.830  16.692   2.312  0.1022 -0.0576  0.1228
13547W        W29681   6.145   9.729   4.072  0.0333  0.1805  0.0723
13548W        W29682  16.582   4.171   2.431  0.1063 -0.1710  0.0329
13549W        W29683   8.073   3.934  13.852  0.1965 -0.0263  0.2768
13550W        W29684   5.088  16.817  13.007 -0.1454 -0.1614  0.0442
13551W        W29685   6.243  11.275  10.671  0.0147 -0.0568  0.0349
13552W        W29686   8.785  16.066   9.242  0.3030  0.0469  0.0526
13553W        W29687  18.509   2.921  13.346 -0.1476  0.0066 -0.2957
13554W        W29688  14.313   9.539  12.586 -0.2074 -0.0943  0.1795
13555W        W29689  17.285   9.218  14.679  0.1403 -0.2354 -0.2149
13556W        W29690   0.185   9.486   1.131 -0.1488  0.2895  0.1384
13557W        W29691   0.391  10.366   3.503 -0.1150  0.0766 -0.1756
13558W        W29692   9.833  11.482   0.092 -0.0252 -0.5161 -0.2629
13559W        W29693   7.707   3.232   0.202 -0.1012 -0.0022 -0.0113
13560W        W29694   4.003   4.471   9.570 -0.0393 -0.2652 -0.0348
13561W        W29695   9.422   8.361   0.108 -0.0331  0.0273  0.1602
13562W        W29696  17.024  18.434  11.048 -0.3003  0.3179 -0.0338
13563W        W29697  12.071  17.588  10.026 -0.0806  0.5186 -0.0171
13564W        W29698   9.423   6.852  12.897 -0.0289  0.2193  0.0009
13565W        W29699   2.141  15.830   1.736 -0.1427 -0.0992  0.0381
13566W        W29700   7.704   1.352   4.696 -0.1742  0.0864 -0.1870
13567W        W29701   0.075  12.202   3.743  0.2217  0.2454 -0.0938
13568W        W29702  14.987  13.767  11.857  0.2456  0.0479 -0.1354
13569W        W29703  14.170   1.062  12.730 -0.1043  0.0249  0.0152
13570W        W29704  10.461   9.550   3.209  0.1170  0.1265 -0.0207
13571W        W29705  13.401  13.482   2.970  0.0068  0.2189  0.0671
13572W        W29706   2.363  15.797  10.698 -0.2002  0.2804  0.2680
13573W        W29707   1.265  10.984  10.641  0.2728  0.0055  0.0114
13574W        W29708   3.081   9.062   5.082  0.2653  0.2066  0.2214
13575W        W29709  11.636  11.323   5.494  0.2072 -0.1073  0.0990
13576W        W29710   5.298  15.984  11.149  0.0422 -0.2270  0.0550
13577W        W29711   8.339   8.973  11.850  0.0152  0.0570  0.1028
13578W        W29712   3.916   3.665  11.888 -0.2888  0.1226  0.3041
13579W        W29713  16.317   0.347   1.869  0.2846 -0.1123  0.0254
13580W        W29714  14.098  17.482   0.633 -0.2657  0.2636 -0.3325
13581W        W29715   8.407   7.337  12.596  0.1719  0.0128 -0.3083
13582W        W29716  15.280  11.122  14.152  0.2558  0.0379 -0.1234
13583W        W29717  14.887   4.710   0.598  0.2475 -0.1170 -0.0606
13584W        W29718   4.202   9.702  11.610  0.0806  0.2365 -0.2645
13585W        W29719   3.030   7.992  14.403 -0.0192  0.0049  0.0988
13586W        W29720   7.287  11.691   4.221  0.3446 -0.0231  0.1876
13587W        W29721   2.630  13.114   0.868 -0.1449  0.0632 -0.0766
13588W        W29722   2.337  16.085   5.191  0.1166  0.0009  0.1420
13589W        W29723   9.129   8.322   2.186  0.2566 -0.6195 -0.1981
13590W        W29724  11.956   8.833  10.493  0.1685  0.1396  0.2456
13591W        W29725  18.872   3.876  13.128  0.0326  0.1938  0.1851
13592W        W29726   7.406   1.338   1.937  0.0047  0.1031  0.0626
13593W        W29727   1.955   7.907   5.130 -0.0896  0.1472 -0.2569
13594W        W29728  14.729   2.027  13.671  0.0965 -0.1305  0.0809
13595W        W29729   2.022   6.231   0.554  0.0243 -0.0935 -0.2910
13596W        W29730   3.038   5.748  10.847  0.1172  0.2119  0.0554
13597W        W29731  15.614  16.483   4.744 -0.3396  0.1762  0.0457
13598W        W29732   7.237   1.618  12.324  0.2953  0.0376  0.0836
13599W        W29733  14.718   2.857  14.667 -0.0930 -0.4263  0.1393
13600W        W29734   7.498  12.197  13.142 -0.1896  0.1390 -0.4267
13601W        W29735  10.579  16.807  10.988  0.2643  0.0386  0.1312
13602W        W29736  15.267  17.426  13.558 -0.1228 -0.0295 -0.0111
13603W        W29737  14.192   6.667   3.289 -0.1607 -0.2787 -0.2185
13604W        W29738   3.292  16.442   5.395 -0.0563 -0.0848 -0.0442
13605W        W29739  12.677   4.731  12.928  0.0752  0.0217  0.2232
13606W        W29740  15.787  13.560   5.453  0.0111 -0.1945  0.0012
13607W        W29741   0.991   8.467   3.948 -0.2035  0.3176  0.0827
13608W        W29742   4.668   4.296  13.065 -0.1725  0.0716 -0.0432
13609W        W29743  13.955  14.226   0.061 -0.1502  0.0553  0.2149
13610W        W29744   2.655  15.370  11.306 -0.3888  0.4944  0.1467
13611W        W29745   9.598   0.038   2.965  0.1759  0.0228  0.1231
13612W        W29746   1.106   1.719  15.118 -0.1284 -0.1672 -0.1716
13613W        W29747   9.384   5.184   3.418  0.1594  0.1955 -0.0318
13614W        W29748  17.087   3.951  15.048  0.1039  0.1843 -0.1521
13615W        W29749  14.048   5.941   9.662  0.2716  0.2290 -0.0037
13616W        W29750   7.686  11.552   1.141  0.2010  0.1166  0.3110
13617W        W29751   9.656   7.306   4.461 -0.0840  0.0551  0.0206
13618W        W29752  13.193  19.073  13.191 -0.0157 -0.1337 -0.2237
13619W        W29753   6.527  11.325   2.508 -0.1159  0.2207 -0.2022
13620W        W29754  14.992   5.122  14.908  0.0118 -0.0505 -0.2895
13621W        W29755  13.401   3.779   4.575 -0.1695 -0.2931 -0.1782
13622W        W29756   0.927  11.970  10.987  0.0928 -0.1492 -0.2941
13623W        W29757  12.046  11.048  14.702  0.1454  0.0907  0.1970
13624W        W29758  13.384   2.661   2.710  0.4420  0.4056 -0.1814
13625W        W29759  15.948  14.565   1.441  0.1453 -0.1023  0.0359
13626W        W29760   7.639  10.779  13.051  0.1449 -0.1459 -0.1585
13627W        W29761  17.020  11.767   3.773 -0.2059 -0.0140  0.0377
13628W        W29762  10.721   8.167   0.094 -0.1686  0.4280  0.1999
13629W        W29763  11.049  19.064   0.872 -0.0330  0.1046  0.1484
13630W        W29764   6.252   0.093   4.096 -0.4958 -0.2336  0.0141
13631W        W29765   3.959  12.248   3.947  0.0693 -0.0485 -0.0875
13632W        W29766   4.850  15.855   0.901  0.0271 -0.1902  0.3030
13633W        W29767   2.747   2.408   3.383  0.1246  0.0887 -0.2879
13634W        W29768  18.582   3.349   3.669 -0.1021 -0.0521 -0.1149
13635W        W29769  18.153   9.195  11.617  0.0298  0.4780  0.0182
13636W        W29770   9.368  14.366   4.006  0.1301  0.0091 -0.0326
13637W        W29771   4.380   1.183   3.031  0.0159  0.0523  0.2069
13638W        W29772   0.992  17.276   0.436  0.2407 -0.3477 -0.0789
13639W        W29773  15.344   4.543   0.944 -0.1649  0.1883  0.1553
13640W        W29774   8.642  14.593   3.206  0.1559  0.0603 -0.2190
13641W        W29775  10.363  18.905  11.860  0.2506 -0.0448  0.1641
13642W        W29776   6.885   2.094  11.619  0.0542 -0.1804 -0.2904
13643W        W29777  14.787  16.046  10.561  0.0007 -0.0214  0.0180
13644W        W29778  15.470   7.988   3.248 -0.0901  0.3278 -0.2024
13645W        W29779   8.561   5.999   4.347 -0.2192 -0.0114  0.1138
13646W        W29780   3.836   1.482   3.801  0.0713 -0.3679  0.2574
13647W        W29781   5.699   4.005  14.205 -0.3712  0.1592 -0.2029
13648W        W29782   3.940  10.159   3.885 -0.1688 -0.0919  0.3663
13649W        W29783   2.023   2.051  10.600  0.1293 -0.0040 -0.0872
13650W        W29784  16.155   8.900  14.714  0.2220  0.1552 -0.5263
13651W        W29785  15.844  13.565  13.409  0.3087 -0.2907 -0.0650
13652W        W29786  16.373   3.370   4.274  0.2327 -0.1644 -0.0575
13653W        W29787   5.393   4.988  10.869  0.0822 -0.1387  0.2354
13654W        W29788   6.292   1.581  12.509  0.2361 -0.0025  0.1270
13655W        W29789   8.472   6.032   1.898  0.0975  0.2473 -0.4637
13656W        W29790  11.100  17.589   4.388  0.2252  0.1276  0.0013
13657W        W29791   6.510  15.967   1.696  0.0323  0.2636  0.2287
13658W        W29792   4.922   7.085   1.060 -0.0519  0.1400  0.0468
13659W        W29793   0.877  10.273   3.389  0.4381  0.0276  0.0293
13660W        W29794   7.239   4.940   0.555 -0.0373 -0.0589 -0.0108
13661W        W29795  16.339   1.255   2.213 -0.0869  0.2236 -0.1788
13662W        W29796  11.260   6.691   1.161 -0.0760 -0.2834  0.3515
13663W        W29797   1.652   4.793  13.304 -0.2096 -0.0079 -0.3077
13664W        W29798  17.574  14.958   5.503  0.4257 -0.2105 -0.1971
13665W        W29799   4.974   5.300   4.048 -0.0887 -0.0635 -0.1241
13666W        W29800   2.214  10.370   5.165 -0.2781  0.2983 -0.1071
13667W        W29801  15.548  12.738   1.489 -0.1911  0.0443  0.5042
13668W        W29802  14.939  10.166  10.435  0.0156 -0.1379  0.2582
13669W        W29803   7.593  18.451   0.001  0.2197  0.1331  0.1462
13670W        W29804   2.018   3.257   9.917 -0.0203  0.0367 -0.1084
13671W        W29805   8.148  13.430  12.612  0.0163  0.2980 -0.0792
13672W        W29806  13.546   5.674   5.620 -0.0012 -0.0934  0.0399
13673W        W29807  16.551   3.874   0.995 -0.0933  0.1436  0.0278
13674W        W29808  11.527  16.292  13.169  0.1774  0.0910  0.1141
13675W        W29809   1.890  15.881  10.774  0.0782 -0.0903  0.0374
13676W        W29810  10.943   0.896   0.717 -0.0322  0.5011 -0.2366
13677W        W29811  17.599   6.832   2.586 -0.3587  0.0277 -0.1204
13678W        W29812   1.141  12.396  13.047  0.0847  0.2197  0.1778
13679W        W29813  10.448   2.653   4.496  0.0145  0.4192  0.3998
13680W        W29814  13.241   3.066   3.438  0.1564  0.0572  0.2299
13681W        W29815   4.090  17.610  11.638  0.0525  0.1351 -0.1975
13682W        W29816   0.791  11.175   3.146 -0.0660 -0.0810  0.0887
13683W        W29817  12.994   5.666   0.610  0.2963 -0.1099 -0.1669
13684W        W29818   1.637   9.847   0.613 -0.2557  0.0183 -0.0706
13685W        W29819   9.602  15.099   1.879 -0.4550 -0.3816 -0.2342
13686W        W29820  17.214   4.441   4.169  0.1268  0.0990 -0.0843
13687W        W29821  15.248   2.322   1.690 -0.0631  0.1147 -0.3098
13688W        W29822   1.902   5.951  11.983  0.1223 -0.4645  0.1338
13689W        W29823  12.004  10.057  13.766  0.1644 -0.2680 -0.0225
13690W        W29824   2.599  18.209   1.705 -0.0214 -0.4216 -0.0023
13691W        W29825   0.284   3.542  11.191 -0.0395  0.4085  0.0709
13692W        W29826  16.748  19.099   1.750  0.3554 -0.1612 -0.1277
13693W        W29827  12.178  13.099  14.440 -0.4843  0.0649 -0.0807
13694W        W29828   2.912  14.616  14.723  0.2031 -0.2021 -0.2463
13695W        W29829   8.884   5.899  14.556 -0.1910  0.0992  0.3152
13696W        W29830  13.341   1.007   1.918 -0.1229  0.2652 -0.1261
13697W        W29831   4.108   4.473   2.237  0.4414  0.1055  0.0306
13698W        W29832  14.437   6.001  12.524  0.2099  0.1570  0.2369
13699W        W29833  12.284  11.424  13.710  0.0232  0.0200  0.0070
13700W        W29834  14.021   6.678   0.982  0.1107  0.0970 -0.0705
13701W        W29835  13.926   2.943   2.302 -0.1848  0.1916 -0.1515
13702W        W29836  12.111  11.269  12.959 -0.1381 -0.1402  0.3902
13703W        W29837   9.411  11.336   0.463 -0.1339 -0.2323  0.0922
13704W        W29838  16.063  13.873   0.453  0.2226 -0.2647  0.0651
13705W        W29839  10.292   8.642  14.573 -0.2096 -0.0719 -0.1293
13706W        W29840  16.543   0.000  13.573 -0.1314  0.0904  0.2550
13707W        W29841   6.266  16.210  12.072  0.0511 -0.0721 -0.0651
13708W        W29842  10.048  13.082   0.107  0.1460  0.0937 -0.2273
13709W        W29843  17.250   0.344  13.679  0.1411 -0.1171 -0.1664
13710W        W29844   3.272  14.705   2.722  0.1301 -0.1867  0.3045
13711W        W29845  15.188  15.600   5.484 -0.0116  0.0019 -0.0517
13712W        W29846   6.322   2.947  14.406 -0.0845 -0.0934 -0.0551
13713W        W29847  18.333   3.308  15.118 -0.2738 -0.2830 -0.0195
13714W        W29848   5.313  10.877   2.852  0.1398  0.0196 -0.0331
13715W        W29849  17.499  16.555  13.051 -0.1512 -0.1906  0.0823
13716W        W29850   1.932  18.096   0.471 -0.2349 -0.1013 -0.0321
13717W        W29851   3.363  10.058   2.783 -0.0093  0.1457 -0.1554
13718W        W29852  12.274  17.578  10.501  0.1430  0.1787 -0.2137
13719W        W29853   0.256   3.908   0.248 -0.0699 -0.0295 -0.2465
13720W        W29854   6.970  15.014  14.227 -0.0110 -0.2272 -0.2607
13721W        W29855  12.826   0.351   2.173 -0.1765 -0.1669 -0.0730
13722W        W29856  16.420  11.602  10.776 -0.3267 -0.0922 -0.0296
13723W        W29857   0.478  15.678   1.751 -0.0798 -0.0502 -0.1627
13724W        W29858  10.767  12.464   2.197 -0.2461  0.1226  0.0189
13725W        W29859  12.870  17.728  12.642  0.1695 -0.0974  0.2322
13726W        W29860  15.198  11.536  11.486 -0.2434 -0.2335  0.0514
13727W        W29861   8.193  11.287   1.396 -0.1049  0.2137 -0.0312
13728W        W29862  11.043  11.480   4.664 -0.0068  0.1784  0.0896
13729W        W29863  12.766   6.484   0.361  0.1655  0.2324  0.0245
13730W        W29864   3.583   5.936  14.077  0.1412 -0.2832 -0.2806
13731W        W29865  14.195  13.888   0.783 -0.3202  0.0278 -0.0136
13732W        W29866   1.427   1.820   3.697 -0.0895  0.1597 -0.0377
13733W        W29867   0.710  18.848   4.366 -0.3459 -0.2072  0.3131
13734W        W29868  14.514  16.435  14.708 -0.0172 -0.2139  0.2176
13735W        W29869  18.773   8.855  14.772 -0.5995  0.0839 -0.0503
13736W        W29870  15.989   6.665   5.300 -0.6418 -0.1324 -0.1262
13737W        W29871   7.668   0.726   4.512 -0.1457  0.0020  0.1971
13738W        W29872  11.165  16.831   4.884  0.1084 -0.3718  0.4736
13739W        W29873  17.984  13.686   1.615  0.2484 -0.1322 -0.0799
13740W        W29874   2.215   2.825   1.693  0.3207 -0.0308  0.0915
13741W        W29875  12.795  16.071  10.699 -0.2694  0.0158 -0.2113
13742W        W29876  14.692  12.553   0.807  0.0598 -0.0336  0.1102
13743W        W29877  15.161  16.946   1.692 -0.3274 -0.0432 -0.1053
13744W        W29878   9.915  13.093   2.393 -0.4136 -0.3834  0.2026
13745W        W29879   1.706   1.012  10.727 -0.1475  0.0674 -0.0065
13746W        W29880   1.010   7.999  14.548  0.5630  0.0469  0.0784
13747W        W29881  11.175  10.702   1.280 -0.0435  0.1266 -0.3523
13748W        W29882   0.694  10.892  12.397 -0.0961 -0.0569  0.0094
13749W        W29883   9.522  18.691  12.311  0.1740  0.0905  0.3573
13750W        W29884  10.221   9.335  11.020 -0.0417  0.0899  0.0889
13751W        W29885   1.635  19.067   4.838  0.1314 -0.0904  0.0391
13752W        W29886  14.873   8.327   2.814 -0.2403  0.3606 -0.0625
13753W        W29887   7.753  12.125  10.579 -0.2385 -0.0812  0.2125
13754W        W29888   9.498  17.530  15.043 -0.0074 -0.1428  0.1228
13755W        W29889  11.228   7.601   5.073 -0.1474 -0.0088  0.1320
13756W        W29890  14.363  18.406  14.340 -0.3248 -0.2537 -0.1141
13757W        W29891   6.891   3.586  13.678  0.1201  0.4195  0.0867
13758W        W29892  14.936  16.213   1.022  0.0880 -0.2044  0.0879
13759W        W29893   5.770  18.815   4.767  0.0030 -0.3515 -0.0835
13760W        W29894  17.753   5.190   0.486  0.0847  0.1752 -0.2890
13761W        W29895  16.348   2.038   3.691  0.0671  0.0972 -0.0350
13762W        W29896  13.848   9.253   4.574  0.2943 -0.0329  0.3949
13763W        W29897   6.008   9.297   1.540  0.2152 -0.0559  0.0839
13764W        W29898   6.235   9.932  14.786 -0.0567  0.0945 -0.0142
13765W        W29899   4.092  11.062   5.140  0.0130  0.1895  0.1349
13766W        W29900   6.577  14.223   2.366  0.1775 -0.4745 -0.2532
13767W        W29901  17.614   3.913   1.196 -0.0616 -0.2851 -0.0979
13768W        W29902   0.106   6.772  13.698  0.0180  0.4896 -0.3137
13769W        W29903   4.439  16.246  11.361 -0.2015 -0.2964  0.3069
13770W        W29904   9.600   1.345  11.261 -0.2855  0.1861  0.2989
13771W        W29905  17.890   3.907  14.072  0.0398 -0.3699 -0.3937
13772W        W29906   9.518   9.529  12.744 -0.0536 -0.2790 -0.0973
13773W        W29907  18.888   7.011   1.334  0.3579  0.0557  0.2658
13774W        W29908   8.318  10.928  13.942 -0.0824 -0.1955 -0.0489
13775W        W29909  18.241  16.575  12.173 -0.1855 -0.4722  0.0854
13776W        W29910   3.315   2.004   4.581 -0.0343 -0.1329  0.2018
13777W        W29911  15.192  15.929  12.328 -0.2052  0.0108  0.0374
13778W        W29912   7.792   3.960  14.717  0.1786  0.0142  0.0719
13779W        W29913   3.383   8.231  13.380 -0.1279  0.0824 -0.1663
13780W        W29914   1.055   8.082   3.292  0.0726 -0.0602 -0.0718
13781W        W29915   8.548   4.947   2.830  0.0774  0.3347  0.4052
13782W        W29916  12.118  11.858  13.206 -0.1693  0.1423 -0.2930
13783W        W29917  19.114   7.801   4.552  0.2696  0.1607 -0.0558
13784W        W29918   3.571  12.255   2.865 -0.1873  0.1570 -0.0066
13785W        W29919  16.118   7.127  13.765 -0.3049 -0.1918  0.0954
13786W        W29920  18.937  12.670  13.876  0.0230 -0.2621 -0.1595
13787W        W29921   0.954  13.453   0.460  0.0590  0.0700 -0.0162
13788W        W29922  11.739  17.390   0.217 -0.2203 -0.0019 -0.0492
13789W        W29923   3.869  14.912  14.797  0.2676 -0.0183 -0.4221
13790W        W29924   3.665   2.599   1.954 -0.2671  0.1632 -0.0525
13791W        W29925  12.623   5.739  12.697 -0.1115  0.0053  0.0165
13792W        W29926  12.289   2.411   4.264 -0.0762 -0.2648  0.0461
13793W        W29927   6.922  16.649  14.524 -0.2384  0.0521 -0.2920
13794W        W29928   3.323  12.326  12.188  0.2568  0.2668 -0.0523
13795W        W29929   9.088  15.403   0.332  0.0005  0.0342 -0.1464
13796W        W29930   7.908   0.419  12.936  0.0454 -0.0022 -0.0196
13797W        W29931   7.735  18.528  13.814 -0.1848  0.0802  0.1017
13798W        W29932   7.157   5.935  13.617 -0.1527 -0.1537 -0.0229
13799W        W29933  17.490  13.086   2.589 -0.0340  0.3939 -0.0811
13800W        W29934  16.742   8.494   0.674  0.1189  0.1139  0.2492
13801W        W29935   0.191  11.764   9.738 -0.2795  0.2048  0.1843
13802W        W29936  14.180  10.523  14.512  0.4344  0.1271 -0.4158
13803W        W29937   6.648   2.866   3.390  0.2877 -0.0066 -0.0113
13804W        W29938   6.907  13.516  10.215  0.2622 -0.0462 -0.1604
13805W        W29939   6.832  11.784   4.477  0.3733  0.5709 -0.1082
13806W        W29940   3.915   3.868  12.764 -0.3576  0.1150  0.4345
13807W        W29941   5.237   9.071  11.284  0.1825  0.1425 -0.0217
13808W        W29942  12.045   6.160   5.399 -0.1497  0.1562  0.0858
13809W        W29943  13.301   6.006   1.061  0.1303  0.0511 -0.1275
13810W        W29944   7.698  13.949   3.120  0.1770 -0.0654  0.1323
13811W        W29945   1.805  11.566  15.137  0.2674 -0.1099  0.2150
13812W        W29946  12.948  11.817  13.037 -0.1834 -0.1747  0.0702
13813W        W29947  14.673  12.855  14.701  0.1129  0.4376 -0.3193
13814W        W29948  12.878  12.296  11.127 -0.1417 -0.0609  0.0475
13815W        W29949  11.575  12.978   3.703  0.0069  0.3525  0.0845
13816W        W29950   6.577   9.763   5.466  0.2554  0.1211 -0.1349
13817W        W29951  18.158   1.975  12.388  0.1793  0.1055  0.0663
13818W        W29952  15.751  12.401  11.180 -0.0141  0.1361  0.2429
13819W        W29953   2.348   3.006  10.244 -0.0591 -0.1719  0.1182
13820W        W29954   4.598   0.827   4.714  0.3325  0.0266 -0.2960
13821W        W29955   8.740  13.462   1.752  0.0409  0.2334 -0.0857
13822W        W29956   1.919  13.475  14.632 -0.1174 -0.0536 -0.0137
13823W        W29957   9.413  18.523   0.894  0.1125  0.0524  0.0082
13824W        W29958   5.551   4.359  13.481 -0.0050 -0.3351 -0.2094
13825W        W29959   5.511   3.595   2.156 -0.1961 -0.0300  0.2292
13826W        W29960   9.734   2.299  11.244  0.2553  0.1221 -0.0789
13827W        W29961  16.733  10.719   9.373 -0.0707  0.2927 -0.0406
13828W        W29962  15.178  15.770   3.193 -0.0160 -0.1893 -0.0575
13829W        W29963   1.039   4.008  11.723 -0.0229 -0.0891  0.2826
13830W        W29964  17.035   3.673   0.856 -0.0065 -0.1011  0.3247
13831W        W29965  16.631  14.534   2.222 -0.0934  0.1241 -0.3101
13832W        W29966   9.135  14.216   5.272  0.0693 -0.1300 -0.0803
13833W        W29967   8.784  10.442   2.663  0.0695  0.0111  0.2466
13834W        W29968  15.863   8.054   0.296 -0.2050 -0.1070 -0.4202
13835W        W29969  15.718  15.774  12.339 -0.2294 -0.0918 -0.0472
13836W        W29970   1.935   0.541   3.715 -0.3841  0.1883 -0.1231
13837W        W29971  14.164   9.695  11.512 -0.1852 -0.0806  0.1946
13838W        W29972   5.288   0.154   0.152  0.2951  0.1472 -0.2723
13839W        W29973   5.781  11.910  13.071  0.1628 -0.0647  0.0216
13840W        W29974   7.338  15.661   1.708 -0.0201 -0.2854  0.0029
13841W        W29975   9.310  12.402   0.427  0.1464  0.0604 -0.0517
13842W        W29976   8.072  10.986  11.263  0.2042 -0.4925  0.0087
13843W        W29977   2.678  17.518  10.086 -0.0937  0.1403 -0.0990
13844W        W29978  18.337   3.304   2.087 -0.1152 -0.1112 -0.3386
13845W        W29979   2.537   1.879   5.273 -0.2138 -0.4090  0.0167
13846W        W29980   0.678  12.942  12.128 -0.1012  0.0510 -0.1570
13847W        W29981  11.966  14.828   4.870  0.1411  0.2037 -0.0389
13848W        W29982  13.730   6.313   2.579  0.2467 -0.0954 -0.1278
13849W        W29983  14.886   2.456   2.972  0.0339  0.1544 -0.1296
13850W        W29984  10.235  10.845   2.507 -0.2438  0.0092  0.4088
13851W        W29985  16.175   1.036  13.260  0.0515  0.3049  0.1719
13852W        W29986   7.099  10.852  15.067 -0.0785 -0.1444 -0.4487
13853W        W29987   6.452  15.421   2.715  0.0622  0.2977 -0.2160
13854W        W29988   5.848  13.361   1.516 -0.0444 -0.0096  0.1325
13855W        W29989   0.618  18.215   2.325  0.0983 -0.1727 -0.1529
13856W        W29990   9.824   1.200   1.875 -0.0728 -0.1420 -0.2666
13857W        W29991   7.003   7.711   3.228  0.0015 -0.0863 -0.0568
13858W        W29992   0.387  15.753   4.402  0.1033 -0.1363  0.0274
13859W        W29993  13.369  15.945  12.874  0.0142  0.2780  0.1824
13860W        W29994  17.049  11.003  10.290  0.4544 -0.0270 -0.0666
13861W        W29995   1.482  18.130   0.023  0.1038 -0.2366 -0.0010
13862W        W29996  13.883  12.680   4.675  0.2105 -0.1246 -0.3124
13863W        W29997  16.207  15.384  14.112  0.2483 -0.1537 -0.1142
13864W        W29998   8.049  12.000  11.857  0.0857 -0.0336  0.1149
13865W        W29999   0.967   5.853  13.330  0.0081  0.1559 -0.0812
13866W        W30000   0.872  18.782  14.226 -0.1752  0.1318 -0.0700
13867W        W30001   3.775  18.433  10.480  0.0404 -0.0254  0.3789
13868W        W30002   9.808  10.852   2.772  0.0624  0.0233  0.1207
13869W        W30003  16.930  13.740  12.513 -0.3332 -0.0297  0.0584
13870W        W30004   9.262   4.472   1.291 -0.0779  0.0146 -0.0424
13871W        W30005  15.964  17.570   0.368 -0.1950  0.0754 -0.0408
13872W        W30006   7.263   7.075   0.420 -0.0199  0.0172 -0.0547
13873W        W30007  17.652  18.782  10.221 -0.0503 -0.0820 -0.0053
13874W        W30008   3.688   4.447  11.950  0.2836  0.1146  0.0536
13875W        W30009  11.943   1.511   5.414  0.1875  0.1578  0.1070
13876W        W30010  16.121   1.587  12.539 -0.1891  0.0098  0.0246
13877W        W30011  17.289   7.073   2.339 -0.1778  0.0225 -0.0292
13878W        W30012  12.847  14.704   2.181 -0.2538  0.0969  0.2418
13879W        W30013   0.399  18.434  14.532 -0.1375  0.2312  0.0004
13880W        W30014  12.294  10.397   4.895 -0.1140 -0.1318 -0.3422
13881W        W30015   6.031  10.738   4.228 -0.1709  0.0474  0.0022
13882W        W30016   4.773  14.059  11.408 -0.0917 -0.0546  0.0670
13883W        W30017   0.442   8.812  11.991  0.0891 -0.3270 -0.1111
13884W        W30018  12.140   3.910   5.863 -0.0350 -0.1330 -0.0367
13885W        W30019   2.502   3.801  13.925  0.1831 -0.2365 -0.2656
13886W        W30020  17.179   6.313   1.737 -0.0076  0.2529  0.0443
13887W        W30021   7.265  17.775   3.954  0.0730  0.1778 -0.0960
13888W        W30022  18.214   8.233  11.745 -0.1145 -0.3741  0.0324
13889W        W30023  17.155   1.151   0.267  0.0511 -0.1968 -0.1579
13890W        W30024  11.381  15.416   4.693  0.3198 -0.2085 -0.1619
13891W        W30025   5.955  19.128  10.909 -0.3988  0.2177 -0.0800
13892W        W30026  14.432  17.337   3.734  0.0564  0.2370  0.1365
13893W        W30027   2.943   2.001   1.640 -0.2878 -0.0791 -0.1384
13894W        W30028  12.865  15.220   4.507  0.4750  0.0766  0.4496
13895W        W30029   4.907  18.211   5.356 -0.2517 -0.0938 -0.0665
13896W        W30030   6.834   1.173  11.698  0.3082 -0.0186 -0.1997
13897W        W30031  11.511  13.874   5.131  0.1036 -0.1688  0.1101
13898W        W30032   4.848   6.184   3.282  0.2470  0.1722  0.0664
13899W        W30033  14.168  13.741  12.445 -0.0968  0.1073 -0.0386
13900W        W30034   0.044   9.343  14.874 -0.0404 -0.1593 -0.0085
13901W        W30035   0.427   6.564  13.331  0.0622  0.2756  0.1068
13902W        W30036  12.931   8.692   1.931  0.2517  0.1761  0.1247
13903W        W30037  16.640   2.233  14.667  0.0328  0.0358 -0.1130
13904W        W30038  12.132  12.250  11.616  0.1536  0.1718 -0.0535
13905W        W30039  18.688  12.899   0.765  0.0585 -0.1097  0.0427
13906W        W30040   9.510  16.210  12.199 -0.0715 -0.4094 -0.3004
13907W        W30041   3.295   1.615  13.135 -0.0084 -0.3110 -0.0302
13908W        W30042   0.153   2.392  13.939  0.1446 -0.0054 -0.0892
13909W        W30043  15.053  11.218  12.598 -0.4096  0.3125  0.3168
13910W        W30044  11.787   5.336   1.522  0.0373  0.0321  0.0210
13911W        W30045  18.276   6.614   3.190  0.1253 -0.0661  0.1264
13912W        W30046   3.790   6.098   3.847 -0.1588 -0.0806 -0.0506
13913W        W30047  16.567   7.121  14.809  0.1713  0.0580 -0.1725
13914W        W30048   7.941  13.696  14.986  0.0521 -0.1223 -0.1788
13915W        W30049  18.400   9.597  10.780 -0.0180  0.2554 -0.1611
13916W        W30050   5.815   0.348   2.900  0.0560  0.0855 -0.0610
13917W        W30051   0.156   6.345  12.911  0.1748 -0.0092 -0.2227
13918W        W30052  14.886   5.587   1.670 -0.0984 -0.2243 -0.0608
13919W        W30053   8.925   6.243  13.729  0.0167 -0.1934  0.1690
13920W        W30054   2.730   4.976   2.334 -0.4810  0.0171  0.5455
13921W        W30055   5.551   1.245   1.313 -0.2300  0.2919  0.3540
13922W        W30056  12.573   6.654  11.036 -0.4371 -0.3656 -0.2318
13923W        W30057  14.355   0.572   3.572 -0.1171 -0.0661  0.0804
13924W        W30058   4.278   2.674  10.891  0.0521 -0.2493 -0.0954
13925W        W30059   5.185   5.424  11.710 -0.0211 -0.1344  0.0536
13926W        W30060  17.742   5.512  14.683 -0.3864 -0.3583  0.0175
13927W        W30061  15.735  13.377   3.264 -0.1735  0.2344  0.1084
13928W        W30062   6.453  10.881   0.557  0.1573 -0.1494  0.0030
13929W        W30063  14.388  13.486   4.326 -0.3285  0.2394 -0.1221
13930W        W30064   6.346   3.494  13.462  0.0584  0.0095  0.1804
13931W        W30065   5.711  14.746   1.595  0.1169 -0.0074  0.1643
13932W        W30066   4.944   2.287  11.343 -0.2134 -0.1441 -0.0725
13933W        W30067   1.809   5.907   2.139  0.3104 -0.2457 -0.0431
13934W        W30068  12.336  10.549  13.370  0.1000 -0.2232 -0.1357
13935W        W30069  15.234   8.891   2.528  0.1173 -0.2504 -0.1519
13936W        W30070   2.509  13.209  13.494  0.2053  0.0028  0.1230
13937W        W30071   8.853   8.251   5.316 -0.3596  0.0297  0.2048
13938W        W30072   3.734  15.495   3.230  0.3611  0.0070 -0.1506
13939W        W30073   8.061  12.848   0.206  0.0472  0.2331 -0.2733
13940W        W30074   2.980   8.420   0.002  0.0237  0.0618  0.3290
13941W        W30075  15.897   1.408   4.516 -0.0991  0.2071  0.1297
13942W        W30076   1.380  15.980   0.693 -0.0096 -0.1020  0.0806
13943W        W30077   1.892  14.878  14.547  0.1741 -0.3752  0.0586
13944W        W30078   1.691   0.943  14.669  0.4921  0.1061  0.0646
13945W        W30079   2.826  11.920   3.378  0.0895  0.1810  0.0089
13946W        W30080   0.812  14.833   1.671 -0.0562  0.0932 -0.0005
13947W        W30081  18.157  15.009  12.840  0.1406  0.3620 -0.3372
13948W        W30082   4.887  16.990   0.804  0.2099  0.1215  0.4997
13949W        W30083   4.377  15.510   2.275 -0.2699 -0.2308  0.0553
13950W        W30084  14.152   8.121  13.902  0.0121 -0.3276 -0.1041
13951W        W30085   6.886   7.373   0.394  0.0298  0.1826  0.0079
13952W        W30086   7.084  16.216   3.833  0.0146  0.0570  0.2080
13953W        W30087   5.682   5.967  11.746  0.0136 -0.2869 -0.1277
13954W        W30088  18.018   1.280  10.444  0.1725 -0.0859  0.1145
13955W        W30089  15.278  16.438  14.206 -0.0718  0.3014 -0.3525
13956W        W30090   3.460   3.173  12.590  0.0646 -0.4053  0.0171
13957W        W30091   3.002  14.372   9.334 -0.1538 -0.1073  0.1512
13958W        W30092   3.583   3.524   4.086 -0.0211 -0.0150 -0.3068
13959W        W30093  13.282  12.681  10.994 -0.2988 -0.1035  0.4197
13960W        W30094   9.097  17.792  11.284 -0.1322 -0.1198 -0.0010
13961W        W30095   6.907   8.835  10.997 -0.3977 -0.2441 -0.0318
13962W        W30096   2.349   6.339   0.161 -0.1747 -0.0590  0.0793
13963W        W30097   1.453   1.233  12.677  0.0740  0.1932  0.4228
13964W        W30098  10.705   6.802  12.990  0.0400 -0.1726 -0.1533
13965W        W30099   1.234  14.330  14.080 -0.0826  0.3314  0.0581
13966W        W30100   6.751   3.174   1.566  0.1853  0.1394  0.1076
13967W        W30101  14.555   3.128  15.041 -0.0853 -0.2083  0.3072
13968W        W30102  11.720  15.083   2.891 -0.1944 -0.1738  0.2143
13969W        W30103  11.160  18.929   9.770 -0.1665  0.3061  0.2600
13970W        W30104  16.648  14.948  10.749 -0.0757  0.0565  0.2239
13971W        W30105  15.920  16.291  15.201  0.0451 -0.0089  0.3001
13972W        W30106  18.343  15.240  12.438  0.1185  0.1377  0.2646
13973W        W30107   0.324   7.590  14.356 -0.2428  0.2243  0.0734
13974W        W30108   0.929   8.610   2.646  0.3744  0.1482 -0.1085
13975W        W30109   0.158   3.702   2.364  0.2568  0.2431  0.0977
13976W        W30110   1.051  18.201  10.084 -0.6541 -0.0420  0.0959
13977W        W30111   8.867   5.935   1.096 -0.2666  0.0474  0.1432
13978W        W30112  12.993   7.738   4.223 -0.3106 -0.0601  0.2472
13979W        W30113  17.418  12.606   4.911 -0.2275 -0.1281 -0.2229
13980W        W30114   3.171  15.772  14.187  0.1186  0.1665  0.2041
13981W        W30115   1.713  10.020  10.700 -0.1340  0.2612 -0.0616
13982W        W30116  18.775  15.579  11.111  0.4427  0.1709 -0.1843
13983W        W30117  16.545   4.943  11.884 -0.1140  0.1269 -0.0747
13984W        W30118  18.275   4.628  11.608  0.0047  0.0329 -0.1818
13985W        W30119  15.920   4.271  13.616  0.1299 -0.1166  0.0353
13986W        W30120  15.187   2.474   4.092  0.4622 -0.1169  0.2422
13987W        W30121   2.708   5.091   2.810 -0.1922  0.0036 -0.0093
13988W        W30122   9.775   9.268   0.966 -0.3538 -0.3071 -0.2308
13989W        W30123   2.949  13.880  14.026  0.0541  0.0450 -0.2102
13990W        W30124   2.162  13.199   0.946 -0.1482 -0.0031  0.3291
13991W        W30125  14.828   8.366  11.171 -0.3280  0.0589 -0.0565
13992W        W30126   0.555   0.941  10.580 -0.1518  0.3062  0.2845
13993W        W30127   3.800  15.932   1.509 -0.0457 -0.0128 -0.2753
13994W        W30128   9.289   8.103  13.693  0.0643  0.0149 -0.0443
13995W        W30129  18.702   2.711   1.266 -0.0900 -0.2479  0.1483
13996W        W30130   9.944  11.433   1.855  0.0233 -0.2181 -0.0195
13997W        W30131  14.705   1.616   2.974 -0.0657 -0.3243  0.0454
13998W        W30132   1.371   5.941  11.697  0.2070  0.1497  0.0647
13999W        W30133   2.151   3.936  14.866 -0.2057 -0.1027 -0.1444
14000W        W30134   7.047   7.568  12.311 -0.0792  0.2871  0.1493
14001W        W30135  17.824   3.384  15.172 -0.1656 -0.0574  0.2663
14002W        W30136   8.351   0.978   0.545  0.2325 -0.2943 -0.2529
14003W        W30137  15.043   4.733   1.851 -0.3097 -0.1512 -0.0079
14004W        W30138   1.190  16.270   4.615 -0.1349 -0.0917 -0.1224
14005W        W30139  11.057  18.895  10.350  0.1134  0.0781 -0.0804
14006W        W30140  12.312   9.668   5.599  0.1267 -0.3683 -0.0162
14007W        W30141  17.100  14.175  15.159  0.3121 -0.1642 -0.0166
14008W        W30142   8.329  17.002   9.892 -0.1024  0.1277  0.0989
14009W        W30143   3.800  16.986   4.993 -0.1823 -0.4256  0.1119
14010W        W30144  16.864  14.445   3.621 -0.2817  0.0329 -0.0334
14011W        W30145  10.801   8.253  13.179 -0.3523 -0.2033  0.0098
14012W        W30146   7.993  18.303  11.963  0.0734 -0.1278  0.3672
14013W        W30147   8.762   0.232  14.574 -0.1328 -0.1647 -0.0136
14014W        W30148   2.531   5.400  12.617 -0.4241 -0.0943 -0.0247
14015W        W30149   3.503   9.173  11.907  0.0584  0.2304  0.1642
14016W        W30150   6.942  15.495  14.420 -0.0525  0.2389 -0.1469
14017W        W30151   3.307   6.420  11.545  0.1749 -0.0432  0.1316
14018W        W30152  18.719   8.365   0.998  0.0034 -0.4301 -0.0323
14019W        W30153   2.753  13.359  10.985  0.2090 -0.1315 -0.2358
14020W        W30154  11.786   1.446   1.732 -0.1267  0.1050  0.0328
14021W        W30155  15.628   5.726  13.452  0.1620  0.0929 -0.2221
14022W        W30156   9.794   3.214  10.854  0.0333  0.0450  0.0270
14023W        W30157   0.632   1.430   2.114  0.1425  0.2813  0.1208
14024W        W30158  15.134  13.647   1.960  0.1301 -0.0727 -0.4029
14025W        W30159   5.368  11.010  10.912 -0.0844  0.0509  0.2585
14026W        W30160  12.431   9.756  10.008  0.0910  0.0250 -0.0623
14027W        W30161   9.953   1.142  14.312  0.1700 -0.1067  0.3449
14028W        W30162  14.678  13.929   4.157 -0.3304  0.1412 -0.0111
14029W        W30163   8.249  10.374   4.742 -0.1023 -0.2196 -0.2688
14030W        W30164   5.802  15.035   0.274 -0.2477 -0.1876 -0.0503
14031W        W30165   8.741   9.904  11.837  0.1105 -0.2036 -0.4349
14032W        W30166  16.466  15.411   2.028 -0.0462 -0.1560  0.1987
14033W        W30167  16.893  17.553  12.226  0.0295  0.2486  0.0706
14034W        W30168   6.135  12.981  11.703  0.2994 -0.0479  0.1309
14035W        W30169  11.990   5.408   0.604  0.0602 -0.0056  0.0815
14036W        W30170  17.623  17.183  11.626 -0.2557  0.0872  0.1450
14037W        W30171   4.323   5.336  11.227  0.2381  0.0348 -0.2834
14038W        W30172   8.162   6.020   1.403  0.0859 -0.0477  0.1958
14039W        W30173   2.526   8.771  12.494 -0.4492 -0.1993  0.1719
14040W        W30174  13.473   9.843   1.161  0.0697  0.0177  0.0397
14041W        W30175  18.543  14.922  10.808 -0.0705 -0.2900  0.0183
14042W        W30176  11.887   4.248  12.094  0.3545  0.1710  0.0919
14043W        W30177  10.061  13.951   4.327  0.0986 -0.3985  0.0131
14044W        W30178  17.122   6.647   1.280 -0.1782  0.1176 -0.3247
14045W        W30179  16.325  10.538   4.970  0.1000 -0.0282  0.3434
14046W        W30180  12.609   5.944   1.133 -0.0871  0.2971  0.1999
14047W        W30181   9.494   1.009  11.652 -0.1065 -0.2887  0.1536
14048W        W30182   4.253  12.486   3.513  0.1601  0.0214  0.2259
14049W        W30183  15.756   2.344  10.816 -0.1982 -0.0185  0.0798
14050W        W30184   8.410   5.149   2.336 -0.0525  0.0163 -0.0056
14051W        W30185   7.659   4.742   0.983  0.1893 -0.1401  0.2801
14052W        W30186  15.189  10.663  10.144 -0.2415  0.2587  0.4615
14053W        W30187  16.835   8.452   2.039 -0.1105  0.2805  0.4246
14054W        W30188  10.617  15.385  11.790  0.0958  0.0283 -0.0522
14055W        W30189   1.236   0.080  10.888 -0.0940  0.2204 -0.0359
14056W        W30190  15.499  17.967   1.533  0.3887  0.0012  0.2169
14057W        W30191  13.114   2.911   3.954 -0.2357 -0.0656 -0.0300
14058W        W30192   1.593   9.497  13.034 -0.0812  0.0226  0.0881
14059W        W30193   9.678   4.995   0.874  0.2306  0.1614  0.0284
14060W        W30194   5.239  14.684   4.675 -0.0136  0.3058 -0.0640
14061W        W30195   7.070   2.825   5.654 -0.0356  0.0549 -0.1304
14062W        W30196   4.062  15.736   4.267  0.1833  0.1456 -0.1187
14063W        W30197  11.256  10.634   2.832 -0.3119  0.2911 -0.2214
14064W        W30198   4.973  12.572  13.701 -0.2317  0.2136 -0.0491
14065W        W30199  11.400  13.819  13.572 -0.1134  0.1597  0.3003
14066W        W30200  17.269  15.379  13.835  0.1026 -0.0490  0.0318
14067W        W30201   3.902  11.623   0.960  0.0038 -0.0181 -0.2707
14068W        W30202  13.326   9.430   0.517  0.0358  0.1728 -0.2112
14069W        W30203  13.633  10.844  14.947  0.3190 -0.3246  0.1257
14070W        W30204   9.467  14.838  14.541 -0.1000  0.0624 -0.1814
14071W        W30205  11.795   2.843  15.083 -0.1396 -0.1649  0.0183
14072W        W30206  15.762   7.920  11.002  0.0202 -0.3690  0.0324
14073W        W30207   5.272   4.923   3.908 -0.0205 -0.0474  0.1350
14074W        W30208  17.519   4.914  14.278  0.3376  0.1645 -0.1352
14075W        W30209   4.315  12.317   4.304  0.0517  0.2209  0.1730
14076W        W30210   9.751   6.109  11.158 -0.1516  0.3441 -0.1792
14077W        W30211  16.114  15.604   3.557  0.2502 -0.0099  0.1097
14078W        W30212  19.082   3.225   0.567  0.2842 -0.1032 -0.0669
14079W        W30213   4.256  19.078   0.419  0.3402  0.0970  0.0534
14080W        W30214   4.989   7.673   3.120 -0.0373 -0.2344  0.2298
14081W        W30215   6.607   0.412  11.141 -0.2473  0.3535 -0.2115
14082W        W30216   9.842  10.297   1.186  0.2066  0.1836 -0.1669
14083W        W30217  14.559   5.497  14.217 -0.0544 -0.0094  0.0472
14084W        W30218   4.713   8.718  13.835 -0.0607  0.0671  0.1155
14085W        W30219   5.765  15.428  13.178  0.0296 -0.5358  0.0084
14086W        W30220   7.250   7.095  11.265 -0.1259  0.1029  0.0471
14087W        W30221  15.670  15.461   2.527 -0.0743  0.2038 -0.5448
14088W        W30222  11.017   9.372  14.590 -0.3743  0.0667  0.0975
14089W        W30223   6.735  11.518   1.218  0.0987  0.0529 -0.1510
14090W        W30224  11.715   5.045   4.563 -0.2716  0.0068  0.0118
14091W        W30225  12.785   7.727  14.794  0.2958  0.2271 -0.1376
14092W        W30226   8.698   8.372  12.415 -0.2277  0.4000 -0.2135
14093W        W30227  17.171   1.897  13.368  0.1319 -0.3976 -0.1674
14094W        W30228  12.789  11.942  14.542 -0.1906 -0.1615 -0.0162
14095W        W30229   3.773   5.134  11.381  0.0122  0.1183 -0.0959
14096W        W30230   2.401  17.656   0.043  0.3058  0.3888  0.0567
14097W        W30231  16.611   8.582  12.681  0.2573  0.1601 -0.0747
14098W        W30232   5.317  14.593  13.734  0.0335  0.0925 -0.1170
14099W        W30233  15.083  12.008  14.241 -0.1887 -0.0731 -0.1423
14100W        W30234   4.071  12.667   3.032 -0.0169  0.0344 -0.3356
14101W        W30235   3.448   6.738   0.664 -0.0253  0.0227  0.2141
14102W        W30236   9.027  10.176   1.280 -0.0257 -0.1551 -0.1826
14103W        W30237   2.352   1.333  13.475 -0.0651 -0.0518  0.0293
14104W        W30238   0.910   4.588   0.945  0.1016  0.1792  0.0112
14105W        W30239  12.809   5.359  14.203 -0.2527  0.0052  0.0450
14106W        W30240   6.024   9.447  14.504 -0.2139 -0.0298 -0.0032
14107W        W30241  15.343   0.152   3.926 -0.2512  0.0571 -0.2186
14108W        W30242   1.250   7.190  13.101 -0.0841  0.2611 -0.0224
14109W        W30243  14.115   7.661   4.424  0.0486 -0.0166  0.2463
14110W        W30244  11.810  11.414   4.008  0.3868 -0.1306  0.2541
14111W        W30245   7.942   9.700   3.805 -0.2515 -0.0404 -0.3887
14112W        W30246   1.880  11.236   4.035 -0.1604  0.0295  0.2716
14113W        W30247   7.857   6.059   3.071  0.2557 -0.2222 -0.1521
14114W        W30248  11.117   3.329   3.344 -0.0582 -0.1436 -0.2505
14115W        W30249   3.466  19.125  11.076 -0.1978 -0.1580  0.1208
14116W        W30250  12.054   7.752   3.503 -0.0451 -0.0650 -0.0436
14117W        W30251   4.580  10.334  11.204  0.2636  0.2410 -0.0760
14118W        W30252  14.800   3.852   2.268 -0.1478 -0.0140 -0.1179
14119W        W30253   9.651   9.514  13.788 -0.2258  0.1841 -0.0077
14120W        W30254   3.423   6.429  10.443  0.1926 -0.3299 -0.1129
14121W        W30255   7.799   0.367   4.786  0.0351  0.1764  0.1162
14122W        W30256   8.218   0.051  12.796  0.2900 -0.0607 -0.0822
14123W        W30257   3.506  15.398  15.184 -0.2410  0.2032 -0.1233
14124W        W30258   6.730  15.973   0.175 -0.0878  0.2136 -0.2237
14125W        W30259   0.456  16.290   4.381 -0.1810  0.1667  0.2569
14126W        W30260   1.226   4.171   0.393  0.0673 -0.1277  0.5906
14127W        W30261   3.434   0.923  13.541  0.1048  0.0881  0.2526
14128W        W30262  18.924  19.015   3.839 -0.0807  0.1083 -0.0237
14129W        W30263   4.896   5.976  13.581  0.0958 -0.0672  0.1255
14130W        W30264  10.377  12.966   5.776 -0.1702  0.1931  0.0536
14131W        W30265  11.254   3.671   4.838 -0.3277 -0.2741 -0.1976
14132W        W30266  10.014   8.786   2.196 -0.1110  0.0358  0.0538
14133W        W30267   0.848   6.132  14.242  0.0899 -0.0570  0.0119
14134W        W30268  10.723   3.426  14.140 -0.0193  0.0192 -0.0529
14135W        W30269  13.707  10.231  11.140  0.4640 -0.0938 -0.1847
14136W        W30270  16.624   6.783   4.145  0.1038 -0.2581  0.4737
14137W        W30271  17.344  16.389   3.531  0.0883  0.3711 -0.1949
14138W        W30272   5.669  11.649   4.707  0.2587  0.0639  0.0953
14139W        W30273   1.231  16.673  12.422 -0.1093  0.5472  0.1793
14140W        W30274  18.483  10.773   0.012  0.1409 -0.5484  0.3408
14141W        W30275   7.050   2.527  12.180 -0.2431 -0.1567 -0.1832
14142W        W30276  19.078   0.422   0.014  0.0872 -0.0561 -0.0117
14143W        W30277   8.306  18.098  10.529  0.0526  0.0627  0.0501
14144W        W30278  15.113   6.610   3.654  0.2732 -0.0714  0.1348
14145W        W30279   5.381   9.709  10.715  0.0886 -0.1102  0.0274
14146W        W30280   2.265   2.361   2.650 -0.0779  0.2069  0.3630
14147W        W30281   1.757   2.831  11.566  0.3278 -0.1262 -0.0381
14148W        W30282   5.497  13.763  12.879  0.2819  0.1653 -0.0168
14149W        W30283   9.868   7.166  13.583  0.1391 -0.1686 -0.0052
14150W        W30284   0.535  17.254   4.091  0.2842  0.0362  0.3441
14151W        W30285  15.690  18.438   1.415 -0.2330 -0.1983 -0.0553
14152W        W30286  17.029  15.349   1.859 -0.0550 -0.1826 -0.1415
14153W        W30287  10.630  10.434  14.153  0.5692 -0.2010 -0.0387
14154W        W30288  13.927   3.225   9.752 -0.0602  0.2521 -0.0098
14155W        W30289  16.332   7.280   0.058 -0.0102 -0.0768  0.0817
14156W        W30290  15.715   8.191   4.435 -0.0856 -0.3186  0.0657
14157W        W30291   0.483  10.306  10.838 -0.3146  0.0005  0.0002
14158W        W30292   3.627  11.797   3.094 -0.2057 -0.0954 -0.4187
14159W        W30293  18.766   0.310  12.107  0.0689  0.0613  0.0885
14160W        W30294   5.575   4.158   3.922  0.0976  0.2425 -0.2281
14161W        W30295   0.843  10.862  10.332  0.3464 -0.1491  0.2759
14162W        W30296   1.991  17.378   0.843  0.0670  0.2814 -0.2129
14163W        W30297  15.686   3.151   4.091 -0.0336 -0.0976  0.0051
14164W        W30298  15.482   3.830  11.290  0.0158 -0.3886 -0.1975
14165W        W30299  11.078  17.887   2.751  0.1876  0.1026 -0.0884
14166W        W30300  17.324  17.956   3.706 -0.0574  0.1896  0.0187
14167W        W30301  15.751  12.733  12.937 -0.0062  0.0744 -0.1137
14168W        W30302   1.323   7.632   4.691 -0.1655  0.0887  0.2788
14169W        W30303   0.969  11.799  14.167 -0.2044 -0.0159  0.0365
14170W        W30304  13.047   0.988   3.437  0.1519  0.0479 -0.0367
14171W        W30305  16.496  10.998   2.130 -0.2597 -0.1790  0.0593
14172W        W30306   0.651  16.455  13.949  0.3962 -0.1906 -0.0631
14173W        W30307   0.733   0.110  11.985 -0.2690 -0.1581  0.1956
14174W        W30308   2.018  15.926   5.497  0.2151 -0.0310  0.1774
14175W        W30309  17.605  12.496  11.301 -0.0676  0.1051  0.2140
14176W        W30310  16.103  10.917   4.608 -0.0955  0.0040  0.0576
14177W        W30311   7.913   8.663  11.951 -0.1306  0.1715 -0.3365
14178W        W30312   3.127   5.025  15.071  0.2267  0.2014 -0.1714
14179W        W30313  17.868   7.346  10.739 -0.3805 -0.1322 -0.4339
14180W        W30314   8.324   0.253  11.229 -0.1224  0.2712 -0.0265
14181W        W30315   5.298   7.632  12.425 -0.1089 -0.1783  0.0393
14182W        W30316  16.607   9.554   1.789  0.0152  0.1615  0.1490
14183W        W30317  14.638  14.798   2.716 -0.2474 -0.3263  0.0908
14184W        W30318   6.565   5.257  12.179  0.1023  0.0218 -0.0429
14185W        W30319   7.677   3.969   0.493 -0.2274  0.1294  0.0564
14186W        W30320  12.008  12.950   2.199  0.0810 -0.2941 -0.0464
14187W        W30321  16.846  12.677  10.201 -0.1958  0.1187 -0.1499
14188W        W30322   8.773  12.893  14.880 -0.1152 -0.1315 -0.0795
14189W        W30323  14.807  14.881   1.822 -0.0517  0.1108  0.2481
14190W        W30324  17.133  10.129  13.137 -0.0929  0.3801 -0.1994
14191W        W30325   4.504  11.909   4.554  0.2557  0.1622  0.3206
14192W        W30326  11.555   7.005   0.827 -0.0194  0.0534 -0.1571
14193W        W30327  11.828  18.025  14.324  0.2939 -0.0931  0.0017
14194W        W30328  15.768   6.152   3.168  0.0104 -0.2480  0.1527
14195W        W30329   2.707  14.975  10.255  0.1504 -0.1456  0.1965
14196W        W30330  12.293   9.662  12.450  0.1054  0.0186  0.0964
14197W        W30331  12.902   9.152   2.102  0.1952 -0.0172  0.1714
14198W        W30332   6.832   6.501  11.338  0.2270  0.1051 -0.0582
14199W        W30333  15.777  16.624   0.734  0.4015 -0.0639 -0.1679
14200W        W30334   1.423  12.832  13.781  0.1832 -0.0742 -0.0364
14201W        W30335   5.675  13.201  14.227  0.1929 -0.0860 -0.0738
14202W        W30336   6.235   3.203   1.301  0.1991  0.0712  0.1368
14203W        W30337   3.717   1.572  12.950  0.1986  0.1061  0.0256
14204W        W30338  12.659  17.165   0.744 -0.1966 -0.1232 -0.1100
14205W        W30339  18.181  14.877  14.967  0.0393 -0.0511  0.3004
14206W        W30340  14.930  14.714  12.403 -0.0286  0.0742 -0.2820
14207W        W30341  15.214   3.184  12.929  0.2858  0.1867 -0.0847
14208W        W30342   4.802  14.735  14.945  0.1115 -0.0705 -0.0191
14209W        W30343  18.773   2.022   3.173  0.2061 -0.1391 -0.0037
14210W        W30344   4.236  13.906  11.763 -0.1165 -0.2358 -0.0044
14211W        W30345  13.566  16.550  12.866  0.2043  0.2336 -0.0602
14212W        W30346   6.510   1.047   4.740  0.1234  0.2648 -0.0300
14213W        W30347  13.138  17.777  11.723  0.0349  0.3811 -0.3273
14214W        W30348   6.283   2.487  14.630 -0.1672  0.0788 -0.1054
14215W        W30349  17.121   6.809   4.302  0.0866 -0.0732 -0.0151
14216W        W30350  14.875   4.358   0.995 -0.1287  0.0345 -0.4173
14217W        W30351   2.208  11.480  12.883  0.1650 -0.1969  0.1002
14218W        W30352  10.578  17.828   2.634 -0.0913 -0.0936  0.1813
14219W        W30353   6.591  18.908   0.750  0.0639 -0.1994 -0.2763
14220W        W30354  18.054   4.601  14.176 -0.1088 -0.2402  0.0705
14221W        W30355  16.209   9.116   2.556  0.0696 -0.1830  0.1786
14222W        W30356   4.193   8.000  11.916 -0.1682  0.1675  0.0607
14223W        W30357  10.799  10.649  14.648  0.0748 -0.1958 -0.0366
14224W        W30358  16.799   5.807  13.752  0.3396  0.2170  0.0721
14225W        W30359  10.455   7.048   3.980  0.0294  0.0321 -0.3223
14226W        W30360  17.293  16.174   2.286  0.1498 -0.1624  0.0478
14227W        W30361  15.889   2.699   3.644  0.1719 -0.2461 -0.1505
14228W        W30362   8.888   5.039  13.427  0.0804  0.0333 -0.3221
14229W        W30363  18.533  17.966   5.822  0.0859  0.1345 -0.0587
14230W        W30364   0.728   9.568  12.947 -0.0036 -0.1253  0.1463
14231W        W30365  14.876  18.815  13.210  0.1438  0.2126  0.4930
14232W        W30366  17.207   2.773   0.173 -0.0712  0.1530  0.0116
14233W        W30367   9.748   4.496   3.998 -0.1348 -0.2988 -0.2569
14234W        W30368   4.200   3.076   4.572 -0.2064  0.0202  0.0088
14235W        W30369   2.676   9.382   0.202 -0.4702 -0.1471 -0.1797
14236W        W30370  16.037  18.856  12.839  0.1013  0.1113 -0.0223
14237W        W30371  11.479  15.044  11.791  0.2565 -0.0695  0.2497
14238W        W30372   5.658  18.416   0.986  0.2794  0.1824 -0.1386
14239W        W30373  12.507  12.917   1.440  0.0105 -0.1296 -0.3242
14240W        W30374   8.070   4.330   1.871 -0.0358 -0.0025  0.1832
14241W        W30375   7.743  14.665   2.462 -0.0222  0.0928 -0.0889
14242W        W30376   1.099  16.108   3.508  0.1395  0.0950  0.0143
14243W        W30377   3.664  13.324  14.402 -0.1641  0.3099  0.1795
14244W        W30378   6.369  13.843  14.552 -0.3256  0.0890 -0.0878
14245W        W30379   0.918  18.284   3.648  0.1004 -0.3119  0.0166
14246W        W30380   8.363  12.936  14.477  0.2040 -0.1444 -0.3543
14247W        W30381   6.250   9.331   0.835 -0.1729  0.0985 -0.0246
14248W        W30382   6.401   6.162  12.498  0.3599 -0.1024 -0.2818
14249W        W30383  10.812  16.847   2.895 -0.0754  0.0998 -0.2144
14250W        W30384   9.320   4.971   1.243  0.0308 -0.1636 -0.0055
14251W        W30385  14.240   6.883   4.592  0.1986 -0.1419 -0.2234
14252W        W30386   9.065  18.951   0.115  0.1752 -0.1201 -0.1485
14253W        W30387  12.729   5.432   3.477 -0.1951  0.0727 -0.0069
14254W        W30388  16.597  13.212   0.412 -0.3013 -0.1043  0.3834
14255W        W30389   2.049   8.840  14.991 -0.0450 -0.0125 -0.2653
14256W        W30390  10.322  10.677  12.451 -0.2358  0.1114 -0.0045
14257W        W30391   3.475  18.215   1.651  0.0356  0.0233 -0.2426
14258W        W30392   9.529   3.444   4.390  0.1997  0.1914 -0.0740
14259W        W30393   0.133   3.750  12.098 -0.1923  0.0242 -0.0862
14260W        W30394   0.090  13.888   5.067  0.1067  0.1419 -0.2970
14261W        W30395  13.783   7.490  10.851  0.1756  0.1359  0.0818
14262W        W30396  12.898  16.954   1.134  0.1449  0.1393  0.0704
14263W        W30397  15.390  10.320   9.766  0.4024  0.2622 -0.2645
14264W        W30398  13.175  16.056   4.090  0.1692 -0.0018 -0.6587
14265W        W30399   5.394  11.064   1.034  0.2211 -0.1994 -0.0906
14266W        W30400   3.211  16.272  14.192  0.2391 -0.2059 -0.1561
14267W        W30401   6.776  18.158   3.518 -0.2034  0.1160 -0.0204
14268W        W30402  17.745   9.402  11.869 -0.0203 -0.2956  0.0589
14269W        W30403  18.095  11.066   1.559  0.0791  0.3455 -0.0250
14270W        W30404  16.542   0.153  12.966 -0.0563  0.1740  0.0278
14271W        W30405   1.081   4.075   1.655 -0.2372 -0.1253  0.1292
14272W        W30406  14.370   6.402   9.805 -0.5057  0.2126  0.1312
14273W        W30407  11.486   6.079   1.563 -0.0326  0.0261 -0.3757
14274W        W30408   9.978   0.721  14.684 -0.1898  0.0001 -0.0192
14275W        W30409   5.860  17.764  13.525 -0.1020  0.1595 -0.2325
14276W        W30410   6.125   4.180   0.924  0.0426  0.2962  0.1117
14277W        W30411  15.207   4.405  12.595 -0.1218 -0.0892 -0.1487
14278W        W30412  16.454  16.425   1.187  0.1071 -0.1969 -0.0295
14279W        W30413   7.461   8.621   1.457  0.0004  0.1851 -0.1872
14280W        W30414   9.844   2.804   4.670 -0.2260  0.0942  0.1743
14281W        W30415   7.409  14.080   0.881 -0.2367 -0.1317 -0.1416
14282W        W30416   7.044   4.818   4.189 -0.2263  0.0977  0.0797
14283W        W30417   9.637  11.533   4.593 -0.2454  0.2987  0.1799
14284W        W30418   7.530   6.406   2.111  0.0370  0.2457 -0.1367
14285W        W30419  17.429   7.982   5.104  0.0928 -0.2115  0.0622
14286W        W30420  12.257   6.198   2.940  0.2490 -0.0082  0.0418
14287W        W30421  12.797  17.658   0.622 -0.2354 -0.1773 -0.2227
14288W        W30422   7.608   2.242   4.288 -0.2571  0.4729  0.2048
14289W        W30423  10.040  13.115   3.577 -0.0314 -0.0834 -0.0002
14290W        W30424   5.616  10.407  14.383  0.1613  0.1656  0.3253
14291W        W30425   0.488  17.173   2.689 -0.2132 -0.3386 -0.0772
14292W        W30426   1.907  15.967   0.778  0.0752  0.0359  0.0810
14293W        W30427   3.630  11.298  14.333 -0.0300  0.2043 -0.0322
14294W        W30428  19.054  10.455  13.540 -0.2873 -0.2119 -0.0681
14295W        W30429  13.186   8.684   1.448  0.0479 -0.1143  0.0039
14296W        W30430   9.157   8.960  11.340 -0.0499  0.0845  0.0328
14297W        W30431   9.157  10.231  13.897 -0.1404  0.0852  0.2583
14298W        W30432  12.885  14.283   4.801 -0.0377  0.1580 -0.0206
14299W        W30433   8.598  11.208  12.949  0.0634 -0.1514 -0.0088
14300W        W30434   0.173  14.334   1.036  0.0271  0.0580 -0.3006
14301W        W30435   3.521   6.456  10.953  0.0439  0.2202  0.2195
14302W        W30436   6.089   9.015  15.205  0.1108  0.2492  0.0669
14303W        W30437   9.775  17.895   3.001 -0.1465 -0.2859  0.0016
14304W        W30438  16.354   7.280   1.156  0.2183 -0.2602  0.0380
14305W        W30439   6.870  12.438  14.997 -0.0859  0.0149 -0.0798
14306W        W30440   4.946   0.389  11.663 -0.2175 -0.0066 -0.3419
14307W        W30441   6.190  12.346   3.007 -0.2079  0.0422  0.0033
14308W        W30442   2.280   9.519  14.009  0.1626  0.0771 -0.2532
14309W        W30443   1.676  11.625   4.977 -0.1930 -0.0193  0.0590
14310W        W30444  14.467   9.127   0.178 -0.2182 -0.0306 -0.3009
14311W        W30445  11.299  15.880  14.213  0.0334 -0.0775 -0.0063
14312W        W30446   9.349   8.310  13.008  0.2423  0.0571 -0.1075
14313W        W30447  15.961  14.158   3.478 -0.0720  0.1758 -0.0481
14314W        W30448   2.009  10.243  10.269  0.0746  0.2526 -0.2119
14315W        W30449   0.275   4.116   1.423  0.0721  0.2696 -0.2423
14316W        W30450   2.571  18.909  13.932  0.0577  0.2837  0.1754
14317W        W30451   8.054  17.967   0.336 -0.3775 -0.2403  0.2648
14318W        W30452   2.828   8.417   1.166  0.0763  0.1949 -0.0828
14319W        W30453   6.507  18.978  12.827 -0.0744 -0.1780  0.3593
14320W        W30454  14.896   2.037  14.541  0.1229  0.2953 -0.1856
14321W        W30455   7.648   2.679   4.483  0.1003 -0.3014 -0.1649
14322W        W30456   9.038  12.677   3.489  0.1677 -0.1943 -0.1144
14323W        W30457  15.838   3.243   1.148  0.1015  0.1727  0.0913
14324W        W30458  12.315   8.550   3.019 -0.2327  0.0953  0.0369
14325W        W30459   4.783   4.595  10.319  0.3890 -0.0840  0.2527
14326W        W30460  14.616   5.182  13.243 -0.0019 -0.0860  0.1861
14327W        W30461   0.830   2.368   2.108  0.0539 -0.0408  0.0463
14328W        W30462  12.270   7.533   1.653  0.2520  0.0402 -0.0882
14329W        W30463   3.466   0.351   1.970 -0.0002  0.2674 -0.2923
14330W        W30464   0.357  18.944  14.348  0.0239  0.0965 -0.0522
14331W        W30465   8.524   9.755   2.888  0.1695  0.0364  0.2348
14332W        W30466   2.434  11.917   4.269 -0.2213 -0.5041 -0.0763
14333W        W30467  11.025  16.819  11.424 -0.3646 -0.1004 -0.3272
14334W        W30468   7.743   8.261   1.702  0.1722  0.1454 -0.2621
14335W        W30469   7.339   7.344   3.263 -0.0713 -0.3053 -0.0137
14336W        W30470   6.270  17.353   2.921 -0.1472  0.2431  0.0977
14337W        W30471  15.288  12.971   4.861  0.2854 -0.0732  0.2102
14338W        W30472  13.493   8.964   5.078  0.3599 -0.0156  0.0154
14339W        W30473   4.892   2.553  14.545 -0.0366  0.2145 -0.2559
14340W        W30474   8.956  12.079  13.650 -0.0308  0.2683 -0.1865
14341W        W30475   5.457  15.100  10.041 -0.3094 -0.0773 -0.1290
14342W        W30476   1.933  12.216   1.449 -0.0464  0.3192 -0.1682
14343W        W30477  16.029   8.963  13.001 -0.0212  0.2995  0.2195
14344W        W30478  14.759   7.532   4.819  0.0289  0.1113  0.2925
14345W        W30479  11.467  16.625  10.603 -0.1803  0.0324 -0.2019
14346W        W30480   8.354   5.151  11.344  0.1777 -0.1378  0.0301
14347W        W30481   7.193   8.021   2.847 -0.1878  0.1594 -0.1900
14348W        W30482   2.778  18.326  13.875 -0.0449 -0.2030  0.0053
14349W        W30483   2.674  11.545   0.050 -0.4175 -0.0196  0.2092
14350W        W30484   3.016   4.960  12.365 -0.0904 -0.0683  0.0081
14351W        W30485   1.543  12.216   1.812  0.0479  0.0088  0.3798
14352W        W30486   4.114  13.447  10.767  0.0067  0.0404 -0.0120
14353W        W30487   4.543   7.952  13.496 -0.0875  0.3988  0.5193
14354W        W30488  13.988  10.231  10.608  0.1562 -0.0228  0.0862
14355W        W30489   1.802   8.091  12.608  0.1529  0.1285  0.2303
14356W        W30490   4.311   6.778  10.506  0.1683  0.1843  0.1224
14357W        W30491   7.878  16.553   1.363  0.1204 -0.1528  0.2133
14358W        W30492   4.572   0.133  14.722  0.2850  0.1959  0.2525
14359W        W30493  16.072  17.031   3.129  0.1546 -0.0926  0.3595
14360W        W30494  15.458   7.920  14.487 -0.2166  0.1951  0.0297
14361W        W30495  16.082  17.637   4.303  0.3369  0.0637  0.2992
14362W        W30496   2.253   7.503   5.089  0.1218  0.0606 -0.1208
14363W        W30497   3.031  16.404   4.943 -0.2457 -0.0812 -0.1298
14364W        W30498  13.690  16.332   3.346  0.0266 -0.1242 -0.5553
14365W        W30499   1.795  12.412   5.461 -0.0871 -0.0426  0.0670
14366W        W30500   7.537   0.341  12.611  0.0160  0.0412  0.0567
14367W        W30501   3.465   2.721  12.828 -0.2692 -0.0367 -0.0289
14368W        W30502  14.045   3.152  12.336  0.6913  0.1344  0.2394
14369W        W30503   5.702   5.085   4.784  0.0898 -0.2980 -0.0057
14370W        W30504  13.383   8.887   2.581  0.1651  0.0910 -0.2988
14371W        W30505   5.399   2.733  11.845  0.2260 -0.3007 -0.0510
14372W        W30506   5.661   0.190  12.912 -0.0150 -0.0873 -0.2887
14373W        W30507   5.552   9.628  12.878  0.2262 -0.2978  0.3201
14374W        W30508   8.398  16.196  14.956 -0.1552  0.1386 -0.3328
14375W        W30509  14.071  16.002   0.385  0.1511 -0.1215  0.2498
14376W        W30510   4.743  18.003  14.526 -0.2543 -0.1866  0.4357
14377W        W30511  17.124   5.785   1.635  0.0873  0.0107 -0.0697
14378W        W30512  11.959   5.748  10.521 -0.0480  0.0275 -0.0982
14379W        W30513  16.437  13.599  12.294 -0.2958  0.2404  0.1814
14380W        W30514   3.107   1.229   3.057  0.0963 -0.1135 -0.0133
14381W        W30515  14.195   5.256  11.445  0.2080 -0.0409  0.3111
14382W        W30516  18.048   9.254   2.714 -0.1437 -0.3527 -0.0244
14383W        W30517  15.468  11.201   3.932  0.0001 -0.1491 -0.3493
14384W        W30518   9.485  14.454  14.080  0.1216 -0.0081  0.3116
14385W        W30519   4.306   3.663   1.652 -0.0926 -0.0670 -0.2149
14386W        W30520  10.515   0.060  13.004  0.0471  0.0691 -0.0890
14387W        W30521   4.465  17.842  10.736 -0.1152  0.2412  0.0656
14388W        W30522  13.233   3.899   0.875 -0.1735 -0.1676 -0.0070
14389W        W30523   8.279   5.071   0.781  0.0093  0.1188 -0.0080
14390W        W30524  13.067   2.096  14.747  0.1399 -0.0808 -0.0906
14391W        W30525  12.721   4.388   4.084 -0.1651 -0.0171  0.0032
14392W        W30526   1.683   7.762   0.473 -0.2392  0.0900 -0.0911
14393W        W30527  10.924  13.495   2.227  0.3348  0.1336  0.2831
14394W        W30528   3.647   9.660  11.648  0.2456  0.0285  0.2678
14395W        W30529   8.752   5.495   2.640  0.3302  0.3733 -0.0384
14396W        W30530  12.124  10.264   1.326  0.7171 -0.1873  0.1554
14397W        W30531   1.208  18.478  12.381  0.0079  0.1031 -0.3285
14398W        W30532   5.442   1.836   9.962  0.1472  0.3386 -0.2192
14399W        W30533  13.236   1.487  11.899 -0.0103 -0.1288  0.0169
14400W        W30534  13.680   3.745   2.579  0.1677  0.2727  0.4412
14401W        W30535   9.387   1.188  10.879  0.0329 -0.0042 -0.2540
14402W        W30536   7.561  15.779  14.117 -0.4487 -0.1685  0.0159
14403W        W30537  17.450   3.223   1.673 -0.0354 -0.3994  0.0720
14404W        W30538   8.201   7.413   4.011  0.1426  0.0583 -0.0555
14405W        W30539  15.171  11.463   0.347  0.2790  0.0460 -0.0952
14406W        W30540   8.748  12.351   3.249  0.1599  0.1405  0.3195
14407W        W30541   3.648   3.567   2.073  0.2295 -0.2622  0.2163
14408W        W30542  12.892   2.200   3.583  0.1216  0.0979 -0.1299
14409W        W30543   7.120  10.425  12.167 -0.3966  0.1282 -0.1379
14410W        W30544  14.668   8.040  10.129 -0.1735 -0.1900  0.0396
14411W        W30545  15.333   9.360   2.997 -0.1191 -0.0341  0.0119
14412W        W30546   5.414  10.015   0.180  0.1409 -0.0410 -0.1373
14413W        W30547  10.825  14.302   4.374  0.1776  0.3143 -0.3254
14414W        W30548  18.249   7.164  10.468  0.0073  0.1820 -0.2452
14415W        W30549  18.111  18.678   4.172  0.0270 -0.4635 -0.1939
14416W        W30550   3.839  13.546  15.146 -0.0856 -0.2664 -0.2895
14417W        W30551   1.960  13.104  14.268  0.1598  0.1033  0.2215
14418W        W30552   4.239   5.801  10.377  0.1496 -0.1256 -0.4875
14419W        W30553   5.876  14.926   2.126 -0.3171  0.1355  0.0218
14420W        W30554   8.238   3.667   0.648 -0.1215 -0.1748  0.3480
14421W        W30555   0.910  17.569   3.837 -0.1084 -0.1038 -0.0014
14422W        W30556  14.891   5.483   5.109  0.2308 -0.1377  0.3212
14423W        W30557  14.014   4.472   4.296  0.2297  0.0209 -0.2530
14424W        W30558   9.502   2.257  12.696  0.1191 -0.0806 -0.0064
14425W        W30559   9.997   7.749   0.446  0.1371 -0.1212  0.0444
14426W        W30560  13.189  15.521   2.178 -0.2611  0.1455 -0.3378
14427W        W30561   2.121  14.628  13.242  0.1906 -0.0732  0.1716
14428W        W30562   1.042   3.171   3.290 -0.2660  0.1574  0.0807
14429W        W30563  12.502   3.077   1.848  0.0709 -0.2663 -0.1803
14430W        W30564  12.389  14.041   3.349  0.0860 -0.1008 -0.1799
14431W        W30565  14.528   8.726   1.188 -0.3076 -0.0645  0.0288
14432W        W30566   0.838   5.403  13.558 -0.0232  0.3334  0.0570
14433W        W30567  13.316   6.787   5.600  0.0189  0.1205  0.0179
14434W        W30568  16.170  11.260   1.797  0.0904  0.1496  0.1135
14435W        W30569  16.140  16.691  11.998 -0.1568  0.0540  0.2331
14436W        W30570  11.124  12.467  12.557  0.0026 -0.1840 -0.0695
14437W        W30571  18.268  14.138  12.339  0.2112  0.0084 -0.1422
14438W        W30572   9.133   0.251  11.784  0.1816  0.3380 -0.1597
14439W        W30573   7.872   7.898   0.824 -0.2367 -0.0691  0.1123
14440W        W30574   5.489  14.824   3.247  0.1889  0.2526  0.0480
14441W        W30575  15.679  18.057   3.287 -0.0926 -0.0863 -0.0585
14442W        W30576   3.890   0.655  12.559  0.0920  0.0582  0.0209
14443W        W30577   0.549  12.753   4.205 -0.0182 -0.1480  0.1759
14444W        W30578   1.744   6.656   0.756  0.0729 -0.0006  0.2234
14445W        W30579   0.606   8.868   2.982  0.1005 -0.2430  0.3039
14446W        W30580   4.966  13.323   4.489 -0.1396 -0.0089 -0.1968
14447W        W30581  16.070   6.857  14.896 -0.1479  0.1346 -0.1361
14448W        W30582   5.464  10.546  12.628 -0.2957 -0.2567 -0.1139
14449W        W30583  12.588   3.497   1.571  0.1518  0.2052 -0.1793
14450W        W30584  11.490   8.124   4.968 -0.2688  0.3249  0.0131
14451W        W30585   2.044  16.316   3.987 -0.0282 -0.3537 -0.1315
14452W        W30586   0.340   2.756   2.622 -0.1955  0.1701  0.1649
14453W        W30587   5.022  17.017  15.001 -0.1400 -0.1213 -0.2095
14454W        W30588   3.629   0.176   1.115 -0.0099 -0.0143 -0.2477
14455W        W30589   4.201   2.244  12.076 -0.0988  0.1298  0.0639
14456W        W30590  18.426  18.930   3.853 -0.1422 -0.1066 -0.2535
14457W        W30591  11.699  18.546   3.185 -0.0644  0.0758  0.0065
14458W        W30592  13.282  11.908  13.819  0.3352 -0.2428 -0.0349
14459W        W30593  11.416   4.079   0.798  0.1016  0.1292  0.1146
14460W        W30594   7.647  13.121   5.607 -0.0813  0.1785  0.0885
14461W        W30595  17.089  13.967  14.103  0.2148  0.0141 -0.2241
14462W        W30596  11.365   2.615  11.761 -0.1182 -0.1721 -0.0926
14463W        W30597  13.787  17.900   0.616 -0.0648 -0.0935  0.0841
14464W        W30598  13.497   1.756   3.127  0.0835  0.0055 -0.0824
14465W        W30599   1.177  10.856  12.281  0.1222 -0.0066  0.1174
14466W        W30600   3.227  10.070   1.513 -0.1255 -0.0512 -0.0117
14467W        W30601   4.067   1.779  13.297 -0.1641 -0.0635  0.0170
14468W        W30602   9.860   1.712  12.058 -0.2721 -0.1989 -0.1509
14469W        W30603  14.511  11.443   1.958  0.2141 -0.2180 -0.0078
14470W        W30604  10.005  10.570   0.132  0.1340  0.1808 -0.2095
14471W        W30605  17.245   7.491   0.222  0.2003  0.0625 -0.1428
14472W        W30606  16.831   3.016  14.089  0.0041  0.1724 -0.2532
14473W        W30607  13.391  16.828   2.330 -0.3419  0.1501  0.1889
14474W        W30608   9.489  13.351  11.573  0.0809  0.1080 -0.1631
14475W        W30609  15.118  12.376  12.413 -0.0528 -0.0115  0.0867
14476W        W30610   0.316   2.182   0.580  0.0296 -0.0036 -0.2119
14477W        W30611   8.657  10.579  12.612  0.2645  0.0463  0.1061
14478W        W30612   0.562  12.385   3.828 -0.0090 -0.0232 -0.0577
14479W        W30613  16.800   4.453   4.969  0.2511  0.3181 -0.0610
14480W        W30614  13.079   0.186   3.747  0.0209  0.1344  0.1128
14481W        W30615   3.434  13.301  13.829 -0.0770 -0.0934  0.2006
14482W        W30616   6.251   1.030   3.087  0.1638  0.1347  0.1085
14483W        W30617   8.039   8.565   2.017  0.1501 -0.1117 -0.3108
14484W        W30618  15.356  12.029   2.729  0.1049 -0.0190 -0.2535
14485W        W30619   7.524  12.784   4.563 -0.0557  0.0523 -0.2465
14486W        W30620   9.070  12.278  14.249 -0.1408 -0.1993 -0.0089
14487W        W30621  17.525   2.993   2.308  0.0586  0.3243 -0.1935
14488W        W30622   2.081   6.577  12.751 -0.1677 -0.0170 -0.2362
14489W        W30623   1.277  10.747   3.101 -0.1972  0.1130  0.0624
14490W        W30624   0.700   2.516   9.535  0.2691  0.0708  0.1734
14491W        W30625  12.151  10.430   3.265 -0.1120 -0.0685  0.2904
14492W        W30626  16.600   8.439   4.798 -0.1190  0.0564 -0.1247
14493W        W30627  13.143  14.800  14.003 -0.0644  0.1128  0.3489
14494W        W30628   1.463   6.287  13.316  0.0793 -0.3497  0.3969
14495W        W30629   4.285   8.516   0.649 -0.1462 -0.0355 -0.3555
14496W        W30630  14.143  16.599   9.462 -0.0863 -0.0704  0.1483
14497W        W30631  10.106   6.285   2.353 -0.1157 -0.1564 -0.3313
14498W        W30632   2.801   9.163   1.823  0.2535  0.2494 -0.1788
14499W        W30633   5.455   5.926   8.912  0.1280  0.1622 -0.2718
14500W        W30634  13.481   2.207   1.657 -0.0733  0.3098 -0.0255
14501W        W30635   9.085   4.147  10.467 -0.0251 -0.0413 -0.0712
14502W        W30636   3.966  13.387  12.284 -0.2707 -0.0376 -0.0227
14503W        W30637   1.549  15.779   5.475 -0.1384  0.0048  0.1544
14504W        W30638   9.079  18.912  14.442 -0.1940 -0.1082 -0.1059
14505W        W30639  14.064   1.651   4.336  0.1803 -0.1746 -0.2487
14506W        W30640   4.587  17.986   4.473  0.5123  0.0261  0.2977
14507W        W30641   9.640  11.098   2.140 -0.1958 -0.0351  0.1821
14508W        W30642  10.292  15.597   1.662  0.1277  0.0575 -0.3360
14509W        W30643   7.147  12.091   2.524 -0.0453 -0.1668 -0.0442
14510W        W30644   8.120  10.864   1.050  0.2491  0.2149  0.0502
14511W        W30645  15.758  19.115   5.037  0.1172  0.0564  0.2090
14512W        W30646  12.834   6.104  12.260 -0.0532  0.0184  0.0637
14513W        W30647   8.345   4.577   0.698 -0.0326 -0.0082 -0.1622
14514W        W30648   4.390  16.298  14.890  0.1015 -0.0398  0.3405
14515W        W30649  15.117   4.523   3.777  0.0701 -0.0298  0.3596
14516W        W30650   0.006   7.665  13.515  0.1295 -0.1362  0.3156
14517W        W30651  12.011   1.784  14.189  0.2494  0.1678  0.2824
14518W        W30652  12.162  15.359  14.243 -0.0908  0.2237  0.0378
14519W        W30653   1.488   2.653  14.579  0.1764 -0.0471  0.2837
14520W        W30654   9.303   2.279   5.210 -0.0232  0.2606  0.0573
14521W        W30655  16.360   6.431  12.804  0.0426  0.1111 -0.2040
14522W        W30656   0.429   3.286  14.872  0.0640  0.0378  0.2173
14523W        W30657   2.567  12.627  14.897  0.0272  0.0387 -0.2547
14524W        W30658  16.159  14.161  10.972  0.3674 -0.2388  0.3698
14525W        W30659   8.301   0.104   1.101 -0.0220  0.5099 -0.1318
14526W        W30660  12.714  19.008  13.756 -0.2523  0.3119 -0.0053
14527W        W30661   0.283  13.333   1.832  0.1616 -0.1260 -0.2111
14528W        W30662   1.954   5.740   1.578  0.1729 -0.1850 -0.0972
14529W        W30663  17.614  16.878   0.393  0.0938  0.0222  0.3180
14530W        W30664   6.836   6.448   1.396 -0.0090  0.3671  0.2518
14531W        W30665  17.693   8.558  10.259  0.0245  0.4457 -0.0509
14532W        W30666  16.385   2.438   1.758  0.1360 -0.2320  0.5297
14533W        W30667  12.738  11.153  12.917  0.0584 -0.1140  0.1588
14534W        W30668  11.910  16.395   4.981  0.1303  0.1681 -0.0295
14535W        W30669  12.677   8.477  11.326 -0.2525  0.0824 -0.1497
14536W        W30670   2.221  15.868   0.413 -0.0296  0.1257 -0.0342
14537W        W30671   4.288   9.111   2.479 -0.3754 -0.4334  0.1427
14538W        W30672   5.180   7.547  11.079 -0.1238 -0.0608  0.1176
14539W        W30673  14.996   0.484   2.559  0.1006 -0.3249 -0.0132
14540W        W30674   4.812   5.198   3.107 -0.0507 -0.0741  0.1731
14541W        W30675  12.228  12.732  10.927 -0.1939  0.3154 -0.1888
14542W        W30676  14.817  14.231   4.613 -0.0812 -0.0950  0.3711
14543W        W30677   5.272  14.116  11.408 -0.1182 -0.3410  0.3993
14544W        W30678  12.143  14.857   2.761  0.0278  0.3898 -0.0053
14545W        W30679  13.238  11.199   3.930  0.2216  0.0474  0.3439
14546W        W30680  15.399   6.364  14.798 -0.0357  0.0605  0.2496
14547W        W30681  17.678  18.003  14.645  0.2308 -0.1540  0.0853
14548W        W30682  13.424   5.768  12.897 -0.2414  0.3312 -0.0060
14549W        W30683   8.553  15.661  13.068  0.2882 -0.1224  0.0884
14550W        W30684  10.664   4.309  14.409  0.4944 -0.3810  0.0668
14551W        W30685   5.972   6.408   4.407  0.0001  0.2062  0.0268
14552W        W30686   0.857   2.504  12.185 -0.2256 -0.2428 -0.1692
14553W        W30687  18.410   4.080   2.680 -0.2750  0.1221  0.0540
14554W        W30688   1.403  18.570  11.519 -0.1061 -0.0342  0.0600
14555W        W30689  14.359  16.524   9.870 -0.2141 -0.1529  0.0850
14556W        W30690   1.440   8.890  13.874  0.1333 -0.2717 -0.0805
14557W        W30691  10.132   7.459  12.450  0.3736  0.1954 -0.0306
14558W        W30692  10.127  12.714   3.308 -0.5605 -0.2572  0.4477
14559W        W30693   3.560  14.452   1.683  0.0919 -0.5609 -0.2529
14560W        W30694  10.415   5.090  13.282  0.1967  0.0376 -0.2679
14561W        W30695  16.741  13.232   3.311  0.0431 -0.2114  0.1277
14562W        W30696   6.320   7.084  13.318  0.2062  0.0368  0.2442
14563W        W30697  14.358  10.419   1.013  0.2899  0.1998  0.0254
14564W        W30698   6.515   9.582  11.813  0.2142  0.2041 -0.5534
14565W        W30699   4.951   0.259  13.038 -0.0463 -0.3739 -0.0484
14566W        W30700  12.964   1.601  12.300 -0.2163  0.0056 -0.1762
14567W        W30701  18.857   3.382  13.110  0.3123  0.0344 -0.0436
14568W        W30702  16.867   6.381   4.202  0.0735  0.0655  0.0194
14569W        W30703   7.368  11.648   0.187  0.1134  0.1792  0.1418
14570W        W30704  18.410   4.984  14.150  0.0630  0.0174  0.1105
14571W        W30705   1.951  16.291  12.323 -0.2956 -0.1639  0.1029
14572W        W30706  15.468  14.809  14.669  0.0529 -0.2149 -0.0203
14573W        W30707   6.970  12.880  14.147  0.2169  0.0146  0.0418
14574W        W30708  13.264  15.356   3.656 -0.0956 -0.0942 -0.0189
14575W        W30709   0.788  15.894   4.668 -0.1120 -0.2202  0.2083
14576W        W30710   1.645   5.311   4.153  0.2382  0.1786 -0.0745
14577W        W30711  12.020   6.661   5.257  0.0447 -0.0251  0.0122
14578W        W30712   4.213   2.237  10.104  0.3069  0.0090  0.0482
14579W        W30713  14.162   7.134  14.730  0.1012  0.0424 -0.2180
14580W        W30714  14.954  12.903  14.261 -0.1165 -0.0186 -0.0837
14581W        W30715  12.655  15.863  11.656 -0.0388  0.2477 -0.1106
14582W        W30716   3.284   8.934   5.596 -0.1907  0.0244 -0.3267
14583W        W30717   9.259   4.942   2.131  0.1952 -0.2004 -0.4181
14584W        W30718   1.785  14.526  14.939 -0.1501 -0.2868  0.2587
14585W        W30719  10.206  12.544  12.109  0.0751  0.1437 -0.5004
14586W        W30720  16.705  18.798  10.958  0.3428 -0.0634 -0.2489
14587W        W30721  11.969   2.337  14.911 -0.0441  0.3316  0.1619
14588W        W30722   4.869  16.116  14.781 -0.1124 -0.2452  0.0990
14589W        W30723   7.699  15.567   2.176 -0.0941  0.0545  0.1931
14590W        W30724   5.917   8.519  14.483 -0.1927 -0.0926 -0.1762
14591W        W30725   1.509  12.146   2.362  0.2975 -0.0006  0.0287
14592W        W30726  14.751  15.159  12.432 -0.0721  0.2412 -0.0654
14593W        W30727   7.778  11.893   3.259 -0.2333 -0.2018  0.1364
14594W        W30728   4.738  14.715   3.966 -0.0577  0.2517 -0.0089
14595W        W30729  14.370  14.283  14.122  0.0847  0.2000 -0.1107
14596W        W30730   3.375  10.057  11.788  0.2929  0.0696  0.2762
14597W        W30731  15.499   5.369   5.636 -0.0948  0.1501 -0.1416
14598W        W30732  17.145  18.544   3.909  0.1920 -0.1154 -0.0991
14599W        W30733   5.316  14.235   3.867 -0.3261 -0.0151  0.0062
14600W        W30734   4.612  15.215   5.082 -0.3124  0.1165 -0.0854
14601W        W30735  13.321   5.542   2.147 -0.0312 -0.2017 -0.1157
14602W        W30736  16.089  12.443   2.805  0.0033 -0.0198  0.1002
14603W        W30737   9.255   7.099   2.509 -0.1101  0.1507 -0.1920
14604W        W30738   0.512  14.549   4.513  0.2842 -0.1528  0.2533
14605W        W30739   2.283   5.761  12.903 -0.1062 -0.1834 -0.2760
14606W        W30740  15.074   0.139  14.519  0.0316  0.0370  0.1483
14607W        W30741   2.223  11.043   4.409 -0.0745 -0.1563  0.2475
14608W        W30742   0.085  14.607  11.934  0.1217  0.0258 -0.0533
14609W        W30743   7.470   7.226   5.707 -0.2197 -0.1256 -0.2856
14610W        W30744   0.484  18.502  11.744 -0.2242 -0.0089 -0.0524
14611W        W30745  17.256  17.723  13.409 -0.0245 -0.1144  0.0860
14612W        W30746   1.331   6.751   4.599  0.1904 -0.2543  0.1169
14613W        W30747   5.804   5.456  11.813 -0.0569  0.2676  0.0515
14614W        W30748   3.606  18.457  13.472  0.2487 -0.2125 -0.0664
14615W        W30749   4.067  15.785  13.647  0.1688 -0.1280  0.3940
14616W        W30750  10.155  12.410  14.030 -0.0578 -0.0942  0.1239
14617W        W30751  18.570   4.205  12.833 -0.0201 -0.0001  0.1453
14618W        W30752   3.272  10.642  10.338 -0.0613  0.0807  0.0647
14619W        W30753   3.147   5.501   5.324  0.1294 -0.2437  0.4065
14620W        W30754   6.170  10.351  12.529  0.0188 -0.0474  0.0297
14621W        W30755   6.430  17.068   4.583 -0.1046 -0.1615 -0.2835
14622W        W30756  13.260  14.673   2.463 -0.1771  0.0498 -0.0783
14623W        W30757   7.796  14.251  11.000 -0.0622  0.1073  0.4352
14624W        W30758  15.890   3.486   0.345  0.2309  0.2617 -0.1850
14625W        W30759  13.414   8.216   5.055  0.0972 -0.4748 -0.1863
14626W        W30760  15.614  17.401  13.877  0.1770 -0.1039  0.0601
14627W        W30761   1.455   5.813  13.307  0.2018  0.0303  0.0595
14628W        W30762  11.310   3.579   0.820 -0.1207  0.3257 -0.1270
14629W        W30763  10.497   8.144   4.778 -0.0642 -0.0659  0.0659
14630W        W30764   6.802   0.377  12.224  0.1370 -0.1617  0.0733
14631W        W30765  14.659   6.003  13.290 -0.0876 -0.3021 -0.0163
14632W        W30766  10.591  16.780   9.949  0.4230 -0.1209  0.0546
14633W        W30767  16.118   7.651   1.528  0.3823  0.1226 -0.1732
14634W        W30768  17.297   1.512   4.636 -0.0006  0.3067  0.3741
14635W        W30769  18.845  13.156   4.474 -0.1615 -0.0347  0.0561
14636W        W30770  18.021  17.638  12.818 -0.2504 -0.0475  0.0769
14637W        W30771   3.884   9.964  12.488  0.0598  0.0337 -0.0472
14638W        W30772   7.965   2.879   0.928  0.0424 -0.0752  0.2523
14639W        W30773   9.231  12.818  12.890  0.0090  0.1324 -0.0247
14640W        W30774   5.428  11.088   2.094 -0.1119 -0.0979  0.0101
14641W        W30775  15.942  12.837  14.796  0.0180 -0.2526  0.3610
14642W        W30776   6.263  18.793   0.268 -0.2824  0.1683 -0.2632
14643W        W30777  18.039   6.281  11.210 -0.0692 -0.2851  0.0479
14644W        W30778  17.080  11.577   3.243 -0.0669  0.2407 -0.1962
14645W        W30779   3.913   7.006  10.967  0.1929 -0.1724 -0.3896
14646W        W30780   4.849  17.924   2.398 -0.3187  0.0934 -0.2278
14647W        W30781   2.858  19.030   0.204 -0.1294  0.3568  0.0971
14648W        W30782  16.135   4.883   4.778  0.2123 -0.1884 -0.1508
14649W        W30783  15.317  10.150   2.361 -0.0578 -0.1982  0.0437
14650W        W30784  11.292  18.587  14.903 -0.2196 -0.1897  0.2020
14651W        W30785   7.707  14.061  14.617 -0.0823 -0.2022 -0.1819
14652W        W30786   0.383   7.530   2.682  0.1549 -0.0911 -0.1212
14653W        W30787  11.406  14.627  10.891 -0.0430 -0.0007  0.3263
14654W        W30788   2.488   3.474   0.426  0.1007 -0.0009  0.1169
14655W        W30789  15.481  13.676   3.619  0.1714 -0.2792  0.2158
14656W        W30790   2.833   5.324   0.166 -0.0864  0.1074  0.2539
14657W        W30791   6.377   2.844   3.840 -0.0943  0.1550 -0.1626
14658W        W30792  10.813   2.304  13.838  0.2723 -0.0498 -0.0196
14659W        W30793   9.275   3.420  12.102 -0.1854  0.1781  0.0241
14660W        W30794   7.202   1.382   3.420 -0.1052  0.0786 -0.0940
14661W        W30795   6.881  18.678  14.100 -0.0992 -0.1721  0.0532
14662W        W30796  14.893   9.138   3.838  0.1668 -0.1718 -0.2819
14663W        W30797   9.082   0.391   0.116 -0.0127  0.1528 -0.3358
14664W        W30798   2.761   4.531   4.167 -0.0505  0.2062  0.2740
14665W        W30799   7.664  10.300  10.962 -0.2053  0.2502 -0.1361
14666W        W30800  13.821   0.893   2.131 -0.1498  0.0252  0.0420
14667W        W30801   5.654   6.360   3.121  0.4635 -0.1382  0.0302
14668W        W30802   6.909  15.529  10.351  0.0296  0.2071 -0.0371
14669W        W30803  18.921  15.352   1.365  0.1448  0.0945  0.2880
14670W        W30804   3.617  16.545   0.880 -0.1210  0.0764 -0.0851
14671W        W30805   2.237  11.121  14.230  0.0200  0.0458 -0.2468
14672W        W30806  13.074  16.354  14.500  0.0512  0.3130  0.1149
14673W        W30807   6.334   3.509   2.294 -0.1291  0.0801 -0.0554
14674W        W30808   0.021  13.025  11.802 -0.1487 -0.0472  0.1419
14675W        W30809  15.606  17.824   0.151 -0.2239 -0.5102 -0.1150
14676W        W30810   3.540  11.751  15.126 -0.0211 -0.1163 -0.2259
14677W        W30811   5.172  17.687  14.232  0.0586  0.0542 -0.0062
14678W        W30812  14.058   4.534   2.304  0.0316  0.2676 -0.1824
14679W        W30813  14.258   9.122  14.696 -0.3199 -0.1144 -0.1624
14680W        W30814   6.196   6.998  11.863  0.0363 -0.1046  0.2276
14681W        W30815   9.519  15.953  10.212 -0.1860 -0.0861  0.0318
14682W        W30816   0.452  10.841  10.666 -0.3126 -0.4337 -0.0066
14683W        W30817   9.401  16.395  10.497  0.0068  0.2963 -0.0229
14684W        W30818   8.081   3.947   4.430  0.0887 -0.0310 -0.1339
14685W        W30819  15.808   4.002  12.670 -0.1965 -0.2040 -0.1923
14686W        W30820   4.714   3.914  14.807 -0.0475 -0.3108  0.1152
14687W        W30821  10.766   9.410   1.115  0.2007 -0.1911 -0.1612
14688W        W30822  16.185  14.075  14.803 -0.1467  0.1685  0.2482
14689W        W30823  13.178   6.498   4.592 -0.1814  0.0218 -0.1732
14690W        W30824   2.833  13.369   1.462 -0.0179  0.0809 -0.1714
14691W        W30825   0.169   5.724  14.939  0.2198  0.1316 -0.1842
14692W        W30826  13.612   3.840  12.366 -0.4391 -0.0206 -0.0293
14693W        W30827   9.885  17.245  12.493  0.1440 -0.1213  0.2779
14694W        W30828  14.990   6.169   2.087 -0.1008  0.0867  0.0555
14695W        W30829   5.566   9.765  12.003 -0.3187  0.0327  0.1115
14696W        W30830  17.212  12.591  14.392  0.0741 -0.2766 -0.3184
14697W        W30831  18.573   1.995  11.532 -0.0426  0.1634  0.0660
14698W        W30832  17.360   4.547   3.507 -0.0097  0.1070  0.0103
14699W        W30833   6.480   0.730  14.744  0.0629 -0.0676 -0.1374
14700W        W30834  15.538   1.832   5.187 -0.1841  0.2217  0.4541
14701W        W30835  14.281   9.120  14.211 -0.0250  0.1851 -0.2000
14702W        W30836  13.802   6.666  14.034 -0.0191 -0.2269  0.3289
14703W        W30837  13.366  10.780  10.537 -0.0128  0.0809  0.0004
14704W        W30838  16.526  10.501  14.255 -0.1439  0.1790 -0.1546
14705W        W30839  10.593   8.097  12.790  0.2934  0.1180  0.1287
14706W        W30840  18.910   7.408   3.527  0.0601  0.0285 -0.1690
14707W        W30841   7.828  15.837   1.508 -0.1211 -0.4266  0.0414
14708W        W30842   3.494  15.293  11.260  0.3561 -0.2404 -0.2607
14709W        W30843   9.175   4.470  12.895 -0.2275  0.3100 -0.2736
14710W        W30844   6.375   7.925   5.222 -0.2632  0.0671  0.4895
14711W        W30845   5.329  18.950  14.432 -0.3493  0.2327  0.2710
14712W        W30846   8.705  19.042   0.982  0.1365 -0.1307 -0.1432
14713W        W30847   1.805   9.014  11.138 -0.0569  0.3300 -0.0875
14714W        W30848  11.206   0.084  14.668  0.0672  0.2295 -0.1204
14715W        W30849   0.666  12.802  10.607 -0.1169  0.1240 -0.1148
14716W        W30850   7.897   3.623   3.049  0.1061 -0.2714  0.2082
14717W        W30851  11.447  18.504   4.459 -0.0232 -0.2061 -0.0092
14718W        W30852  18.646  12.026   0.304 -0.1102 -0.0233  0.1795
14719W        W30853   6.540  10.062  13.940 -0.2974 -0.1698 -0.2471
14720W        W30854   9.098   3.430  14.336 -0.0759  0.2055  0.2847
14721W        W30855   7.259  10.281  11.743  0.0706  0.2372 -0.1743
14722W        W30856  11.022   9.096  12.310  0.0951 -0.0605 -0.0766
14723W        W30857  18.375  11.740  12.113  0.1149 -0.1304  0.0099
14724W        W30858  13.829   8.711   4.684  0.0935 -0.0853  0.6184
14725W        W30859  18.243   1.405   3.799 -0.1281  0.1892 -0.0746
14726W        W30860   6.751   1.579   3.475  0.3511 -0.2828  0.3623
14727W        W30861   1.396   7.459  12.681 -0.1707 -0.2400 -0.0206
14728W        W30862   8.952   4.862   2.542 -0.1638  0.2026  0.2528
14729W        W30863  11.947   0.687  10.359  0.0779 -0.5671  0.2946
14730W        W30864  14.261   6.609   5.082 -0.1796 -0.0181 -0.0612
14731W        W30865   8.263   3.462   4.313 -0.2022 -0.2375 -0.2426
14732W        W30866  16.556  15.857  11.083  0.1516 -0.0783  0.1652
14733W        W30867  16.473   6.782  12.009  0.2307 -0.1013 -0.2529
14734W        W30868  17.025   4.315   2.148 -0.2523  0.0387  0.1355
14735W        W30869   8.304   5.907   2.916 -0.3206 -0.1808  0.1934
14736W        W30870   5.284  16.333  10.719 -0.2027  0.0589 -0.2208
14737W        W30871   5.804   0.679   1.216 -0.0473 -0.0675  0.4441
14738W        W30872   4.742   1.670   3.054 -0.1112 -0.0500 -0.1129
14739W        W30873  10.662  11.627  14.819 -0.0784  0.1348 -0.0727
14740W        W30874  15.157   1.077   1.503 -0.0592 -0.3361  0.2484
14741W        W30875   2.145  15.241  14.845  0.2011  0.0576 -0.0350
14742W        W30876   2.641   0.167  10.682 -0.0397  0.1572 -0.0081
14743W        W30877   2.965   2.544  12.797  0.0738 -0.1527 -0.2672
14744W        W30878   8.541   1.319   9.831 -0.1619 -0.1955 -0.2079
14745W        W30879  17.095  11.290   1.778 -0.1238 -0.0842 -0.0357
14746W        W30880   0.242   1.750   2.189 -0.4027  0.2408  0.3908
14747W        W30881   1.454   6.819   0.153  0.2425  0.1425 -0.2378
14748W        W30882  11.228  18.745   2.789 -0.2286 -0.0679  0.1610
14749W        W30883   1.482   4.074   5.454 -0.0990  0.1405 -0.0649
14750W        W30884   1.901  12.446   3.531  0.2277 -0.3580  0.0080
14751W        W30885   6.235  16.879   2.046  0.3187  0.1328 -0.0528
14752W        W30886   4.697  18.340   0.945  0.1934  0.2057 -0.0372
14753W        W30887   2.293  14.198   4.443  0.3367 -0.0818 -0.3402
14754W        W30888  15.426   9.633   5.394  0.2637  0.2515 -0.0471
14755W        W30889   9.363   9.275  13.503 -0.0879 -0.2907 -0.0939
14756W        W30890  14.398   5.471  15.024 -0.1575  0.5598 -0.2356
14757W        W30891   5.003  15.534  12.505  0.1303 -0.0141 -0.0391
14758W        W30892   2.833   3.893   4.387 -0.1845  0.1209 -0.1695
14759W        W30893   0.045   5.708   2.257 -0.1893 -0.1496 -0.0033
14760W        W30894   2.731   9.419   4.281  0.0216 -0.1105 -0.0801
14761W        W30895  10.707   5.670   5.079 -0.0392 -0.1997 -0.1468
14762W        W30896  11.455  17.092   4.132  0.0217  0.0431  0.0594
14763W        W30897  18.792   0.074   3.089 -0.1270  0.2440 -0.0214
14764W        W30898   6.753  17.445  12.862  0.0680  0.1214  0.2702
14765W        W30899   8.304   5.255   1.269 -0.2899  0.0528 -0.0404
14766W        W30900   0.684  13.825  14.437  0.1855 -0.0104  0.2764
14767W        W30901   5.168   9.641  13.242  0.1024 -0.0676 -0.0019
14768W        W30902  16.965  14.462   1.752  0.3184  0.0246  0.1637
14769W        W30903   8.792  18.553  14.178 -0.0154  0.1620 -0.0530
14770W        W30904  11.342  13.733   2.132 -0.0212  0.0897  0.2569
14771W        W30905   1.643  15.070  15.129 -0.0903  0.2300 -0.1889
14772W        W30906   3.660  12.120   1.261  0.0852 -0.1699 -0.0336
14773W        W30907  17.411  14.775  10.832 -0.0369  0.0305 -0.0238
14774W        W30908   5.693   4.762   0.180 -0.1293 -0.4166 -0.1599
14775W        W30909  11.650   7.344   1.126  0.0906 -0.0739  0.1754
14776W        W30910   6.093   9.940  14.331 -0.0888 -0.1453  0.0058
14777W        W30911  16.977   1.061   5.513  0.0126  0.1319 -0.0174
14778W        W30912   3.061  17.463   0.983 -0.0018 -0.2439 -0.0622
14779W        W30913  17.765   3.390   2.057  0.1379  0.1167 -0.1193
14780W        W30914   7.254   6.623  14.867  0.0098  0.0044  0.1100
14781W        W30915   7.190  19.064   5.698  0.0968  0.1530  0.0637
14782W        W30916  18.720   6.545  12.943 -0.1608 -0.1641  0.1431
14783W        W30917   3.554  17.315  10.589  0.2132  0.2162  0.1323
14784W        W30918   7.710   5.669  10.185  0.0648  0.0266 -0.2482
14785W        W30919  14.462   3.676  14.596  0.3543  0.0142 -0.3721
14786W        W30920   2.811  12.843  12.210 -0.0892 -0.2471  0.1011
14787W        W30921   1.760   2.894   2.043 -0.1731  0.2162  0.4590
14788W        W30922   6.540   4.943   2.503  0.0634 -0.3716  0.3792
14789W        W30923   6.899   0.161  11.453  0.1893 -0.0558 -0.1100
14790W        W30924  18.952   0.787  10.518  0.1271  0.1212  0.0965
14791W        W30925  15.796   8.069   1.210  0.0004 -0.2336 -0.0799
14792W        W30926   9.898   9.418  13.329 -0.1241 -0.0749  0.0677
14793W        W30927  19.088  15.883  11.511 -0.0517  0.1848 -0.2118
14794W        W30928   9.695   0.324   0.770  0.4818  0.0795 -0.1007
14795W        W30929  14.055  12.365  13.859  0.3014 -0.1781 -0.0210
14796W        W30930  18.596  15.699   5.015  0.1133 -0.0282 -0.1016
14797W        W30931   0.657  13.109  14.008 -0.1553  0.2466  0.0745
14798W        W30932   5.275  11.588   5.009 -0.1929  0.0675 -0.1847
14799W        W30933   9.139  10.905  14.712 -0.2378  0.1426  0.4575
14800W        W30934  17.286   0.687  13.182 -0.1835 -0.2947  0.2778
14801W        W30935   0.972   6.254   4.501 -0.1732  0.2644  0.0928
14802W        W30936  11.312   1.335   1.589  0.0130 -0.1293 -0.2612
14803W        W30937  17.162  15.832   2.661  0.2207 -0.0127  0.0074
14804W        W30938  14.120  16.723   0.921  0.3639  0.1548 -0.0316
14805W        W30939  13.008   8.577   2.965  0.0593 -0.0719 -0.2673
14806W        W30940   1.933  15.908   2.216  0.1840  0.0331 -0.1705
14807W        W30941   3.148   6.860  11.616  0.0080  0.1040 -0.0864
14808W        W30942   3.469   7.462  15.094  0.1061  0.0533 -0.0515
14809W        W30943   5.560   3.368  13.856 -0.0401 -0.1182  0.0319
14810W        W30944   9.523   6.382  14.412  0.2219  0.2408 -0.1849
14811W        W30945  15.157  17.893   1.995  0.1405  0.0519 -0.0413
14812W        W30946  11.577   6.501   2.939  0.1367  0.1250  0.3004
14813W        W30947  19.028  18.027   2.689  0.1684 -0.2755  0.1833
14814W        W30948   2.984  16.988   1.969  0.0273  0.1350  0.1661
14815W        W30949   5.134   1.213   3.893 -0.0622 -0.2217 -0.2727
14816W        W30950   3.149  10.417   4.359 -0.0071 -0.1913  0.0513
14817W        W30951   4.354   1.687   1.439  0.1960  0.1440  0.1159
14818W        W30952  12.427   3.433  11.641 -0.4213  0.0116  0.3373
14819W        W30953   8.533   4.146   3.167 -0.1042  0.1449  0.1631
14820W        W30954   3.709   1.580   2.399 -0.0140  0.0063  0.0369
14821W        W30955  16.449   3.076  12.750  0.0509  0.2314 -0.0786
14822W        W30956  18.862   6.080  12.057  0.2066 -0.0745  0.0267
14823W        W30957   7.049  13.950  13.139 -0.2294  0.2140  0.4031
14824W        W30958   9.983  14.727  11.382 -0.2933 -0.2373  0.0544
14825W        W30959   8.622  14.195   1.341  0.0283 -0.1092  0.0211
14826W        W30960   0.609   8.218  10.870  0.1434  0.1105  0.4145
14827W        W30961  11.878   2.928  13.487 -0.3064  0.1435 -0.2611
14828W        W30962  15.670  15.828   0.022  0.0076  0.0682 -0.1774
14829W        W30963  18.355   2.173   0.298 -0.3373  0.1653 -0.1571
14830W        W30964   7.792  12.738  12.869  0.4458  0.1643 -0.0154
14831W        W30965  15.941   6.494   3.568  0.0487 -0.2215  0.1184
14832W        W30966  14.504   7.966  10.568 -0.0515  0.2626  0.0012
14833W        W30967   4.567  15.952  14.354  0.4087  0.0134 -0.2017
14834W        W30968   1.265  13.860   2.841  0.5129  0.0128 -0.1909
14835W        W30969   9.825  18.332  14.026  0.2698  0.1350  0.1633
14836W        W30970   7.393  13.795   2.732 -0.1401  0.2436  0.0970
14837W        W30971   6.271   2.124  11.557 -0.0200  0.1409  0.1303
14838W        W30972  17.421  12.966  12.834 -0.2762  0.2637  0.3782
14839W        W30973   4.994  17.346  12.911  0.2252  0.3333  0.0927
14840W        W30974  11.027   5.381  12.441  0.0369  0.2558 -0.1740
14841W        W30975   8.240   9.694   3.416  0.1342 -0.1794 -0.1146
14842W        W30976   4.226   0.070   3.529 -0.1191  0.1347  0.0568
14843W        W30977  10.365   2.131   0.973 -0.0231  0.0117  0.2385
14844W        W30978  15.712  14.414   1.898 -0.2000 -0.2128  0.4768
14845W        W30979   5.198   7.407   3.867 -0.0423 -0.2151  0.0271
14846W        W30980  14.976  15.865   2.692 -0.2176  0.1446 -0.0370
14847W        W30981   4.640   0.057  11.387  0.1593  0.0247 -0.2189
14848W        W30982  12.522   6.196  11.214 -0.1798 -0.0377 -0.1895
14849W        W30983  17.776  11.022   3.398 -0.2618  0.0072 -0.2522
14850W        W30984   3.487   0.500   0.522 -0.1671  0.2386  0.0132
14851W        W30985  16.352   0.342  14.417 -0.0129 -0.0787 -0.3494
14852W        W30986  12.013  17.585  14.563 -0.2236 -0.0813 -0.2453
14853W        W30987  14.327  12.571  14.493  0.0155  0.0942  0.3024
14854W        W30988   7.344   3.607  14.998  0.0510 -0.1858  0.0636
14855W        W30989   7.384  19.124   1.280 -0.1021 -0.2141  0.0122
14856W        W30990   2.287  12.236   0.170 -0.3085 -0.2002 -0.3201
14857W        W30991  14.962  12.073  13.757  0.1182 -0.2270 -0.2483
14858W        W30992  18.573   7.387  10.010  0.1443  0.0937 -0.4325
14859W        W30993  15.349  16.531  12.430  0.1259  0.0431  0.2070
14860W        W30994  15.680  11.897  10.052 -0.2035  0.0426 -0.1972
14861W        W30995   4.469  17.126   0.421  0.4644  0.0307  0.1699
14862W        W30996   2.505  17.276  12.084 -0.0017  0.0564  0.4078
14863W        W30997   9.864   8.277  13.621 -0.0014 -0.0599 -0.4075
14864W        W30998  12.621  17.682  11.547 -0.2329  0.1745  0.1829
14865W        W30999   1.298  12.796  12.828 -0.0759  0.2251  0.2216
14866W        W31000   7.773  17.340  14.386 -0.2174 -0.1638 -0.0208
14867W        W31001   1.629   3.128  10.857  0.1295 -0.0783 -0.1025
14868W        W31002  16.351   8.561  11.322  0.0744 -0.3928 -0.0051
14869W        W31003  12.729  15.263  10.290 -0.2411 -0.4276 -0.1043
14870W        W31004   3.465  17.344   0.076  0.0121 -0.1604 -0.2241
14871W        W31005  18.853  17.072   3.435 -0.0422 -0.0594 -0.0731
14872W        W31006  13.149  12.029  11.669 -0.0288 -0.0860 -0.0573
14873W        W31007  16.436  18.932   3.115  0.1514  0.3267 -0.3573
14874W        W31008   6.886   7.376   1.467 -0.0335 -0.0333 -0.0075
14875W        W31009   7.379   7.246   4.259 -0.0921 -0.1040 -0.3831
14876W        W31010  10.599   0.153  11.607 -0.1694  0.1050  0.4096
14877W        W31011   4.702   1.886   0.906 -0.3234  0.1414  0.0202
14878W        W31012  15.866  12.225   4.685  0.2791 -0.1894  0.2733
14879W        W31013   3.586   8.116   5.150  0.0569 -0.2121 -0.2401
14880W        W31014   4.672  18.812  10.597  0.1952  0.0959  0.2274
14881W        W31015  16.858   4.017  11.269 -0.0286 -0.0762  0.0176
14882W        W31016   7.458   7.775   3.604  0.0498 -0.1619  0.2178
14883W        W31017  13.733  16.819  11.231 -0.1027 -0.5390  0.2365
14884W        W31018  13.948   9.382  12.980 -0.1644 -0.2510  0.2053
14885W        W31019  12.005   9.869  14.227  0.2368 -0.0409 -0.2160
14886W        W31020  10.446  16.741  11.472 -0.3633  0.1141 -0.0335
14887W        W31021  14.277   3.600  12.426 -0.0410 -0.0441  0.2168
14888W        W31022   5.213   8.723  15.166  0.3253 -0.3060  0.2087
14889W        W31023   3.297  13.590  12.959 -0.1729  0.0537  0.3832
14890W        W31024  12.629  14.330   5.230 -0.0264 -0.0718 -0.1175
14891W        W31025   1.819  12.646   2.293 -0.1365 -0.2331  0.1121
14892W        W31026   5.026   1.407   4.407 -0.2977  0.2187  0.0162
14893W        W31027   6.659  12.290  12.585 -0.0936 -0.0851  0.1322
14894W        W31028  13.914   3.306   3.476  0.1837  0.1955 -0.0116
14895W        W31029  12.356   0.932  13.769  0.2807 -0.1871 -0.0934
14896W        W31030  12.435   6.437   5.458  0.0285  0.0684 -0.1914
14897W        W31031  11.359   0.114  10.471  0.1700 -0.0519 -0.1781
14898W        W31032   6.995   9.616   3.868 -0.0382 -0.0152  0.0490
14899W        W31033   3.489   2.161  14.361  0.1869 -0.2737  0.1152
14900W        W31034  10.697   2.554   1.974 -0.1436  0.4335  0.0460
14901W        W31035  11.078  10.032  10.391 -0.0637 -0.0014 -0.5455
14902W        W31036  11.099   9.158  10.939 -0.0734 -0.2210 -0.1708
14903W        W31037   0.637   4.263   1.799 -0.3549 -0.0868  0.0776
14904W        W31038   5.078   2.809   2.640 -0.0586  0.2296 -0.1660
14905W        W31039  14.948  14.505   3.481  0.1105  0.1113  0.2786
14906W        W31040   6.650   6.403  10.900  0.1349  0.0119  0.2425
14907W        W31041  15.454   3.792  13.515 -0.0719 -0.0799 -0.1752
14908W        W31042   4.226   1.539  10.477  0.0658  0.0455  0.0449
14909W        W31043   5.332  12.375  11.047 -0.1069  0.1311  0.0263
14910W        W31044  18.825  14.921  11.747 -0.1199 -0.2469 -0.1584
14911W        W31045  11.191   6.095  13.535  0.0007  0.1982 -0.1334
14912W        W31046   2.030  14.070   4.023 -0.0224 -0.3633 -0.1059
14913W        W31047  11.405   8.622  14.794 -0.0040  0.0501  0.1842
14914W        W31048   3.880  14.767   1.962  0.2105  0.0499  0.0121
14915W        W31049   0.380  18.371  12.212 -0.3323 -0.3875 -0.1545
14916W        W31050  16.218  16.107  12.476 -0.1762 -0.0511  0.1198
14917W        W31051  10.192   8.435  12.771  0.0252 -0.0121 -0.1039
14918W        W31052  17.356   5.242  13.329  0.2353  0.0571 -0.0587
14919W        W31053  12.710  16.852  12.893 -0.0847  0.0711  0.2578
14920W        W31054  15.693   5.910  13.920  0.4089  0.0909 -0.0393
14921W        W31055   4.691   4.209  11.014 -0.1908  0.0682  0.0898
14922W        W31056  13.998   9.014  13.757 -0.1686  0.1063 -0.0116
14923W        W31057   3.605   5.005   0.048 -0.1810 -0.1737  0.2151
14924W        W31058   8.230  14.930  13.212 -0.0023  0.0379 -0.0049
14925W        W31059  11.461   6.934  14.192  0.2694  0.1362 -0.0270
14926W        W31060   9.250   4.346  11.440 -0.3459  0.1689  0.4666
14927W        W31061   6.209  12.168  13.297  0.0482  0.1325 -0.0378
14928W        W31062  11.429   3.062   0.813 -0.0958 -0.2333  0.0195
14929W        W31063  16.335   7.856  15.088  0.1813  0.0157 -0.1560
14930W        W31064   9.918   5.827   4.774  0.0153  0.0799  0.0504
14931W        W31065  10.218  10.960   3.980  0.2797  0.2034  0.3006
14932W        W31066  15.105   3.312   1.973  0.0119  0.2998 -0.0415
14933W        W31067  13.568  19.122   0.306 -0.0166  0.1531 -0.0731
14934W        W31068  15.119   2.829   2.129 -0.0645 -0.0149 -0.1071
14935W        W31069   5.284   0.331  14.891 -0.0563 -0.0654 -0.1616
14936W        W31070   3.929  17.049  10.946  0.0233 -0.0319 -0.2305
14937W        W31071  18.692  10.786   2.232  0.2814  0.0425 -0.3557
14938W        W31072  18.941  18.768   1.527  0.4070  0.1008  0.1038
14939W        W31073   7.471  12.879   1.669  0.2399 -0.0702  0.1939
14940W        W31074   8.817   8.050   4.350 -0.0337 -0.0191 -0.1883
14941W        W31075   7.985   4.980  12.938  0.0263 -0.2835  0.0108
14942W        W31076  18.371   8.069  14.562  0.2065 -0.5951 -0.3598
14943W        W31077  15.656   8.267   9.995 -0.0592 -0.0637  0.0130
14944W        W31078  18.688   9.050   5.158 -0.3448 -0.3145 -0.2009
14945W        W31079  11.606  10.801   2.069 -0.1367  0.0252 -0.1594
14946W        W31080   6.750   4.293   3.026  0.0445 -0.2935  0.0030
14947W        W31081   7.814   2.189  10.657 -0.0409  0.2447 -0.0416
14948W        W31082   9.985   8.205   5.785 -0.1761  0.0723  0.2949
14949W        W31083   5.582   8.387   4.162 -0.0020  0.3607 -0.0395
14950W        W31084  13.148   4.252  14.074 -0.2126  0.3160  0.4149
14951W        W31085   4.769   6.386  15.032  0.2135  0.0693  0.0059
14952W        W31086  14.444  17.596  13.340 -0.0577 -0.1206  0.0942
14953W        W31087  16.097  17.059   1.201 -0.3213  0.1040 -0.1020
14954W        W31088   9.471  17.513  13.725 -0.0739  0.0202  0.0171
14955W        W31089  14.930  17.898   0.830  0.2106  0.1550 -0.1047
14956W        W31090  16.751  17.150   1.956  0.1809  0.1070  0.1830
14957W        W31091  18.031   1.646   0.900 -0.2312  0.1026 -0.2256
14958W        W31092   3.246   5.040  13.769  0.0709 -0.4881 -0.0453
14959W        W31093   5.297   0.468  10.436 -0.0536  0.0380  0.4307
14960W        W31094   7.665  13.006  15.091  0.2384 -0.0116 -0.2863
14961W        W31095  18.083   6.379  10.570 -0.1173 -0.0281 -0.0832
14962W        W31096   0.811  12.500   1.270  0.1231 -0.3001  0.2352
14963W        W31097   6.986   2.695   0.144 -0.4059  0.0196 -0.0343
14964W        W31098   8.143  14.402   6.151 -0.3266 -0.0655 -0.0918
14965W        W31099   9.376  15.162   3.021 -0.1890  0.3324  0.1324
14966W        W31100  17.150   2.528  12.818 -0.0855 -0.1207 -0.1732
14967W        W31101  13.890   0.303   4.026  0.0855 -0.2890 -0.2209
14968W        W31102   7.792   5.097  11.419 -0.2650 -0.3124  0.0314
14969W        W31103  14.949  12.238   4.604 -0.0742  0.0048 -0.0885
14970W        W31104  13.233  15.161   3.217  0.1015 -0.4299 -0.2967
14971W        W31105  18.536   4.993   9.165 -0.1126  0.2616  0.1877
14972W        W31106   7.129  14.389  13.778  0.2317  0.3150 -0.0727
14973W        W31107  15.921  14.638  13.401  0.2347  0.3189 -0.2622
14974W        W31108   7.127   9.050   0.208 -0.0580  0.0969  0.2069
14975W        W31109   5.450  18.039  12.483 -0.3335 -0.0187 -0.1901
14976W        W31110  12.817  17.908  13.235  0.2020 -0.0445 -0.0248
14977W        W31111   4.481  16.626  12.209 -0.1547 -0.2197  0.6082
14978W        W31112   1.209  17.013   5.300 -0.0814  0.1310  0.0515
14979W        W31113  13.937  10.690   4.269  0.0421 -0.0170  0.0715
14980W        W31114  17.630   2.578  14.979 -0.1885  0.5012 -0.2004
14981W        W31115   1.816  12.692  13.011 -0.1259 -0.1983 -0.0529
14982W        W31116  12.827  17.269   1.549  0.0460 -0.1039  0.1021
14983W        W31117  10.653  15.425   3.604 -0.1006  0.0953  0.1335
14984W        W31118  11.949   6.979  12.410  0.0628  0.1828  0.0327
14985W        W31119   8.954  12.176   2.791 -0.0794 -0.2763 -0.0674
14986W        W31120   2.419  16.415  13.815  0.1927 -0.2489 -0.0497
14987W        W31121  14.491   6.667   1.733  0.0114  0.0594 -0.0607
14988W        W31122  14.419  18.537  14.798  0.1623 -0.2463  0.0502
14989W        W31123   6.253   0.889   0.237 -0.0412  0.2798  0.0455
14990W        W31124  11.734  17.690   0.708  0.0017 -0.0719  0.1120
14991W        W31125   7.212   6.537   3.666 -0.0446 -0.0940  0.1185
14992W        W31126   9.464   5.990   1.669  0.1890  0.1946  0.0244
14993W        W31127  18.614   4.869  12.641  0.0182  0.3642  0.2383
14994W        W31128  10.376   8.982   4.170 -0.1253 -0.0130  0.1478
14995W        W31129  17.377  18.918  12.906 -0.3170 -0.0010 -0.2930
14996W        W31130  18.470  15.264   1.155 -0.2285 -0.0142 -0.0206
14997W        W31131  16.027   3.451   3.781  0.3160  0.0793  0.2887
14998W        W31132   0.108  13.383   5.083  0.2138  0.2254 -0.0476
14999W        W31133  10.555   6.731   1.588  0.0959 -0.0775 -0.0672
15000W        W31134  12.079   1.012   3.982 -0.1010  0.1823 -0.0112
15001W        W31135  10.445   0.893   1.941  0.2126 -0.0471 -0.0701
15002W        W31136  16.104   0.516   1.122 -0.2567 -0.2638 -0.2041
15003W        W31137   9.808   7.462   3.534 -0.1791 -0.0450 -0.1925
15004W        W31138   0.537  11.671  10.680  0.2108  0.3626 -0.0251
15005W        W31139  10.773   9.969   4.262 -0.1038 -0.1410  0.2680
15006W        W31140  17.612  13.405  13.573 -0.0584  0.1690 -0.1423
15007W        W31141   9.489  12.244   5.974 -0.2112 -0.1140  0.3301
15008W        W31142  12.304  13.589   0.576 -0.0503 -0.2823  0.1215
15009W        W31143   2.633   2.333  14.344 -0.1712  0.1722 -0.0469
15010W        W31144  15.467  17.006   4.833  0.1567 -0.0719 -0.3037
15011W        W31145   0.600   8.585   2.257 -0.3021 -0.2198  0.0551
15012W        W31146  17.280  17.868  12.214  0.3140  0.0205 -0.6048
15013W        W31147   0.849  18.075  14.534  0.3823 -0.3791  0.1411
15014W        W31148   5.827   2.284  14.652  0.1454 -0.1103 -0.0466
15015W        W31149   9.403   9.181   3.888 -0.4745  0.0064 -0.1424
15016W        W31150  12.741  10.195  10.888  0.0137 -0.0455  0.1003
15017W        W31151   0.043   6.947   4.636 -0.2037 -0.2730 -0.2323
15018W        W31152  13.815   3.836   0.397 -0.1295 -0.5017  0.4443
15019W        W31153  12.480  13.102   0.889  0.0471  0.1402  0.0130
15020W        W31154  14.786  11.837  12.832  0.2737 -0.0144  0.1262
15021W        W31155   8.474  16.337   3.816  0.1150  0.1077  0.2182
15022W        W31156  15.832   5.308   5.273  0.0584  0.1530  0.0404
15023W        W31157  17.100   7.576   9.415 -0.1802 -0.0509  0.1826
15024W        W31158   8.677  15.529   2.314 -0.1142  0.2720  0.0198
15025W        W31159  18.357  14.151  11.829 -0.2696  0.0293  0.1903
15026W        W31160   1.425   8.693   4.049  0.1584  0.0104  0.0964
15027W        W31161   3.327   2.331   2.243 -0.3214  0.0831  0.0227
15028W        W31162   2.518  15.495   0.895  0.1503 -0.1696 -0.1954
15029W        W31163  12.888  12.844   1.127  0.0674 -0.1490  0.2893
15030W        W31164  14.857  14.607   2.278  0.1994  0.0111 -0.0375
15031W        W31165  11.129  16.918  12.696 -0.1055  0.0847  0.0890
15032W        W31166  15.238   9.921   0.672 -0.1815 -0.0743  0.1396
15033W        W31167  11.526  17.692   4.788  0.3284  0.5139  0.0221
15034W        W31168   2.152   1.435   3.295  0.1387 -0.0874 -0.0818
15035W        W31169   3.250  12.503  14.520  0.0284 -0.0250  0.0880
15036W        W31170  15.350   7.374   1.226 -0.1140  0.1512 -0.2096
15037W        W31171  11.916  15.575   1.589  0.0567 -0.0988 -0.0511
15038W        W31172   3.545  14.310   2.637 -0.0503 -0.0118 -0.2041
15039W        W31173  11.159  13.445  11.374  0.1642  0.1050 -0.0923
15040W        W31174  18.361   3.783   2.225 -0.3095  0.0307 -0.0586
15041W        W31175   9.498  18.506   9.801 -0.1164 -0.3046 -0.0068
15042W        W31176   8.873  17.339  14.130 -0.2502 -0.2916  0.1227
15043W        W31177  16.222   3.544  11.020  0.2037 -0.0561 -0.1161
15044W        W31178  10.282  18.520  12.273  0.0944 -0.0411  0.0053
15045W        W31179   7.133   1.155  12.376 -0.1574 -0.1736 -0.1532
15046W        W31180  18.496   2.244   2.815  0.0250  0.1685  0.5193
15047W        W31181   1.130   7.745  11.818  0.3295 -0.0059 -0.2052
15048W        W31182   2.371  14.130  11.391  0.3344 -0.1404 -0.1603
15049W        W31183   1.601  15.154  12.930  0.2336 -0.0039 -0.1931
15050W        W31184   0.720   4.078   1.219  0.1277 -0.1624  0.1073
15051W        W31185  16.059   9.449  12.803 -0.3391 -0.1207  0.0693
15052W        W31186   0.370  13.121   3.388  0.2884 -0.1358 -0.0690
15053W        W31187  12.595  11.008   9.747 -0.0029 -0.0604 -0.1782
15054W        W31188   1.610  14.735  13.287  0.1017 -0.0739 -0.4446
15055W        W31189  11.253   2.709  14.362  0.0531 -0.3057 -0.0791
15056W        W31190  18.417   3.116   4.502 -0.1446 -0.0874 -0.0473
15057W        W31191   4.443   9.886   4.775  0.0451 -0.1715 -0.2860
15058W        W31192   3.912  18.765   1.318 -0.1748 -0.0153 -0.1701
15059W        W31193  13.542  13.987   4.102 -0.3144  0.0490 -0.2138
15060W        W31194   0.706   5.540   2.831 -0.0690  0.0977  0.2059
15061W        W31195   4.803   1.694  12.312  0.0814 -0.1356  0.2697
15062W        W31196   8.948   4.340  11.914 -0.0485  0.2329  0.0812
15063W        W31197  13.335  13.356  10.176 -0.3325 -0.1651  0.3377
15064W        W31198   7.753  17.704  11.163  0.3003 -0.0844 -0.0644
15065W        W31199   0.243  18.334   3.990  0.1346  0.1534  0.1138
15066W        W31200  16.539   0.391   0.608 -0.0045  0.0413  0.1908
15067W        W31201  10.261   6.654  13.080  0.1634 -0.1697  0.2040
15068W        W31202  17.879  15.922   3.935 -0.0375 -0.2747  0.1053
15069W        W31203   2.507  11.124   3.219 -0.0213  0.1972 -0.2347
15070W        W31204  11.431   0.340   2.879  0.0397 -0.0869 -0.0300
15071W        W31205   9.673  12.858   4.708  0.1071  0.0752 -0.1319
15072W        W31206   8.574  14.503  11.619  0.1916  0.1745 -0.2032
15073W        W31207  11.651   9.534   1.111  0.1024 -0.1280  0.0312
15074W        W31208   6.201   3.019   0.683 -0.3050 -0.1861  0.0924
15075W        W31209  11.962   1.154  10.500 -0.4252 -0.0781 -0.0453
15076W        W31210  13.939   4.523   1.499  0.3292  0.0738  0.1487
15077W        W31211  14.118   4.041  12.215 -0.1583  0.1015  0.1258
15078W        W31212  12.523   0.274  14.394  0.0966  0.3797  0.2452
15079W        W31213  10.704   4.383   4.329 -0.1185  0.2746 -0.3053
15080W        W31214   8.549   5.733  12.399 -0.0030  0.0583  0.1276
15081W        W31215  18.231   2.867  11.510 -0.1635  0.2124 -0.0550
15082W        W31216   5.607  10.591   0.913  0.1463  0.3074  0.0607
15083W        W31217  16.313   5.484   0.241 -0.1065  0.0950  0.0192
15084W        W31218  16.640  10.400  12.243 -0.2353 -0.1688  0.1434
15085W        W31219   1.269  17.103  10.696  0.2907  0.2698  0.2248
15086W        W31220   9.825   6.378   3.096 -0.1730  0.1765 -0.4231
15087W        W31221  15.949   2.499  11.257  0.0327  0.3018 -0.2243
15088W        W31222  16.175   9.614   0.559  0.1892  0.2730  0.1700
15089W        W31223  13.331   0.762   9.500  0.1937  0.1157 -0.0303
15090W        W31224  12.361   8.168   3.469 -0.0220  0.1014  0.0489
15091W        W31225   4.920   9.625   3.607  0.1395  0.1214  0.2007
15092W        W31226   3.922  12.695  10.241  0.3358  0.0712  0.2778
15093W        W31227  15.039   5.679  14.223  0.1422 -0.2051  0.3382
15094W        W31228  14.771   8.904  13.167  0.0953 -0.0737 -0.1764
15095W        W31229   8.325  15.946   0.923 -0.1935 -0.0705  0.1151
15096W        W31230   7.855   1.720   5.545  0.1341 -0.0639 -0.0682
15097W        W31231   2.989   8.033   1.428 -0.0093  0.2602 -0.0042
15098W        W31232   4.614  16.752  11.249  0.2962  0.4438 -0.2795
15099W        W31233   6.920   4.364   0.583 -0.0804  0.4060 -0.1005
15100W        W31234   4.248  15.271   0.536  0.0874 -0.1873  0.1622
15101W        W31235  13.427   7.153   0.724 -0.2249 -0.0984  0.1546
15102W        W31236  13.471  16.220   2.819 -0.3204 -0.2438  0.2167
15103W        W31237  17.744   5.691   2.059  0.0432 -0.2037 -0.0893
15104W        W31238   2.383   9.598   1.815 -0.3001  0.1884  0.0832
15105W        W31239   0.200   9.438  11.178  0.2571  0.0407 -0.1210
15106W        W31240   5.012  15.610   4.395 -0.0036 -0.2415 -0.0548
15107W        W31241  11.895   8.766  12.797 -0.1151  0.4271  0.1370
15108W        W31242   8.778   9.637  14.454  0.1683  0.0579 -0.1108
15109W        W31243  14.211  18.339   2.720 -0.0127  0.0748 -0.2556
15110W        W31244   0.059   5.851  10.702 -0.1880 -0.0085  0.0558
15111W        W31245  10.559   7.010  14.342 -0.1391  0.1869  0.0393
15112W        W31246   6.408   7.670   1.066  0.0572 -0.1521  0.0475
15113W        W31247  16.585   2.601  10.661  0.0422  0.2855 -0.2688
15114W        W31248   5.336   1.643   4.064  0.0692 -0.2454  0.0184
15115W        W31249   3.557  11.279   0.100 -0.1451  0.1852 -0.0043
15116W        W31250   4.821   3.929   0.489  0.2538 -0.1063 -0.1361
15117W        W31251  12.350   5.666  11.241  0.0995 -0.0042 -0.0489
15118W        W31252   8.708   8.918  14.698  0.0336  0.0926  0.2933
15119W        W31253  12.824  16.296  14.983 -0.4390  0.5936  0.4158
15120W        W31254   5.134   0.076   4.221 -0.3803 -0.0290  0.1135
15121W        W31255  19.111  10.271   5.251 -0.3691 -0.0071 -0.2500
15122W        W31256  13.785  14.094   4.576 -0.0172  0.0819 -0.1104
15123W        W31257  17.926  13.959   3.619  0.0038 -0.1998  0.0435
15124W        W31258  13.634  14.266  12.294  0.0388  0.1664  0.0600
15125W        W31259  10.521  14.609   1.559  0.1549 -0.3050 -0.4165
15126W        W31260  10.589   6.120  12.232  0.0199  0.2502  0.0836
15127W        W31261  17.048  17.002  14.882 -0.0790 -0.0485  0.0994
15128W        W31262  16.930  14.039   0.980 -0.0787 -0.1699 -0.1520
15129W        W31263   8.063   6.746   4.362 -0.2379 -0.2848  0.1483
15130W        W31264  18.849  17.348  11.963  0.1755 -0.0995 -0.2034
15131W        W31265   3.543  13.691   2.616 -0.1379 -0.0004  0.3217
15132W        W31266   7.281   4.796   1.488 -0.0883  0.1370 -0.1870
15133W        W31267   5.352  10.164  14.756 -0.2344  0.1637  0.3572
15134W        W31268   8.749   5.739   0.266  0.2233 -0.1596 -0.0559
15135W        W31269   7.125   4.011   3.943 -0.2930 -0.1540 -0.0400
15136W        W31270  10.369   7.093   3.059  0.2706  0.1680 -0.0354
15137W        W31271  11.710   3.065  14.233  0.0000  0.0325  0.0570
15138W        W31272   7.781   8.993  13.148  0.0728  0.2287 -0.2947
15139W        W31273  17.420   4.311  13.417  0.0570 -0.2660  0.1728
15140W        W31274  16.621   9.489  12.752 -0.1621  0.3251 -0.2774
15141W        W31275   5.445   1.712   0.422 -0.1696  0.2128 -0.0229
15142W        W31276   3.261   7.650   1.731  0.2240  0.1539 -0.0681
15143W        W31277  14.044   7.853  10.996 -0.1579 -0.2783  0.0836
15144W        W31278   2.726  14.892   0.374 -0.0311  0.1207 -0.1900
15145W        W31279  11.256  13.324   2.590  0.0760  0.1738 -0.0039
15146W        W31280  11.290  14.453  10.383 -0.1671 -0.0336 -0.0623
15147W        W31281   9.051   9.418  14.766  0.2286 -0.0925 -0.4027
15148W        W31282   5.470   7.784   1.135 -0.2392  0.0908 -0.2043
15149W        W31283  10.100  17.324   3.292  0.0156  0.0306  0.1762
15150W        W31284  16.168   6.510   9.869  0.0609  0.0234 -0.2454
15151W        W31285   3.985   7.892  14.619 -0.0648  0.1865  0.1810
15152W        W31286   4.095  18.643   0.043  0.0903 -0.1578 -0.1136
15153W        W31287   7.711  18.955  13.039 -0.0257 -0.3859 -0.2113
15154W        W31288   1.592  18.907  13.272  0.0457  0.1616 -0.1528
15155W        W31289   9.034   0.863   1.162 -0.1548 -0.2631  0.2762
15156W        W31290  12.709  16.563   0.941 -0.2736  0.2453  0.2071
15157W        W31291  10.112   4.340   1.385  0.2556 -0.0588  0.1573
15158W        W31292  16.566  19.083  11.556  0.1850 -0.0902 -0.1908
15159W        W31293   0.487  12.878   4.964 -0.0204  0.0599  0.1780
15160W        W31294   8.400  19.026   3.053  0.0831  0.0054  0.3514
15161W        W31295   4.182   9.615   0.728  0.1463  0.2145 -0.1717
15162W        W31296   7.224   3.375   2.848 -0.0229  0.1871  0.1414
15163W        W31297  17.901   5.285   3.292  0.0215 -0.0230 -0.0187
15164W        W31298   3.435  14.065   3.963  0.3735 -0.1460  0.1695
15165W        W31299  15.603   5.876   4.156 -0.1743 -0.0188 -0.2958
15166W        W31300  12.609  16.247   3.929 -0.1322  0.0156  0.0610
15167W        W31301   4.004   5.196   3.832 -0.0986  0.1692  0.1208
15168W        W31302   8.440   9.206   0.625  0.0715 -0.1910 -0.1892
15169W        W31303  16.289  11.466  10.099 -0.0255 -0.0962  0.1611
15170W        W31304   2.204  12.286  14.867 -0.0455 -0.0154 -0.2018
15171W        W31305   8.748  14.191  11.175 -0.1284  0.2450  0.0802
15172W        W31306   0.680  12.632  15.058 -0.0136 -0.0810 -0.0617
15173W        W31307  15.277   7.382   0.755 -0.2930 -0.0520 -0.3492
15174W        W31308  18.572  15.844   1.833  0.0636  0.0699  0.2721
15175W        W31309   1.838   7.765   3.766  0.2759  0.1111  0.1529
15176W        W31310   5.405   1.490  13.312  0.0529  0.0941  0.2690
15177W        W31311   2.540  10.924   0.679  0.0636  0.0565 -0.1248
15178W        W31312  18.376   0.877  11.444  0.1067 -0.1029 -0.1204
15179W        W31313   4.880   4.423  12.611 -0.2608 -0.1079  0.1049
15180W        W31314   2.698  12.497   0.151 -0.0637  0.1885 -0.1974
15181W        W31315   9.099   7.158  14.881 -0.0708  0.0662 -0.1531
15182W        W31316   8.777   6.682   1.688 -0.1470 -0.1399  0.0419
15183W        W31317   9.514   4.026   5.639 -0.1879 -0.0537 -0.2448
15184W        W31318   8.797  12.091  12.466  0.0527  0.1905 -0.0359
15185W        W31319  14.178  10.356  12.832  0.1943  0.0620  0.1013
15186W        W31320   5.404   7.633  14.601  0.3775  0.1826  0.2372
15187W        W31321   1.387  17.235  13.445  0.0152 -0.0925  0.2392
15188W        W31322   5.246  11.043  13.325 -0.1010  0.1100  0.0871
15189W        W31323  14.513   5.776  12.053 -0.3872  0.1760 -0.1354
15190W        W31324   8.259  16.647  15.147 -0.1763  0.1367  0.1518
15191W        W31325   3.719  10.405   2.990  0.2766  0.0912  0.3015
15192W        W31326   7.986  16.133   0.062 -0.0087 -0.0276 -0.1425
15193W        W31327   8.188  15.947   5.098 -0.0123  0.0825 -0.0473
15194W        W31328  18.195  18.482  14.531  0.0202 -0.0574 -0.0027
15195W        W31329  11.715   6.518   0.085 -0.1556  0.0502  0.0133
15196W        W31330  18.520   2.270   2.323  0.0212 -0.0493 -0.3415
15197W        W31331   0.034   0.400  10.862 -0.1998 -0.1717 -0.0086
15198W        W31332  12.730  14.925  10.797  0.0297 -0.0231  0.4370
15199W        W31333  16.396   9.839  10.426 -0.1619 -0.0116  0.0581
15200W        W31334  15.061   7.979   2.428  0.0669  0.1277 -0.3319
15201W        W31335   6.657  14.982   4.579 -0.0416  0.1563  0.1935
15202W        W31336   8.450  11.172   5.106 -0.1038  0.1769 -0.0737
15203W        W31337  18.799  14.833   0.401  0.3072 -0.4574  0.0504
15204W        W31338   1.189  15.363   2.257 -0.3343 -0.1526 -0.3338
15205W        W31339  14.695   0.953  13.486 -0.2097 -0.2895  0.2549
15206W        W31340  16.339   8.390  10.757  0.4112 -0.2507  0.3577
15207W        W31341  11.727   5.858   3.073  0.0392 -0.2764 -0.0983
15208W        W31342  12.007  16.475  11.816  0.0683  0.1458  0.1899
15209W        W31343   3.302   2.901  11.116  0.2955  0.2425 -0.2046
15210W        W31344   2.760   7.516   2.345 -0.3783 -0.1755  0.2094
15211W        W31345   2.978  15.381  15.129  0.2173 -0.2154 -0.2435
15212W        W31346   4.562   5.060  10.005 -0.1967 -0.1983 -0.3370
15213W        W31347  18.567   5.222   1.875 -0.0430 -0.2992  0.4686
15214W        W31348   5.250  10.966  14.915 -0.1815 -0.4474 -0.3586
15215W        W31349  16.968   8.156  12.730 -0.0503 -0.1139 -0.1587
15216W        W31350  10.965   0.420   4.560  0.1527 -0.2734 -0.0612
15217W        W31351  14.373   4.026  15.041  0.0518 -0.2772 -0.2018
15218W        W31352   3.426   4.788  14.178 -0.1584  0.1450 -0.1285
15219W        W31353  16.645  11.568  13.103 -0.2100  0.3833 -0.4232
15220W        W31354   9.113  11.227   2.947 -0.0114  0.4250  0.0567
15221W        W31355   9.344   1.304   3.571  0.0642 -0.0143 -0.1693
15222W        W31356  15.018   0.237   3.042  0.1599 -0.4366 -0.0945
15223W        W31357  10.331   8.734  13.716  0.0467 -0.0656  0.0039
15224W        W31358  11.020  11.238  14.819 -0.0298  0.1172 -0.0312
15225W        W31359   9.394  14.972  13.288 -0.0227  0.1472 -0.0781
15226W        W31360   8.111   2.760   0.342  0.0107 -0.2588  0.0616
15227W        W31361   7.891  18.611  14.854  0.2975  0.2037 -0.1637
15228W        W31362  17.092   9.734   1.059  0.2543 -0.1531 -0.0071
15229W        W31363   6.884   8.279   1.966 -0.0514 -0.2274 -0.0020
15230W        W31364   2.826  18.034  11.799  0.1459 -0.0664 -0.0032
15231W        W31365   7.182   2.066   1.588 -0.0519 -0.3165 -0.1016
15232W        W31366  15.890   5.472  11.507  0.0780 -0.0235  0.1169
15233W        W31367  11.657   4.399   1.979  0.1355 -0.0885  0.0541
15234W        W31368  13.720  17.717   4.672  0.0038 -0.3526  0.1338
15235W        W31369   0.022   9.369   2.172  0.1367 -0.1534  0.3793
15236W        W31370   8.865   0.115   0.513  0.0815 -0.2394 -0.3719
15237W        W31371   2.989   9.650  13.653 -0.2797 -0.0334 -0.0079
15238W        W31372  11.855   4.289   2.423 -0.1581  0.1725 -0.0452
15239W        W31373   4.614  11.093  12.853  0.2158  0.1482 -0.2961
15240W        W31374   3.149  12.553   5.393 -0.0227 -0.0716  0.1853
15241W        W31375  11.344  17.384  13.228  0.2518 -0.0984  0.2637
15242W        W31376  19.055   3.587  10.858 -0.2640 -0.0992 -0.0855
15243W        W31377   8.191  11.974   1.011 -0.1410  0.1580  0.0903
15244W        W31378  18.735   6.351   3.412 -0.1716 -0.1181 -0.1385
15245W        W31379  12.673   5.797   1.648  0.2890  0.3067  0.1360
15246W        W31380   7.409  18.555  14.265  0.1237 -0.0901  0.2530
15247W        W31381   9.713   6.482  14.869 -0.0104  0.2729 -0.0272
15248W        W31382  14.686   3.483  14.059  0.1718  0.1609 -0.1810
15249W        W31383   8.399  11.943   9.980  0.4511 -0.0539  0.2377
15250W        W31384   4.857   5.677  12.444  0.1456 -0.0387  0.0052
15251W        W31385   6.766  14.354   2.804 -0.2252 -0.0705  0.1253
15252W        W31386   1.746   2.955  13.751  0.1280 -0.1874  0.2214
15253W        W31387   2.554   3.683   1.956  0.3136 -0.0246 -0.0830
15254W        W31388   5.380   6.475  14.338  0.2532 -0.4688 -0.3027
15255W        W31389   6.758   6.379  15.016 -0.2615  0.0831  0.2827
15256W        W31390  14.249   9.258   3.731 -0.1258  0.0907  0.0691
15257W        W31391   9.862  10.876  12.674 -0.1640 -0.0127  0.3734
15258W        W31392  16.845   5.349  14.736  0.2093  0.1726  0.1094
15259W        W31393  10.206  12.352   0.277  0.0113 -0.1843 -0.0751
15260W        W31394  19.142   4.513   4.950 -0.0117  0.2549 -0.1008
15261W        W31395  10.215  13.896   0.059  0.1474  0.1617 -0.0830
15262W        W31396   1.665  14.419  10.680  0.0986  0.0748  0.3400
15263W        W31397   1.304  14.377  15.104 -0.0113  0.0253  0.2641
15264W        W31398   8.339   3.722  15.033 -0.0984  0.1978 -0.0124
15265W        W31399   7.786   7.297   1.854 -0.2396  0.2711 -0.0529
15266W        W31400  11.198   4.607   2.946  0.0265  0.0374  0.0668
15267W        W31401  14.799  10.730  10.434 -0.1661 -0.1257 -0.2308
15268W        W31402  14.771   8.021  11.501  0.0959  0.1873 -0.1469
15269W        W31403   6.521   2.434   4.071  0.2456 -0.0920 -0.1557
15270W        W31404  11.404   7.458   4.178 -0.1301  0.0802 -0.0608
15271W        W31405  17.822   6.457   5.143  0.0488  0.1795  0.3360
15272W        W31406   9.599   2.430   1.272 -0.2843  0.0720 -0.0085
15273W        W31407   8.127  15.596   4.782 -0.2655 -0.1424  0.0756
15274W        W31408  15.591   5.099  11.586  0.0357 -0.0330  0.0369
15275W        W31409   6.031   8.228  11.850  0.0058 -0.1081  0.1565
15276W        W31410  17.746   6.889   3.060  0.1488 -0.2351  0.2407
15277W        W31411   8.574   1.671  12.513 -0.0503  0.2757 -0.4512
15278W        W31412   9.794   9.749   4.878  0.1840  0.1061  0.2124
15279W        W31413  18.953   9.214   0.896  0.1410 -0.1201  0.1778
15280W        W31414  11.340  16.517   2.890 -0.2091 -0.0443 -0.2048
15281W        W31415   7.549   8.722   4.448 -0.2601 -0.0516 -0.3838
15282W        W31416  13.719   0.368   3.060  0.2326  0.3047 -0.0863
15283W        W31417  12.900  13.497   2.297 -0.1180 -0.0167 -0.1112
15284W        W31418  16.548  13.713   0.543  0.0906 -0.0311  0.0496
15285W        W31419  16.335  18.295   5.371 -0.5174  0.0480  0.0243
15286W        W31420   2.173   1.927   0.775 -0.0808 -0.2706 -0.2250
15287W        W31421   3.168  10.049   5.090 -0.0958 -0.1662 -0.0805
15288W        W31422  13.174  11.838   0.049  0.4424  0.2384  0.1211
15289W        W31423   6.493  14.367   0.133  0.1533 -0.1687  0.3757
15290W        W31424  11.628   9.852  14.790  0.1733  0.0435  0.2125
15291W        W31425   5.523   8.492   4.769 -0.0671 -0.1441  0.1329
15292W        W31426  18.269  16.068   2.184 -0.0839 -0.3374  0.0077
15293W        W31427  16.040   0.132  12.464 -0.0433  0.1267  0.1543
15294W        W31428   9.929   6.789  11.898  0.4107  0.0320 -0.1513
15295W        W31429  10.947  13.771   5.262  0.0446 -0.3440  0.1862
15296W        W31430  14.328   7.274  11.941  0.2138  0.3252 -0.0119
15297W        W31431   1.296   4.899  11.229 -0.0584  0.4565  0.2371
15298W        W31432   9.664   5.238   0.103 -0.0918 -0.0552  0.1047
15299W        W31433  16.525  16.749  12.372 -0.3006 -0.4950 -0.1784
15300W        W31434   2.726  14.064  12.612 -0.0400  0.0945 -0.2800
15301W        W31435   6.986  13.830   4.923  0.1004  0.1063  0.1267
15302W        W31436  10.603  16.046   4.793  0.2778 -0.2339 -0.2375
15303W        W31437  18.654  10.671  11.936  0.3149  0.2935  0.3109
15304W        W31438   6.634   0.469  13.723 -0.1358 -0.1770 -0.1585
15305W        W31439   8.190   9.350   3.079  0.2125 -0.1229 -0.1760
15306W        W31440   4.276  11.782   1.746 -0.0575  0.0708 -0.3070
15307W        W31441   0.079   8.158   9.995 -0.0610  0.2653 -0.3442
15308W        W31442  10.416   6.982  14.775 -0.4014  0.2746  0.1321
15309W        W31443   3.783  17.804  12.768 -0.2743 -0.1633  0.4139
15310W        W31444   7.837   4.947  13.908  0.1198  0.1136  0.1361
15311W        W31445   4.527  13.781   4.646  0.1825 -0.1391  0.4511
15312W        W31446  13.330   7.797   3.307 -0.0316  0.1359  0.0973
15313W        W31447  15.086  12.993   1.609  0.0987 -0.0406  0.0860
15314W        W31448  11.573  18.511  12.945  0.2142  0.0686  0.1636
15315W        W31449   7.939   4.296  13.351 -0.0133 -0.0136 -0.1311
15316W        W31450  18.193   6.056   0.535  0.0471  0.3282  0.1421
15317W        W31451  17.415  12.447  13.471 -0.0220 -0.3366  0.0358
15318W        W31452   3.173  12.687  14.003  0.0929  0.0709  0.2720
15319W        W31453   7.142   8.181  13.277  0.1264  0.0900  0.1365
15320W        W31454   1.380  17.984  12.285  0.0177  0.2577  0.2367
15321W        W31455  16.436   4.966   1.288  0.0047 -0.3340  0.0145
15322W        W31456   5.304   2.754  10.559 -0.0315  0.0075 -0.1748
15323W        W31457  15.433   0.666   2.759 -0.0130  0.1385 -0.2600
15324W        W31458   8.795   7.975  14.149 -0.4022 -0.2883  0.2186
15325W        W31459  12.937  15.993   2.290  0.1052 -0.2629 -0.2707
15326W        W31460  14.195  12.503   0.644 -0.0184 -0.4559 -0.1582
15327W        W31461   8.736   9.972  14.828 -0.0490 -0.2792 -0.3586
15328W        W31462   1.241  18.969   3.030 -0.2669 -0.0762  0.1364
15329W        W31463  17.757  13.880  11.270  0.0921  0.0637 -0.0288
15330W        W31464  17.142  10.592   3.066 -0.2222  0.0625  0.0390
15331W        W31465  11.918   6.780   1.023 -0.2326 -0.0712  0.0041
15332W        W31466   3.961   8.543  15.056  0.1737  0.0128 -0.2489
15333W        W31467   8.752   5.531   4.476  0.0323 -0.0765 -0.1115
15334W        W31468   5.325  10.002   3.569 -0.1204 -0.2657 -0.4420
15335W        W31469   4.027   3.861   2.144  0.2036  0.0372 -0.4887
15336W        W31470   0.961  11.403  12.879  0.2185  0.3312  0.0419
15337W        W31471   5.780  18.635   0.080 -0.1287  0.1879 -0.1813
15338W        W31472  10.339  15.566   5.178  0.1559  0.0075 -0.1090
15339W        W31473   2.738   7.063  13.387  0.0839 -0.3629  0.2148
15340W        W31474   9.328   7.981   1.832 -0.0573 -0.0567 -0.0846
15341W        W31475   2.296  18.360  12.996  0.5577 -0.0494 -0.2270
15342W        W31476   5.406   2.202  11.774  0.0867 -0.1343  0.1595
15343W        W31477   8.862  16.187  13.759 -0.0452 -0.0489 -0.2584
15344W        W31478   8.736  14.461  12.131 -0.0911  0.0799  0.1142
15345W        W31479  18.098   0.915   0.998 -0.0670  0.0161 -0.3147
15346W        W31480  12.709   7.509  11.385 -0.0883 -0.1504 -0.0624
15347W        W31481   3.146   7.109  12.093 -0.2489 -0.3012 -0.0229
15348W        W31482  18.613  15.344  13.926  0.3397  0.0341 -0.0908
15349W        W31483  16.485   0.973  10.625 -0.1936 -0.0484  0.1313
15350W        W31484   8.592  11.646  11.622 -0.1036  0.0792 -0.3523
15351W        W31485   9.040  17.279  13.604  0.0778  0.0923 -0.2819
15352W        W31486   8.795  17.061  12.224 -0.0195  0.0010 -0.2715
15353W        W31487  18.752   1.291   2.538 -0.2217 -0.2487  0.3281
15354W        W31488   2.688   9.070  11.891 -0.0332 -0.1927 -0.0707
15355W        W31489  15.169   2.548   1.245 -0.2359  0.1919  0.0058
15356W        W31490  16.456   7.815  12.033  0.1109 -0.1109 -0.1882
15357W        W31491   4.921   9.329   4.575 -0.0728  0.3668  0.0893
15358W        W31492   4.962   2.346   3.681 -0.1031  0.1828 -0.0987
15359W        W31493   7.089   3.416  11.824  0.1875  0.0296  0.0344
15360W        W31494   6.128  17.799  10.720 -0.1765  0.0264  0.0048
15361W        W31495   0.139  13.824  13.610 -0.2386  0.0143 -0.1219
15362W        W31496   0.997   9.533  11.039 -0.0471  0.0456  0.1297
15363W        W31497   5.995   6.707   1.063 -0.1549 -0.0906  0.0758
15364W        W31498   0.594   9.088   1.464 -0.0697  0.1131 -0.3624
15365W        W31499  16.624  14.810   2.704 -0.0488  0.2501 -0.2471
15366W        W31500   9.106   5.987   4.254 -0.0262  0.4222  0.1212
15367W        W31501   1.838  15.179  14.165  0.0051 -0.5062  0.1770
15368W        W31502   5.119  12.387   6.027 -0.1925 -0.0952  0.1038
15369W        W31503  12.623   7.047   2.580  0.0489 -0.2502 -0.1445
15370W        W31504   1.779   0.743   0.117  0.2554 -0.0274 -0.2554
15371W        W31505  10.218  10.071   3.148  0.1203  0.0873  0.1412
15372W        W31506  18.161  10.858  13.675 -0.0890  0.1523 -0.0685
15373W        W31507  18.501   0.245   4.704  0.2936 -0.1688  0.1936
15374W        W31508   9.177   9.597   5.272 -0.0210 -0.0159 -0.3565
15375W        W31509  11.623  12.512   1.919  0.1080 -0.0386  0.1244
15376W        W31510  17.354   4.662   1.311 -0.0771  0.0469  0.0401
15377W        W31511  17.086   5.313   0.706  0.1258 -0.0231 -0.2466
15378W        W31512  13.041   3.715  11.264 -0.0697  0.0489 -0.3174
15379W        W31513   8.537   7.639  13.337 -0.3582 -0.1597  0.0941
15380W        W31514  18.364   3.139  13.844  0.1289  0.2992 -0.0037
15381W        W31515   6.777   6.489   4.786 -0.1695 -0.1415 -0.1143
15382W        W31516   7.423  15.727   5.834  0.0787  0.0593 -0.0522
15383W        W31517  12.032  10.601   0.314 -0.0539 -0.0896  0.1302
15384W        W31518  10.632  13.412  14.191  0.4033  0.0519 -0.1732
15385W        W31519   9.976   1.191  10.905  0.3827 -0.2480 -0.3209
15386W        W31520   1.885   8.021   2.103 -0.0572  0.0767  0.2694
15387W        W31521  11.175  18.204   3.710 -0.1272 -0.0989 -0.0729
15388W        W31522  12.108  18.073  13.869 -0.3402 -0.1488 -0.0645
15389W        W31523  12.028   0.499  14.671  0.2897  0.0386 -0.1925
15390W        W31524  11.852  17.922  10.515  0.3173 -0.0823 -0.2133
15391W        W31525   0.192  12.588   2.079  0.1621 -0.0011  0.2278
15392W        W31526   8.360   5.755   4.717 -0.0722  0.0540 -0.1041
15393W        W31527   7.895  15.497   5.331 -0.0815 -0.0566 -0.2147
15394W        W31528   2.955   7.580  15.134  0.1488  0.0207  0.0918
15395W        W31529   1.120   8.020   3.795  0.1544  0.0262 -0.0500
15396W        W31530   1.385  18.858  12.667  0.0572  0.2137 -0.2618
15397W        W31531  18.301   2.507   0.988 -0.0063  0.0103 -0.1219
15398W        W31532   7.612  18.711   0.411 -0.1447 -0.0800 -0.0296
15399W        W31533   4.793  14.000  12.913  0.0785  0.3884  0.1949
15400W        W31534  17.229  12.977  14.957  0.0101 -0.0096  0.2343
15401W        W31535   5.468   1.774   2.195 -0.3498  0.4778  0.0321
15402W        W31536  10.718  13.621  11.194  0.3309 -0.0151 -0.2524
15403W        W31537  12.413  11.491   0.325 -0.1088  0.3561  0.0898
15404W        W31538  11.096   0.425   1.611  0.3758 -0.2371  0.3655
15405W        W31539   2.361   8.464  13.916  0.3620 -0.0803  0.0690
15406W        W31540   6.379   8.567   4.951  0.2068  0.1544  0.3250
15407W        W31541   4.569   6.319   1.165 -0.2404  0.0508  0.3544
15408W        W31542  16.996   1.210  10.772  0.5211 -0.0139  0.0016
15409W        W31543  17.468  17.090   2.713  0.1332  0.0173  0.1496
15410W        W31544   4.260  15.415   3.284 -0.1925 -0.0238 -0.4730
15411W        W31545   7.049   4.670   0.176  0.1324  0.3224 -0.0585
15412W        W31546  10.192  11.112   1.505 -0.0498 -0.0666  0.0274
15413W        W31547  17.363  17.577   4.706 -0.0693 -0.0976  0.0591
15414W        W31548  11.438   1.824   0.157 -0.2228 -0.0904  0.0865
15415W        W31549   0.522   1.287  12.696  0.0616  0.0847 -0.1395
15416W        W31550   6.974  17.377  11.185  0.4614  0.1488  0.1931
15417W        W31551   6.111   7.951  13.380 -0.0313 -0.0448  0.0757
15418W        W31552   8.537  10.691   0.568 -0.3215  0.0938 -0.0572
15419W        W31553  13.066  10.141   2.978  0.1661 -0.0629 -0.2429
15420W        W31554  16.385   1.274   4.666 -0.1814  0.0562 -0.0435
15421W        W31555   6.222   5.269   2.735 -0.1194 -0.0854 -0.0161
15422W        W31556  14.365  14.353   0.818 -0.1354  0.4144 -0.3305
15423W        W31557  10.004   1.519   5.232  0.1656  0.0967 -0.0639
15424W        W31558   2.314  13.659  14.922 -0.0356 -0.1362 -0.0805
15425W        W31559  16.165  15.426   0.602 -0.0148  0.2142  0.2099
15426W        W31560  11.038   1.304  14.098 -0.0946 -0.0114  0.1506
15427W        W31561   0.139   2.102  14.924  0.2426  0.1815 -0.2167
15428W        W31562   8.836   2.163   0.570  0.0992  0.0269  0.0135
15429W        W31563  16.919   0.734  11.989 -0.1017  0.1048 -0.3428
15430W        W31564   7.850  14.311   2.787  0.0943 -0.3309 -0.1404
15431W        W31565   5.697  12.153   3.145 -0.2386 -0.0370  0.2490
15432W        W31566  15.737   2.591   4.094  0.0563 -0.5283 -0.0809
15433W        W31567   9.431   5.736  12.588 -0.0014 -0.0287  0.0764
15434W        W31568   9.032  11.080   5.257 -0.3275  0.1203  0.0581
15435W        W31569   1.928   0.449  14.846 -0.1548  0.3682 -0.1325
15436W        W31570  19.146  17.406  11.555  0.0597  0.0479 -0.0307
15437W        W31571   1.724   0.436   1.407 -0.0676 -0.0655  0.3629
15438W        W31572  10.755   0.707  12.740  0.3652  0.1854 -0.0677
15439W        W31573  10.951   0.340   3.039  0.1822  0.1908 -0.1329
15440W        W31574   7.342   7.783   4.301  0.0750  0.3271 -0.2444
15441W        W31575   4.945  11.915  11.844  0.0995  0.0495  0.1100
15442W        W31576  11.697   1.457   4.075  0.1187 -0.0071  0.1358
15443W        W31577  10.979   5.972   1.658 -0.1298  0.3049 -0.2981
15444W        W31578  19.148  16.946  11.857 -0.0727  0.0740 -0.1997
15445W        W31579   0.295   8.605   1.520 -0.1439 -0.1646 -0.1541
15446W        W31580  18.150   4.070   4.705  0.2810 -0.3236  0.2965
15447W        W31581  15.257  13.836   0.968  0.0484 -0.0922 -0.2913
15448W        W31582  11.492  14.003  13.062 -0.0840 -0.1197 -0.0783
15449W        W31583  14.086   2.475   3.078  0.5171 -0.4543  0.0904
15450W        W31584   1.989   2.063   5.388  0.1667  0.0737  0.1491
15451W        W31585  18.696   9.812   3.266  0.1348  0.2698  0.3283
15452W        W31586   3.779   4.023   3.611  0.1639  0.0730  0.1349
15453W        W31587  18.812   9.128  12.619 -0.2283 -0.0454 -0.0960
15454W        W31588   2.474   6.262   0.863  0.4247  0.1611 -0.0476
15455W        W31589   0.805  11.931   3.777  0.1821  0.0072  0.3203
15456W        W31590  12.805   9.670   4.976 -0.0165 -0.1085  0.1513
15457W        W31591  17.217   9.199   1.285  0.1387  0.0089  0.1249
15458W        W31592   3.097  13.919   2.474  0.0097 -0.1127 -0.2399
15459W        W31593  16.288   4.593  11.675 -0.2162 -0.1843  0.1659
15460W        W31594   6.856   9.207   3.646  0.1589 -0.0551  0.3632
15461W        W31595  12.232   6.140   3.966  0.1191  0.0541 -0.0020
15462W        W31596  14.080   2.713  12.665 -0.1140  0.0431 -0.0456
15463W        W31597  13.860  17.760  12.633  0.2716 -0.0579 -0.1826
15464W        W31598  15.964  13.112   0.940 -0.0219  0.2389 -0.0881
15465W        W31599  14.573  11.141  13.400  0.1037  0.5347 -0.2442
15466W        W31600  10.786  11.174   1.071 -0.3591  0.3385 -0.0226
15467W        W31601  11.211   2.462  13.561 -0.1767  0.0231  0.0294
15468W        W31602   2.765  17.452  12.971 -0.2887  0.1443  0.0887
15469W        W31603   4.728  15.896  13.347 -0.1070 -0.1034 -0.0223
15470W        W31604  16.924  15.416  14.211  0.1484 -0.1279  0.1602
15471W        W31605   9.051   3.952  14.160  0.2267 -0.1668  0.0128
15472W        W31606  19.052   7.662  10.010 -0.1306 -0.1155  0.2790
15473W        W31607   8.638  12.441  10.963  0.2214 -0.0300 -0.1421
15474W        W31608  14.464  12.187   3.067 -0.3329  0.0115 -0.2791
15475W        W31609   0.921  14.051   3.148 -0.1022  0.0319 -0.0431
15476W        W31610   4.934   3.486  11.693  0.0036  0.0861 -0.0932
15477W        W31611  13.955  13.392  10.614 -0.1382  0.0261  0.1325
15478W        W31612  19.130  18.563   2.794 -0.1916 -0.0102 -0.0216
15479W        W31613  13.579   1.459   2.127 -0.0119 -0.1835  0.0366
15480W        W31614   9.606  18.890   2.516  0.1939  0.1778  0.0752
15481W        W31615  11.463   2.173  11.367  0.1067  0.1358 -0.0899
15482W        W31616   6.787   9.225   4.517 -0.2935 -0.2641  0.0069
15483W        W31617   8.708   1.109  14.018 -0.3202  0.1471 -0.0415
15484W        W31618   5.225  15.118   2.250 -0.1846  0.0166  0.1240
15485W        W31619   3.735  12.605  12.321 -0.0220 -0.4671  0.0957
15486W        W31620   0.045  10.801   0.105  0.0061  0.0986 -0.0623
15487W        W31621   5.326   7.003  12.966  0.1790 -0.3489 -0.2017
15488W        W31622   2.129   3.183   0.156  0.0099 -0.1228 -0.3388
15489W        W31623   8.612  12.204  14.009 -0.0480 -0.0727  0.2119
15490W        W31624   1.140  11.122  11.824 -0.0896 -0.1232  0.1273
15491W        W31625   8.911  15.509  10.744  0.1788 -0.2945  0.3687
15492W        W31626   5.858   2.567  12.309 -0.0362  0.1833 -0.2434
15493W        W31627  15.600   0.659  13.044  0.3037 -0.0164  0.2237
15494W        W31628   7.074   8.953  12.743  0.0465  0.0215  0.2163
15495W        W31629  18.813  16.034   0.129  0.3066 -0.1219 -0.1248
15496W        W31630   3.703  16.401  14.176 -0.0965  0.1759 -0.1070
15497W        W31631   6.853  17.811  11.003  0.1240 -0.0186 -0.0750
15498W        W31632   2.169   1.026   1.919 -0.2465  0.1454 -0.2677
15499W        W31633   7.807  18.569   4.613  0.0083  0.1709 -0.1107
15500W        W31634  10.937   8.056  11.035  0.3289  0.0454 -0.0992
15501W        W31635   9.557   4.128   5.089  0.1466  0.2911 -0.0011
15502W        W31636   1.090   5.690   2.151  0.1717  0.1853 -0.1903
15503W        W31637   0.933   1.037  10.940 -0.1017  0.0054 -0.0436
15504W        W31638   6.190   3.806  12.163 -0.0881 -0.0213  0.1063
15505W        W31639  16.199   9.029   4.279 -0.3379 -0.1594  0.3690
15506W        W31640  18.628   7.941   0.272  0.0158 -0.0253  0.1052
15507W        W31641  15.231  18.795  14.566  0.2441 -0.0155  0.0269
15508W        W31642   6.109  18.835   2.491  0.3978  0.0012 -0.2245
15509W        W31643   4.696   1.390   2.636  0.4204  0.1953 -0.2319
15510W        W31644  10.113  10.657  11.928 -0.1732 -0.0539 -0.0470
15511W        W31645   3.283   4.349   3.881 -0.2693  0.4160  0.2931
15512W        W31646  16.192   9.484   0.060  0.1999 -0.0140 -0.0038
15513W        W31647   0.189  13.704  13.119  0.4130  0.1565  0.2911
15514W        W31648   6.323  16.814   0.587 -0.1359  0.0392  0.3371
15515W        W31649   7.629  14.416  13.836 -0.1452 -0.0014  0.3001
15516W        W31650   3.395   3.509  13.488  0.0932  0.3169 -0.0973
15517W        W31651   8.589   6.560  12.496  0.1674 -0.4526  0.0264
15518W        W31652   2.185   5.321   1.276 -0.0080  0.1914 -0.2520
15519W        W31653   5.397  14.610  13.206 -0.0257  0.2240 -0.1592
15520W        W31654   9.641   6.249   2.106  0.4296 -0.3524 -0.1807
15521W        W31655  12.101  16.756  14.109  0.1206 -0.2796  0.1738
15522W        W31656  15.012   8.111  12.644 -0.4170 -0.0845  0.1170
15523W        W31657  15.064   1.968   2.929  0.3337  0.0049 -0.2375
15524W        W31658   0.731  17.375  12.734  0.0988  0.0412 -0.3587
15525W        W31659  12.036  15.216   0.827 -0.2772  0.0629  0.0542
15526W        W31660  12.486   7.520   3.616 -0.0606 -0.0053 -0.0782
15527W        W31661   1.992   0.019   3.620 -0.1036 -0.2032  0.0088
15528W        W31662   6.874   9.734   4.803  0.3653  0.2909 -0.2123
15529W        W31663   7.229   2.378   1.134 -0.3384  0.4303  0.0112
15530W        W31664   4.051   3.245   4.174  0.1668  0.3231  0.0598
15531W        W31665  13.952  15.555  11.661  0.0465  0.0781 -0.0592
15532W        W31666   7.011  18.150  13.299 -0.0919 -0.1276  0.0177
15533W        W31667   6.937   0.774   3.926 -0.0061 -0.3444  0.0971
15534W        W31668  15.823   9.139   0.480 -0.3439 -0.0687  0.0067
15535W        W31669   0.183   0.715   4.846 -0.1436  0.3100  0.2078
15536W        W31670  12.561  12.823  14.681  0.0545  0.0839 -0.0967
15537W        W31671  14.852  10.663   0.908  0.0435  0.1237 -0.1778
15538W        W31672  11.623  13.803  12.132  0.2776  0.1188  0.3911
15539W        W31673  13.294   5.019   2.147  0.2746 -0.1168 -0.2793
15540W        W31674  18.033   3.674  10.907  0.1153  0.1861 -0.1286
15541W        W31675   6.558   8.112   3.845 -0.1578 -0.0168 -0.1664
15542W        W31676  13.477   5.770   0.637 -0.1372  0.0472  0.1150
15543W        W31677   5.232  14.146  13.111 -0.0636 -0.1106 -0.2449
15544W        W31678   2.945   6.607  12.033  0.0899 -0.5676 -0.2122
15545W        W31679  15.754  10.178  12.210 -0.3039  0.1868  0.0505
15546W        W31680   7.112  13.996   2.354  0.1129  0.3276 -0.3093
15547W        W31681   3.508  10.793  12.321 -0.0419  0.2210  0.1838
15548W        W31682   8.799  14.566   0.492 -0.2646  0.1283  0.0666
15549W        W31683  10.902   9.565  10.527 -0.0840 -0.0172 -0.0131
15550W        W31684   1.222   4.692   3.235  0.0288  0.0853 -0.1420
15551W        W31685  19.059   9.067  13.108 -0.0043  0.0262 -0.4403
15552W        W31686   8.762  16.173   2.258 -0.1034  0.0576  0.0309
15553W        W31687   7.356   0.246  10.351  0.0905 -0.0982 -0.0380
15554W        W31688   1.785  14.086   4.996  0.1685  0.1238 -0.0175
15555W        W31689  13.387   8.836   3.188  0.1442  0.0147 -0.1649
15556W        W31690  18.841   5.510   3.495 -0.1173 -0.4123  0.0546
15557W        W31691  13.229  14.879  10.859  0.0229 -0.2177 -0.0108
15558W        W31692   5.958   4.206  10.611 -0.0674 -0.2315  0.1841
15559W        W31693   3.991   9.431  12.599  0.1343 -0.1362 -0.3447
15560W        W31694   9.957   7.961   1.058  0.1275  0.1163  0.1412
15561W        W31695  10.215   1.793  14.902  0.2985  0.2547  0.2763
15562W        W31696  15.791   5.723   3.665  0.1078  0.4839  0.2812
15563W        W31697  14.141  12.232   3.454 -0.0927  0.1820 -0.2128
15564W        W31698   3.661  16.609  11.047 -0.3021  0.1117  0.2345
15565W        W31699   8.529   0.957   3.670  0.0312  0.2857  0.0937
15566W        W31700  12.811  10.386  12.203 -0.2279 -0.0199  0.0371
15567W        W31701  18.769  16.954  14.578 -0.3284 -0.1112  0.1189
15568W        W31702   6.194  11.278   2.930 -0.0999  0.0158  0.1209
15569W        W31703  16.046   2.842   3.143 -0.4571 -0.1290  0.2308
15570W        W31704  14.617   8.633   1.980  0.4869  0.2026  0.2283
15571W        W31705  13.373   7.683  10.625 -0.0154 -0.1389  0.3627
15572W        W31706   5.500   4.102  10.399  0.0171 -0.0359 -0.1870
15573W        W31707   9.587  18.955  13.507 -0.2117 -0.2752  0.1061
15574W        W31708  18.673   8.127  14.135  0.1827 -0.0024  0.1785
15575W        W31709  18.317  14.585  11.570 -0.2630 -0.2514  0.1463
15576W        W31710   7.388   3.465  13.598  0.2079 -0.1609  0.0013
15577W        W31711   9.667   3.202   3.269 -0.1902 -0.0419  0.1312
15578W        W31712  11.820   6.805   0.425 -0.0177 -0.0681 -0.0896
15579W        W31713  12.614   0.648  11.956  0.0987 -0.0575  0.1452
15580W        W31714   4.563  17.549   4.103  0.0128 -0.2202 -0.0556
15581W        W31715   5.515   3.102   1.931  0.2992  0.0231  0.1747
15582W        W31716  15.692  14.503  11.796  0.2062 -0.2850 -0.1353
15583W        W31717   8.628   1.335  12.194  0.1445  0.2214 -0.0400
15584W        W31718  17.619  15.224  11.076 -0.1121  0.0311  0.1823
15585W        W31719  11.590  15.925   0.302 -0.3682  0.2571 -0.1160
15586W        W31720  13.361   6.961  11.897  0.1310  0.2236 -0.2361
15587W        W31721   8.799  12.903  12.066 -0.1368  0.0805  0.0550
15588W        W31722   2.147  18.149  14.476 -0.5039  0.0050 -0.0331
15589W        W31723  16.804   1.461  15.107 -0.1062 -0.0474 -0.0053
15590W        W31724   0.570   7.668  13.323  0.0606  0.0635  0.0313
15591W        W31725   2.993  16.452   2.071  0.1734  0.0157  0.2146
15592W        W31726   6.190   5.151   1.328  0.0029 -0.2939 -0.1374
15593W        W31727   7.374  14.255  13.318 -0.1378  0.1280  0.0879
15594W        W31728   3.968   9.932  14.449 -0.1059  0.1106  0.1713
15595W        W31729   0.667   9.366   3.928  0.0696  0.2672  0.1607
15596W        W31730   7.835  16.220  14.238 -0.0534  0.0483 -0.2072
15597W        W31731   0.605   4.126   2.998 -0.0813 -0.3769 -0.0866
15598W        W31732  10.603  18.876   4.043  0.1471 -0.1578 -0.2162
15599W        W31733  12.941   6.100  12.874 -0.5918 -0.0425  0.1103
15600W        W31734  14.307   8.241   2.072  0.0720 -0.2593  0.0896
15601W        W31735   9.741  12.456   0.076 -0.1737 -0.1028 -0.2215
15602W        W31736  18.844   8.978  13.869  0.1407  0.1213  0.0394
15603W        W31737  15.525  15.007  13.095 -0.0666 -0.2662  0.2947
15604W        W31738  13.259   8.114  15.038 -0.0649  0.0103 -0.0200
15605W        W31739   8.818  12.162   0.849  0.0481  0.1413  0.1137
15606W        W31740   5.541   6.013  14.642  0.1516 -0.0409  0.0991
15607W        W31741   9.430   3.352   0.670 -0.2119  0.1737  0.1191
15608W        W31742   3.320   5.954  12.472 -0.4106  0.0067 -0.0353
15609W        W31743   3.293   8.253  11.979  0.2098 -0.1354  0.2823
15610W        W31744   1.272   9.030   2.747  0.3400  0.0796 -0.1605
15611W        W31745  13.843  15.129   1.446  0.3104  0.0086  0.2343
15612W        W31746  17.590   9.187   1.669  0.3632 -0.4266  0.1466
15613W        W31747   1.117   9.249  12.137 -0.2132  0.3085 -0.2727
15614W        W31748   8.133   2.292  13.585  0.1958 -0.0004  0.3434
15615W        W31749  17.188  15.849   1.944  0.0369 -0.1337 -0.0894
15616W        W31750  15.082   3.563  10.520 -0.2289 -0.1449  0.2483
15617W        W31751   5.166  14.956  12.517  0.0672  0.0054  0.0378
15618W        W31752  16.031   5.310  14.402 -0.0046 -0.0146  0.5343
15619W        W31753  12.613   9.624   0.096 -0.1254 -0.1379  0.4347
15620W        W31754   8.901   6.276   3.977  0.0210  0.0809  0.0056
15621W        W31755  16.249  16.860   2.703 -0.1633 -0.1743 -0.1804
15622W        W31756  17.998   4.114   1.537  0.3511  0.0866 -0.0061
15623W        W31757  15.813  18.331  11.815 -0.2941  0.4329 -0.3924
15624W        W31758   6.247   8.508   0.919 -0.2359  0.1822 -0.0347
15625W        W31759   4.683   1.391  14.612  0.0542 -0.1511  0.0891
15626W        W31760   7.023   7.295  11.790 -0.1226  0.0553 -0.1948
15627W        W31761   0.779  13.720   0.070  0.0227 -0.0633  0.1538
15628W        W31762  11.103   3.708  14.366  0.1151  0.1860  0.1135
15629W        W31763   5.200   1.299  13.725  0.2609  0.4437 -0.1442
15630W        W31764   1.202   1.132   3.147 -0.1277  0.3687  0.0343
15631W        W31765  12.055   4.782  12.107  0.0676 -0.5336  0.2736
15632W        W31766  10.252  14.828  13.057 -0.4839 -0.1140 -0.1812
15633W        W31767  15.034   6.869  14.564  0.1740 -0.1848 -0.0151
15634W        W31768  15.697  19.040   1.677 -0.4478 -0.0629  0.1900
15635W        W31769  15.260   6.529   2.288 -0.0033 -0.1298  0.0606
15636W        W31770   3.367   2.679  10.613 -0.0340 -0.2676 -0.0144
15637W        W31771   2.229  17.987   4.267  0.1530 -0.2694 -0.1284
15638W        W31772  12.166   0.678   0.467  0.0261  0.3528  0.1013
15639W        W31773   2.413  18.502  13.621  0.1346 -0.0355 -0.0690
15640W        W31774   7.741  10.355  14.729 -0.1169 -0.0073 -0.0185
15641W        W31775   4.935   9.784   4.940 -0.1272 -0.1196  0.1699
15642W        W31776   1.973   4.914  11.017  0.0050  0.3115 -0.0508
15643W        W31777   2.179   2.941  12.942 -0.0580 -0.0101 -0.1161
15644W        W31778   0.279  12.198   1.279 -0.2461  0.0524  0.3279
15645W        W31779   3.166   4.352  14.126 -0.0786  0.0897  0.0597
15646W        W31780   4.306   6.430   2.590  0.0127  0.0680 -0.1734
15647W        W31781   3.605   5.875   1.349  0.1840  0.0558  0.5542
15648W        W31782   4.631   3.709   0.078 -0.1052 -0.4408  0.1615
15649W        W31783  12.521   4.089   3.726  0.3181 -0.1176 -0.0632
15650W        W31784  11.834   9.641   2.844 -0.0644  0.1777  0.1191
15651W        W31785  16.112  17.176   1.714  0.1898 -0.1251 -0.2133
15652W        W31786   4.246   8.753  13.722  0.2179  0.2914 -0.0706
15653W        W31787   0.420   2.421   3.578 -0.0754 -0.0257 -0.1453
15654W        W31788  11.520  15.188   2.333 -0.0896  0.0668  0.1323
15655W        W31789   9.504   3.133  11.271  0.1545  0.2271 -0.0231
15656W        W31790  10.819   3.917   4.901  0.1600  0.2873 -0.1950
15657W        W31791   1.797  16.625  12.674  0.0704 -0.3004 -0.0487
15658W        W31792  13.935   1.933  12.424  0.0597  0.1350  0.1123
15659W        W31793  16.546  12.003   5.112  0.0074  0.1535  0.2083
15660W        W31794  15.399  14.463   2.276  0.1120  0.0050 -0.4503
15661W        W31795   5.208  15.591   2.042 -0.0992  0.1587  0.0004
15662W        W31796   2.971  15.358   3.916  0.2175  0.2661  0.1565
15663W        W31797   0.536  17.878  10.937  0.1464  0.4379 -0.1430
15664W        W31798   2.117  17.074   3.769 -0.1748 -0.1298 -0.0653
15665W        W31799  10.888  12.858  11.983 -0.0596 -0.3155  0.1606
15666W        W31800  16.020   3.928   1.642  0.2050  0.0485 -0.0092
15667W        W31801   9.612  12.497   4.209 -0.2932  0.0563 -0.1245
15668W        W31802   8.413   8.961   1.114  0.0207  0.0207  0.0634
15669W        W31803  18.507   4.501   5.828 -0.2671  0.2016 -0.0570
15670W        W31804   6.965   6.131   3.909  0.3281 -0.0047 -0.0445
15671W        W31805   7.096   2.919   2.941  0.3099  0.1319 -0.1318
15672W        W31806  18.782  13.286   3.485  0.1573  0.3408 -0.3605
15673W        W31807   3.867   3.360  10.213  0.4334  0.0249 -0.2684
15674W        W31808  14.871   3.647   4.169  0.0581  0.3304  0.0250
15675W        W31809   6.615  17.197  12.416 -0.1033 -0.3010  0.1580
15676W        W31810  10.756   8.263  10.518 -0.3690  0.2192 -0.1806
15677W        W31811   8.328  14.872  14.368  0.0858 -0.2777 -0.2048
15678W        W31812  18.422  13.172   1.133  0.0119  0.2851 -0.3160
15679W        W31813   9.537   8.542  14.826 -0.3767  0.1994 -0.5178
15680W        W31814   4.158  13.721   3.127  0.0296  0.0851 -0.3476
15681W        W31815  10.679  11.337   4.372  0.0697 -0.1301 -0.0209
15682W        W31816   1.926   3.260   4.814 -0.0134 -0.1368 -0.3008
15683W        W31817  15.517   0.606   5.045 -0.0276 -0.1095  0.0757
15684W        W31818  10.398   0.555  13.164 -0.0994 -0.0788 -0.0089
15685W        W31819   8.777   8.236   0.668 -0.0417  0.1145 -0.0840
15686W        W31820   4.364  10.758   2.538 -0.1578  0.1997  0.1503
15687W        W31821  16.908   5.131   2.513 -0.1921  0.3077  0.3262
15688W        W31822   2.348   9.573  10.371  0.1224  0.1162  0.1821
15689W        W31823   8.605  17.192  13.392 -0.1612 -0.2032  0.0377
15690W        W31824  18.374   9.101   9.255  0.2581 -0.3820  0.1553
15691W        W31825  17.445   3.399   0.390 -0.1541  0.1381  0.2543
15692W        W31826   9.559   1.692   4.408 -0.1660  0.0349 -0.0176
15693W        W31827  15.722  19.106  14.526 -0.2889  0.3103  0.1068
15694W        W31828   5.592   7.997   2.655 -0.0293  0.0014  0.1331
15695W        W31829   2.258  14.367   1.801  0.1487  0.1491  0.0787
15696W        W31830   3.410   2.308  13.639 -0.0932  0.0691 -0.0764
15697W        W31831   2.809   3.324   1.523  0.2989 -0.3873  0.2713
15698W        W31832   2.004   8.137   0.703 -0.0070  0.0816  0.0624
15699W        W31833   8.439   6.892   0.948 -0.0485  0.0234 -0.2863
15700W        W31834   3.989  17.289   1.649  0.0380 -0.1885  0.0970
15701W        W31835   6.111  15.256   1.142 -0.1448  0.1759 -0.2442
15702W        W31836   2.039  12.129  12.270  0.2242 -0.2573 -0.0470
15703W        W31837   2.094  16.160   2.664  0.0398 -0.0129 -0.1907
15704W        W31838   3.071  16.482  12.814 -0.1925  0.1848 -0.0446
15705W        W31839  16.168   8.142  11.186 -0.0168 -0.1225 -0.2164
15706W        W31840   2.534  12.730   1.769 -0.1247  0.0580  0.0167
15707W        W31841   0.287   8.973   2.479 -0.2784  0.0963  0.1444
15708W        W31842   9.684   7.014  10.877 -0.2191  0.1618  0.3162
15709W        W31843  14.505   1.114  11.018 -0.2155 -0.1667 -0.3010
15710W        W31844   0.184  16.225  14.174 -0.4359 -0.1524 -0.4676
15711W        W31845  11.549   2.864   4.553 -0.0665  0.0782 -0.1051
15712W        W31846  10.105   7.479   1.373  0.0078 -0.1967  0.2058
15713W        W31847   1.746   5.327   2.531 -0.2139 -0.0311  0.1956
15714W        W31848   6.741   0.026  14.100  0.0872  0.0086 -0.1254
15715W        W31849  10.424   4.890   4.325 -0.2005 -0.2634 -0.2951
15716W        W31850   2.977  16.960  12.810 -0.0809 -0.3151 -0.1211
15717W        W31851  14.100   1.129  13.493 -0.2641 -0.0707  0.0074
15718W        W31852  11.527   5.785  11.052  0.2299  0.2490 -0.2127
15719W        W31853   2.498  15.327  12.253  0.0129  0.0563  0.0719
15720W        W31854  16.690  11.862  10.317 -0.1955  0.1148 -0.2105
15721W        W31855  10.403   7.949   2.504  0.0822 -0.1824  0.1232
15722W        W31856   5.258  14.401   0.780  0.0498  0.2205 -0.0277
15723W        W31857   4.039   2.472   9.631 -0.2355  0.0988 -0.0036
15724W        W31858  18.636  13.138  15.010  0.0962  0.2656  0.0021
15725W        W31859   4.790   1.426   5.487 -0.0337 -0.1582  0.0374
15726W        W31860   2.244   6.360  12.040  0.1697 -0.0767  0.2107
15727W        W31861   9.079   1.885   2.709 -0.0418 -0.0964 -0.1795
15728W        W31862   9.294  11.871  14.008  0.0453 -0.2265 -0.0537
15729W        W31863   2.881   3.684   3.349  0.0448  0.0074 -0.0022
15730W        W31864   6.599  11.668  10.870  0.3286 -0.0300  0.1278
15731W        W31865  16.183   4.400  13.113 -0.0432  0.1339 -0.1241
15732W        W31866  13.112  18.125  14.667  0.1910  0.1005  0.1022
15733W        W31867   1.255   8.493   3.524 -0.0836  0.0000  0.1403
15734W        W31868   3.612  15.978  13.926  0.2214  0.0073 -0.1650
15735W        W31869  14.721  17.773  11.527 -0.2312 -0.2429  0.4170
15736W        W31870   5.763   6.185   4.827  0.0141  0.1210  0.0647
15737W        W31871   0.404   1.993   2.878 -0.2948  0.3780 -0.4300
15738W        W31872   4.897  12.930  15.179 -0.1656 -0.0405  0.1826
15739W        W31873  18.802   6.842   4.929 -0.1673 -0.1131 -0.3032
15740W        W31874   3.834  16.813   2.640 -0.2517  0.0597 -0.2710
15741W        W31875  10.820  14.763   4.223  0.0216 -0.3573  0.0720
15742W        W31876   3.443   7.832  11.741 -0.0451 -0.5114 -0.3047
15743W        W31877   6.178   4.007  13.541 -0.1380 -0.2368  0.1813
15744W        W31878   0.113   2.077   1.149 -0.0326 -0.0820  0.1608
15745W        W31879  15.134  13.973   2.354 -0.0764  0.0046 -0.0251
15746W        W31880   3.520   7.331   3.937  0.2883  0.1427  0.0917
15747W        W31881   6.043   7.141   3.859  0.0904  0.0296  0.0172
15748W        W31882   0.787  15.279   1.879 -0.4807 -0.0982 -0.2946
15749W        W31883  16.070  11.512  15.162 -0.0579  0.0095  0.0158
15750W        W31884  17.949   9.507   3.537 -0.0391  0.0139  0.0639
15751W        W31885   2.948   9.696   2.911  0.1210 -0.0363 -0.0946
15752W        W31886   5.868  14.545  14.445  0.0203 -0.0019 -0.0944
15753W        W31887  18.002  12.125  11.302 -0.2976  0.0170  0.0472
15754W        W31888  15.898   5.652  11.017 -0.2851 -0.0023  0.2178
15755W        W31889   1.063   5.495  12.941 -0.1010  0.3052  0.2254
15756W        W31890   3.316  15.779   3.754  0.0383  0.1084 -0.0256
15757W        W31891  11.324  17.446  13.837 -0.0376  0.0141 -0.0771
15758W        W31892   1.989  11.059   2.401  0.1786 -0.0596  0.2871
15759W        W31893   1.371  18.625  15.040 -0.1158 -0.2494 -0.1703
15760W        W31894  15.681   0.936   4.678  0.5329 -0.0099  0.1240
15761W        W31895  12.299   9.938   9.547 -0.2923 -0.1691  0.2354
15762W        W31896  10.134   8.879  13.111 -0.1905 -0.0430  0.2111
15763W        W31897   6.201  17.774  13.060 -0.1136  0.2861  0.0106
15764W        W31898  12.423   6.088   2.479  0.1873 -0.0123 -0.1265
15765W        W31899   2.374   7.846   2.236 -0.0362  0.0086  0.1045
15766W        W31900   8.481   4.448   1.597  0.0197  0.1679  0.3002
15767W        W31901   0.277  12.576  10.838 -0.1273  0.1578  0.0236
15768W        W31902   1.489  18.999   1.641  0.0565  0.4423  0.1912
15769W        W31903   8.913  18.249   0.799 -0.4088  0.0343  0.0514
15770W        W31904  18.157  17.091  10.482 -0.0376 -0.3851 -0.1951
15771W        W31905   9.247  18.907  12.750 -0.1814 -0.2429  0.2605
15772W        W31906   5.341   7.860   4.052  0.0778  0.1751  0.0064
15773W        W31907  14.336   1.568   6.071  0.0072  0.0470  0.1520
15774W        W31908   6.126   3.803  13.046  0.2126 -0.0433 -0.4369
15775W        W31909  10.249  15.063  11.120  0.2377 -0.1875  0.0619
15776W        W31910   1.991   1.165   2.390  0.0708  0.2981  0.4085
15777W        W31911   5.371  13.931  13.990  0.2317  0.0208  0.0947
15778W        W31912  12.696   6.554  13.999 -0.3914  0.0044 -0.0699
15779W        W31913   3.465   1.437   1.970 -0.2910  0.0049 -0.0874
15780W        W31914  11.296   8.820   4.709 -0.1155  0.2331 -0.0265
15781W        W31915  13.265  11.783   1.323  0.1653  0.0634  0.0429
15782W        W31916   8.077   5.967  11.006 -0.0665 -0.1503 -0.1034
15783W        W31917  11.382   0.764  13.660  0.3998  0.2035 -0.1441
15784W        W31918   4.976  18.288   4.369  0.1564 -0.3218 -0.2863
15785W        W31919  17.881   7.027   1.378 -0.0356 -0.0245  0.2881
15786W        W31920  12.304   8.360   5.619  0.3330  0.0961 -0.0853
15787W        W31921  11.019  12.331   3.624  0.0717 -0.0206  0.0626
15788W        W31922   3.909   3.549  10.790  0.0746  0.1780  0.0408
15789W        W31923  11.116  14.322  13.104 -0.1065  0.0610  0.1724
15790W        W31924   6.185   4.685  12.706 -0.1572  0.2151  0.2476
15791W        W31925   2.261   8.598  11.159  0.4965  0.1589 -0.1137
15792W        W31926  17.123  13.455  10.984  0.1425 -0.0085  0.3329
15793W        W31927  16.409   5.761  10.638  0.0850 -0.1444 -0.0863
15794W        W31928   3.651   0.045   3.064  0.0658 -0.1704 -0.1420
15795W        W31929   4.181  13.060  12.643  0.1550  0.1118  0.0894
15796W        W31930  12.460   2.017   0.772  0.3868 -0.0447 -0.1926
15797W        W31931   0.074  15.701   0.523  0.2262  0.1288 -0.3832
15798W        W31932   4.619  15.886  12.845 -0.4609  0.0832  0.1413
15799W        W31933   2.647   5.373  10.527 -0.0539 -0.2271 -0.0874
15800W        W31934   8.129  11.399   3.283  0.0982  0.1700  0.1306
15801W        W31935   7.731  13.719  10.730  0.1040 -0.0653 -0.1628
15802W        W31936  16.367   0.614  14.887 -0.3891  0.1528  0.0788
15803W        W31937  13.636  11.569  12.314 -0.0558  0.0554  0.0037
15804W        W31938  10.436  12.164  13.197 -0.0036  0.0188  0.1721
15805W        W31939   0.773  12.378  10.801 -0.1229 -0.1761  0.0911
15806W        W31940  13.461   5.572   2.977  0.2848 -0.1402 -0.0041
15807W        W31941  16.187   9.203  11.063  0.0818 -0.1279 -0.0170
15808W        W31942   2.038   8.411   3.754  0.3055 -0.1425 -0.3192
15809W        W31943  13.085  18.624  10.672  0.2352  0.2991 -0.1419
15810W        W31944   5.726  12.435  12.174  0.1182 -0.2802  0.0047
15811W        W31945  18.693  10.242   2.925  0.0395  0.2379  0.4325
15812W        W31946  13.260  12.580  13.562 -0.1778 -0.1005  0.0015
15813W        W31947  18.794   8.496  11.086  0.2763 -0.3032  0.2198
15814W        W31948   6.642  10.935   0.069 -0.0379  0.1182  0.0052
15815W        W31949   4.565  10.740   3.868 -0.1866  0.2344 -0.1469
15816W        W31950   9.375   4.500  10.272 -0.1587 -0.1428 -0.2478
15817W        W31951  13.978  16.347   4.491  0.3153  0.0548  0.2729
15818W        W31952   7.121  11.935   3.464 -0.0844  0.1684  0.1404
15819W        W31953   3.490   3.817   5.580  0.0646  0.3271 -0.0646
15820W        W31954   4.201   5.391   3.354  0.2029  0.0691  0.0174
15821W        W31955   7.868   9.660  11.362  0.0895 -0.0363  0.2337
15822W        W31956   6.925   3.647   2.425  0.2723 -0.0067  0.3377
15823W        W31957   6.434  11.116  13.256  0.0013 -0.1498  0.1130
15824W        W31958   9.512   7.271  15.121 -0.0814 -0.2680 -0.0202
15825W        W31959  11.108  10.802   4.193 -0.3064  0.2182  0.2313
15826W        W31960   6.938   7.892  14.850  0.2908 -0.0441 -0.0367
15827W        W31961   7.561  10.596  12.344 -0.1447 -0.0709  0.3178
15828W        W31962   0.851  17.628  11.368  0.0602  0.2443 -0.2076
15829W        W31963   6.805   9.681   1.409 -0.0156 -0.3948  0.1643
15830W        W31964   9.967   0.930  13.813  0.2164  0.1513 -0.2723
15831W        W31965   3.589  13.070  10.532  0.1003  0.0389 -0.2205
15832W        W31966  10.492  17.485  13.270 -0.1532 -0.0813  0.0670
15833W        W31967  18.117   3.191   3.007 -0.3183  0.0411 -0.0771
15834W        W31968   3.024  18.113   4.198  0.0662  0.0279  0.0145
15835W        W31969   9.685   5.760   0.175  0.4016 -0.1094 -0.2467
15836W        W31970  10.613   0.945   2.909 -0.0658  0.0798 -0.1489
15837W        W31971  17.408  15.652   4.827 -0.0663  0.2298  0.1186
15838W        W31972  14.697  18.334  12.958 -0.1035  0.2482  0.1706
15839W        W31973   9.924  10.039  14.665  0.0176 -0.1422 -0.0421
15840W        W31974   0.427   8.176  13.223 -0.3704  0.1031 -0.0511
15841W        W31975  18.655   9.934  10.591  0.0318  0.1863 -0.1933
15842W        W31976   0.386   8.040  11.309 -0.2405  0.0298  0.1435
15843W        W31977  15.660   3.774   1.319 -0.1413 -0.0538 -0.0990
15844W        W31978   7.208  13.312   1.484  0.0823  0.3395 -0.1985
15845W        W31979  11.088  11.787   3.586 -0.3457 -0.0656  0.0689
15846W        W31980  16.052   6.366   0.368  0.3540  0.1100  0.0388
15847W        W31981  18.208   5.410  11.356  0.0783 -0.1654 -0.2221
15848W        W31982   4.624   2.873  14.836 -0.0324 -0.2770 -0.0497
15849W        W31983   4.577   3.241   1.694  0.2205  0.2223 -0.0405
15850W        W31984   2.920  10.859  10.707  0.3279 -0.5062  0.0429
15851W        W31985  13.767  11.265   3.928 -0.0024 -0.1789  0.2371
15852W        W31986  11.450  11.975  14.118  0.1634  0.1834 -0.0644
15853W        W31987   0.604   0.891   2.536  0.3107  0.2041 -0.2510
15854W        W31988  11.615  12.070   0.330  0.1143  0.0339 -0.3834
15855W        W31989   4.844  14.572  10.800  0.1208  0.2137  0.0335
15856W        W31990  17.482  15.921  13.966 -0.0869  0.0685 -0.1877
15857W        W31991  10.514   4.264  11.694 -0.2407  0.1776  0.0323
15858W        W31992   6.760  13.203   4.229 -0.0298 -0.2322 -0.2007
15859W        W31993  11.717   3.588   0.481 -0.1567  0.0656 -0.2563
15860W        W31994   2.337   4.380  15.165  0.0815  0.0019  0.1465
15861W        W31995  10.621   9.777   1.435 -0.1584  0.0720  0.3175
15862W        W31996   7.860   5.631   4.529 -0.0625  0.3617  0.0118
15863W        W31997  13.990  14.382  13.733  0.0840  0.0357  0.0093
15864W        W31998   8.774   2.326   4.184 -0.0781  0.4076 -0.5023
15865W        W31999   8.035  14.113  13.140  0.2363  0.2238 -0.0434
15866W        W32000  15.735   1.407  14.902 -0.3096  0.1444 -0.5107
15867W        W32001  13.893   3.602  13.101  0.1998  0.0767 -0.2928
15868W        W32002  18.123  10.893  14.238 -0.0016  0.1183 -0.2402
15869W        W32003  13.206   2.391   3.182 -0.0730  0.0855 -0.2054
15870W        W32004   1.542   8.331   0.809 -0.0128 -0.0217 -0.0795
15871W        W32005  11.358   4.117  14.676  0.3674 -0.2992 -0.0882
15872W        W32006   8.908   5.919   4.785 -0.0136 -0.1841  0.2792
15873W        W32007   8.097   2.494   1.245  0.1684 -0.2415 -0.0270
15874W        W32008   2.580  14.671  14.359  0.2471  0.3917  0.1460
15875W        W32009  14.105   5.727  11.125  0.2022 -0.3249 -0.1795
15876W        W32010   0.385   5.559  12.536 -0.1005  0.0198  0.1886
15877W        W32011   1.887  18.626   1.735 -0.1016  0.4343 -0.0533
15878W        W32012   8.379  12.955  13.556  0.2040 -0.1999 -0.2324
15879W        W32013  13.030  19.089   1.882 -0.0231  0.0272  0.1545
15880W        W32014   7.294  16.964   3.074 -0.1491  0.1792  0.2276
15881W        W32015   8.141  10.282  10.711 -0.2275 -0.0915  0.4716
15882W        W32016   1.448   5.319  12.487  0.1360  0.2610  0.3507
15883W        W32017  15.738   8.636   0.978  0.0466  0.2464 -0.2722
15884W        W32018   5.397   9.311   1.445  0.1437  0.0747  0.0117
15885W        W32019   4.103   9.704  14.929  0.0913 -0.1056 -0.5274
15886W        W32020  14.968   2.879   4.342 -0.0890 -0.2111  0.1242
15887W        W32021   3.730  15.749   5.191 -0.0494 -0.0458 -0.1294
15888W        W32022   4.785  17.972   1.881 -0.1324 -0.4341 -0.0248
15889W        W32023  12.991   0.971  11.218 -0.1923 -0.2223 -0.4970
15890W        W32024  15.742  11.311   3.458 -0.1116 -0.2373 -0.0790
15891W        W32025  18.146   2.699  13.119 -0.0983  0.0161  0.3349
15892W        W32026  12.424  18.106  12.807  0.1482  0.0988  0.1269
15893W        W32027   3.686   3.178   0.810 -0.4902 -0.0449 -0.1696
15894W        W32028  18.101  10.382   9.814 -0.1173  0.5253 -0.0823
15895W        W32029   7.557   3.143   4.625 -0.1333  0.0665  0.0610
15896W        W32030   9.783  17.767   0.957 -0.1589  0.0567  0.4451
15897W        W32031  15.161  12.250   5.152 -0.1975 -0.3853 -0.3604
15898W        W32032  15.060   0.861   3.004 -0.0080  0.2650 -0.3427
15899W        W32033   5.564   7.966  13.297 -0.0201 -0.1739 -0.1349
15900W        W32034   3.517   5.989   4.714  0.0547 -0.3720 -0.0805
15901W        W32035   2.121  15.747  11.588 -0.3976  0.1411  0.0893
15902W        W32036  13.565   2.288   3.926 -0.0436  0.2059 -0.2016
15903W        W32037   8.513  16.672   0.395  0.1001  0.0322  0.2377
15904W        W32038   0.682  15.538   3.749 -0.1034 -0.2191  0.0231
15905W        W32039   8.016  17.582   1.608  0.0122  0.2038  0.1181
15906W        W32040  18.400  16.322  10.821  0.2262 -0.0136  0.1032
15907W        W32041   1.502   4.021  12.786 -0.1240  0.0715  0.1152
15908W        W32042  14.690  16.316   2.733 -0.0924  0.0350  0.0618
15909W        W32043   3.106  16.054   4.181  0.1697 -0.0257 -0.1187
15910W        W32044  13.263  16.018  14.911  0.4128  0.1954 -0.0905
15911W        W32045   4.560   7.165   5.638 -0.1682 -0.0136 -0.1830
15912W        W32046   0.184   0.116  11.951  0.4063  0.0836  0.0813
15913W        W32047   0.211  11.191   4.322 -0.4404  0.2233  0.0317
15914W        W32048  10.978  17.281   0.925  0.1781  0.1367 -0.3969
15915W        W32049  13.276  15.251   2.735  0.0887 -0.0641  0.0438
15916W        W32050   3.793   2.066   1.074  0.1343 -0.3802 -0.1008
15917W        W32051   5.627   7.699   1.886 -0.1359 -0.1948 -0.2305
15918W        W32052   5.729  15.778  13.913 -0.3891 -0.2022 -0.2116
15919W        W32053  17.841  14.351   2.338 -0.2182 -0.1144  0.0500
15920W        W32054  18.663  18.253  12.299  0.2606  0.1944 -0.1029
15921W        W32055   1.136  14.338  12.394  0.3124  0.2884 -0.1476
15922W        W32056   5.826  18.792  14.217  0.1243 -0.0286 -0.1133
15923W        W32057   5.137   4.068  12.350 -0.1504  0.0930 -0.2491
15924W        W32058  10.314  18.446   3.536  0.1678  0.2328 -0.5279
15925W        W32059  12.699  11.734  13.747 -0.0852  0.3028  0.3865
15926W        W32060  16.958   7.219  14.502 -0.0720  0.0298 -0.0001
15927W        W32061   5.858  11.695  14.916 -0.1058  0.0257  0.2390
15928W        W32062  11.505  14.675   1.425  0.1082  0.0452 -0.1938
15929W        W32063  12.865  17.707  14.477 -0.2652  0.0350  0.2282
15930W        W32064  19.065   6.929   0.770  0.0618  0.1442 -0.0792
15931W        W32065  18.220   2.015   3.654 -0.0707  0.3629 -0.0709
15932W        W32066   0.613   5.916   4.163  0.0145 -0.0168 -0.0071
15933W        W32067  12.101   9.425   2.487 -0.0067  0.1613 -0.3680
15934W        W32068  17.545  10.232  13.524 -0.0282 -0.2547  0.0650
15935W        W32069   1.970   1.870   1.705 -0.1264  0.2064  0.1468
15936W        W32070  13.470   4.623   3.483 -0.1627 -0.0079  0.0426
15937W        W32071  13.046   8.479   2.409 -0.1501 -0.2266 -0.1313
15938W        W32072   4.950  13.325  12.082 -0.2792  0.0822  0.2537
15939W        W32073   2.282  17.142  10.838 -0.0391  0.0184  0.1682
15940W        W32074   1.095   2.323  11.273  0.1763 -0.1174 -0.1592
15941W        W32075  11.087   0.412   0.626  0.1497 -0.1233  0.1072
15942W        W32076  17.906   9.034  14.140 -0.1777 -0.1241  0.0060
15943W        W32077  14.832  11.043  10.865 -0.1890 -0.0965 -0.1490
15944W        W32078  10.979   6.840  10.128  0.0320 -0.0180  0.2878
15945W        W32079   0.060  13.664  12.415 -0.0691 -0.0366 -0.0698
15946W        W32080  13.009  17.800  13.864 -0.0140  0.0081 -0.1242
15947W        W32081  14.150  12.304   2.363 -0.0406 -0.1642 -0.1666
15948W        W32082   2.755   5.855   4.548  0.1942  0.0548  0.0956
15949W        W32083   5.435   0.160   1.616 -0.0993  0.0573  0.0609
15950W        W32084  18.418   8.949  15.201  0.0052  0.1814 -0.0961
15951W        W32085  17.122   9.165   3.920 -0.0968 -0.4427  0.1591
15952W        W32086  18.005  14.501   2.948 -0.1662  0.0334  0.0756
15953W        W32087   3.130  18.231   0.419  0.1789  0.0148  0.3047
15954W        W32088  10.709   3.809  11.863 -0.1343  0.1609  0.2212
15955W        W32089   3.879   3.207  13.376  0.1256 -0.0077 -0.0355
15956W        W32090   4.973   2.994   3.471 -0.2342 -0.0878 -0.0064
15957W        W32091  18.854  12.730  11.492 -0.0370  0.0254  0.2453
15958W        W32092   6.190   9.999   2.007 -0.0229 -0.2693 -0.0498
15959W        W32093   6.527  10.509   0.240  0.0662 -0.4262  0.1643
15960W        W32094  15.847  12.051  14.418  0.0714  0.4205  0.2369
15961W        W32095  18.298  18.084   1.256  0.0569  0.1203  0.0783
15962W        W32096  12.833   9.540   1.603  0.2277  0.0394  0.1316
15963W        W32097   9.126   5.831   2.672 -0.1807  0.4114  0.0726
15964W        W32098  19.132  11.074  10.504 -0.1434  0.1409 -0.0199
15965W        W32099   9.045  14.855   0.110  0.1010  0.3117 -0.2581
15966W        W32100  16.720  16.369  13.924  0.2261 -0.0794  0.2527
15967W        W32101   0.073   0.097   1.309 -0.1144 -0.2263 -0.1228
15968W        W32102   3.320  18.921   3.387  0.2733  0.1705 -0.1283
15969W        W32103   8.727   9.894   0.341 -0.2757 -0.0728 -0.0084
15970W        W32104  17.326  18.097  11.299  0.2185 -0.1877  0.1992
15971W        W32105   6.236   7.412   3.514 -0.1016  0.1082  0.2645
15972W        W32106   0.372  17.128  12.136 -0.2204 -0.5635  0.1339
15973W        W32107  10.266   3.677  11.042 -0.1660 -0.1662  0.1930
15974W        W32108   7.732  17.636   3.246  0.0412 -0.2081  0.0605
15975W        W32109   1.953   6.874   9.333  0.3189 -0.3052  0.2757
15976W        W32110   4.586  13.257   0.845 -0.3182  0.1627 -0.1090
15977W        W32111  12.012   3.623  14.272  0.0417 -0.2918 -0.1950
15978W        W32112   3.154  15.103   4.983 -0.2174  0.6083  0.2314
15979W        W32113   7.816   8.688  13.912  0.1743 -0.1978 -0.0069
15980W        W32114   3.013  10.474  11.612 -0.1012  0.0215 -0.1786
15981W        W32115   1.203   8.503  11.549  0.1363 -0.1087 -0.2303
15982W        W32116  10.637  13.128  13.670  0.1549  0.1858 -0.3116
15983W        W32117   9.711  11.320  14.797  0.0129 -0.3929 -0.0616
15984W        W32118  18.226  18.608   3.346  0.2055 -0.0764  0.0999
15985W        W32119   3.733  17.799  10.640  0.0496  0.4175  0.1703
15986W        W32120  15.476   1.044   4.183  0.1208  0.1562 -0.1287
15987W        W32121  15.307  11.664   4.022 -0.2429 -0.4096 -0.0865
15988W        W32122   5.096   6.650   0.164  0.3622 -0.2152 -0.2998
15989W        W32123  16.442   4.675   0.352  0.0728 -0.1299 -0.0833
15990W        W32124  14.804  15.694   2.226 -0.1198 -0.0795 -0.4711
15991W        W32125   5.688   1.398  14.644 -0.0973 -0.1482 -0.1908
15992W        W32126   7.231   3.619  14.038 -0.1304 -0.1275  0.0137
15993W        W32127  10.477   9.751   5.365 -0.2239  0.1366  0.0983
15994W        W32128  14.814  19.028   0.714 -0.2548  0.2509 -0.1798
15995W        W32129  16.275   3.789   2.321  0.1558  0.2073 -0.3287
15996W        W32130   8.405  10.436   5.555  0.2290  0.2921  0.0056
15997W        W32131  13.290   4.605   2.553  0.1567  0.1951 -0.1310
15998W        W32132   0.866  10.157  12.895  0.2939 -0.0147  0.0595
15999W        W32133  14.655  15.791  13.676  0.0566 -0.0469 -0.0706
16000W        W32134   7.624   4.096   3.085 -0.2863  0.1806 -0.1386
16001W        W32135   9.976   9.312  12.820  0.4530 -0.0362  0.1682
16002W        W32136  18.222   1.962  14.160  0.1567 -0.0683  0.0438
16003W        W32137   5.203  14.504   3.033  0.0861 -0.0859 -0.0037
16004W        W32138  13.092   6.053  11.367 -0.4223 -0.0451  0.0896
16005W        W32139   2.702  17.315  10.500  0.1030 -0.0496  0.0873
16006W        W32140   0.471  14.168  11.842  0.2450 -0.3336 -0.0175
16007W        W32141   8.113   8.860   4.449 -0.0164 -0.0175 -0.1976
16008W        W32142   8.762  10.495   2.154 -0.2172 -0.0773  0.0593
16009W        W32143   5.975   0.213  11.948 -0.2649  0.0139  0.0884
16010W        W32144  15.636   5.281   3.825  0.1999  0.3992  0.0815
16011W        W32145  14.436   1.753   1.758  0.0357  0.0813  0.3567
16012W        W32146   8.135  14.245  13.856 -0.2783  0.0214 -0.3599
16013W        W32147  18.233  14.820   1.178 -0.0206  0.1545 -0.1899
16014W        W32148   7.472  11.121  10.649  0.0952  0.4134  0.2554
16015W        W32149  16.744   2.468   4.232  0.0848  0.1082 -0.2605
16016W        W32150  15.498  18.299   0.096 -0.2969 -0.3534  0.1579
16017W        W32151  13.575  15.858   3.207  0.3373  0.2897 -0.2835
16018W        W32152  18.360   0.243  13.181 -0.0407  0.2186 -0.0624
16019W        W32153  14.570  14.748   4.499  0.1166 -0.2242  0.1930
16020W        W32154  10.455   4.740   0.264 -0.1118 -0.2545  0.0916
16021W        W32155   9.913   2.038   1.261 -0.2141  0.1459 -0.3782
16022W        W32156   3.497   0.649   2.398 -0.0168  0.2625  0.2362
16023W        W32157   6.774   1.671  13.513 -0.2198 -0.0736  0.2973
16024W        W32158   3.375  12.648  10.339  0.0481  0.1152  0.2383
16025W        W32159   6.541   8.790  13.884 -0.0503  0.4085  0.1976
16026W        W32160  15.657  13.217   0.549  0.3044  0.0991  0.1494
16027W        W32161  17.837   6.730  12.564 -0.0440 -0.1240 -0.0081
16028W        W32162  19.004   5.228   2.311  0.2033  0.3000  0.0041
16029W        W32163  18.887  18.273  10.845 -0.0278  0.0743 -0.1101
16030W        W32164  10.251  16.892   4.923  0.3435  0.1935  0.0251
16031W        W32165   7.289   3.669   0.828  0.0103  0.1522  0.3724
16032W        W32166  17.675  15.996  10.332  0.4077 -0.0957  0.3215
16033W        W32167  13.720   4.026   4.263  0.1742  0.2214 -0.1029
16034W        W32168  18.101  15.900  11.528  0.0002 -0.3304 -0.3564
16035W        W32169   6.449   7.333   9.641 -0.1961 -0.0510  0.0976
16036W        W32170   9.172   5.804  14.975 -0.0852  0.2176  0.1691
16037W        W32171   1.209   9.655   1.426 -0.0369 -0.0097 -0.1179
16038W        W32172   8.747   4.492  13.911  0.1325 -0.3682 -0.0568
16039W        W32173   0.269   4.412   5.478  0.3447  0.3934  0.0109
16040W        W32174   9.674   3.693   3.357  0.3750 -0.2832 -0.0558
16041W        W32175  16.549   9.935  12.453 -0.2366 -0.0443  0.0483
16042W        W32176  18.423  10.473   3.369 -0.0002  0.0018 -0.0896
16043W        W32177   3.120   3.368  15.084 -0.0189  0.1617  0.3466
16044W        W32178   4.068   5.549  13.397  0.3187 -0.0516  0.0510
16045W        W32179   1.618   0.006   1.092 -0.1976  0.2653  0.1450
16046W        W32180   2.744   8.426  11.687  0.2028 -0.0632 -0.0759
16047W        W32181  17.884   6.546  10.071  0.0414  0.1391 -0.1547
16048W        W32182   9.597   0.855   4.962 -0.1506  0.1251 -0.0431
16049W        W32183  11.510   5.304   5.136  0.0829 -0.1442 -0.1397
16050W        W32184  12.831   9.705  11.522 -0.1748  0.0032 -0.1354
16051W        W32185   0.091  14.696   3.687 -0.1620 -0.3652  0.0373
16052W        W32186   0.790   3.149   0.906 -0.3506 -0.0218 -0.1543
16053W        W32187   2.583   6.807   3.165 -0.3023 -0.1935  0.0102
16054W        W32188  12.324  11.812  11.765  0.0033  0.0324  0.4191
16055W        W32189   4.806  17.175   3.544 -0.1673  0.0642 -0.3761
16056W        W32190   6.269  11.787   3.864  0.0228  0.0588  0.1415
16057W        W32191   8.273   6.756   0.123 -0.0808 -0.2055 -0.1200
16058W        W32192   2.653   4.065  14.990 -0.0767  0.0972  0.1019
16059W        W32193  17.064  18.200  14.489  0.0991 -0.0708  0.0275
16060W        W32194   2.232  18.400  10.446 -0.0747 -0.0654  0.2338
16061W        W32195   3.511   5.097   4.890  0.0158 -0.0667  0.0411
16062W        W32196  16.263  10.886  12.479 -0.1533 -0.3949  0.0664
16063W        W32197  10.654   4.433   3.406 -0.1217  0.2098 -0.2256
16064W        W32198   6.496  13.349  12.630  0.0904  0.0908  0.1481
16065W        W32199  12.196  13.834  11.830 -0.2605  0.0083 -0.0168
16066W        W32200   9.988  15.882   0.464 -0.0206  0.0524 -0.3337
16067W        W32201  18.041  19.047  11.553  0.0451 -0.2841 -0.0147
16068W        W32202   3.205  16.774  14.157  0.0525  0.0949  0.2091
16069W        W32203  15.309   1.297  14.811 -0.0108 -0.0577  0.2253
16070W        W32204  12.744  10.996  10.700 -0.0958  0.1927 -0.0304
16071W        W32205  10.553   4.193   0.278 -0.0675 -0.0855  0.1538
16072W        W32206  18.636   4.422  13.698 -0.0260 -0.1878 -0.0151
16073W        W32207  12.451   1.020   2.819 -0.1629  0.2356  0.1859
16074W        W32208  12.688  17.949  11.043 -0.0070 -0.1798  0.1384
16075W        W32209   4.718  10.083   1.840 -0.1171  0.2659 -0.1721
16076W        W32210  13.171  14.360  11.462 -0.3496  0.2033 -0.3192
16077W        W32211  16.340   4.536   2.184 -0.0444 -0.1357 -0.1113
16078W        W32212  14.944   7.804  14.368  0.0775 -0.3069 -0.0364
16079W        W32213   7.080  18.183  14.377  0.2001 -0.0258  0.0346
16080W        W32214  17.620   4.246   4.888  0.2010 -0.2974 -0.0768
16081W        W32215   4.458  17.675  12.491 -0.1858 -0.0169  0.0741
16082W        W32216  16.878   7.737   1.940 -0.3251 -0.1563  0.0766
16083W        W32217   6.279  12.300   0.375 -0.1035 -0.3602 -0.0010
16084W        W32218   6.762   6.348   9.794 -0.0020 -0.0561  0.1300
16085W        W32219   8.047   7.014  12.930 -0.2058 -0.1458  0.0928
16086W        W32220  16.131  13.051  12.989 -0.2939  0.1745  0.0765
16087W        W32221   0.687   6.858   2.833  0.0440  0.1631  0.0747
16088W        W32222   0.741   8.408   3.100 -0.2073 -0.1261  0.2432
16089W        W32223  16.217  16.172  12.958 -0.0089  0.0200 -0.2357
16090W        W32224  18.175   2.563   5.565  0.1418 -0.0681 -0.1699
16091W        W32225  12.165  13.385   4.306 -0.1197  0.1397  0.1901
16092W        W32226  13.419   5.582  13.801  0.1014 -0.0463  0.1417
16093W        W32227   2.925  14.930   5.396  0.0431  0.0363 -0.0249
16094W        W32228   2.820   1.159   4.052 -0.1285  0.2675 -0.1338
16095W        W32229   7.861  17.303   0.925  0.2058 -0.2055 -0.1326
16096W        W32230   0.862  16.039   3.042  0.0864 -0.3577 -0.1158
16097W        W32231  15.492   2.371   3.700  0.0128 -0.0406  0.1595
16098W        W32232  15.931  14.858  12.076  0.2478 -0.2174  0.0449
16099W        W32233  11.968  16.034  14.044  0.1996  0.2837  0.1939
16100W        W32234  17.099  14.558   1.206 -0.0557  0.2838  0.0349
16101W        W32235  12.860  11.315  10.351  0.1169 -0.2384 -0.1324
16102W        W32236   0.796   8.876   3.801  0.0036 -0.0146  0.0726
16103W        W32237  17.627  13.927  13.495 -0.0976 -0.1904  0.2315
16104W        W32238   7.016   9.582  13.896 -0.4754 -0.3756 -0.2522
16105W        W32239   6.682  17.124   5.125  0.3102 -0.0076  0.0966
16106W        W32240   8.740   5.658  14.962 -0.1915  0.5181 -0.0778
16107W        W32241   9.013  15.464   9.952 -0.3456 -0.1087 -0.3873
16108W        W32242  12.809  12.579  13.893  0.2435 -0.0679  0.0152
16109W        W32243  10.373  11.482   3.918 -0.0073 -0.1050  0.2275
16110W        W32244   9.191   6.887  11.199 -0.0826  0.0201 -0.0743
16111W        W32245  14.213  13.945   1.696  0.1326 -0.0028  0.1640
16112W        W32246  18.278   5.329  10.486 -0.0268  0.0218  0.0571
16113W        W32247   3.282   3.441   2.824  0.2353  0.1604  0.1562
16114W        W32248  18.464  14.796   4.486 -0.0181 -0.0647  0.3250
16115W        W32249  13.620   5.039  14.235  0.1193 -0.0702 -0.1879
16116W        W32250  11.686  13.570   4.358  0.0276  0.2127 -0.3739
16117W        W32251  14.820  14.339  10.990 -0.2266 -0.0287 -0.0300
16118W        W32252   7.967   3.640   1.556 -0.0599 -0.1014  0.2829
16119W        W32253  18.528  10.661   5.130 -0.1822 -0.2391  0.0386
16120W        W32254  18.770  16.533  12.914  0.0871  0.0791 -0.0884
16121W        W32255  19.056   6.337   4.764 -0.4227  0.1906 -0.1313
16122W        W32256   1.012  12.875   4.482 -0.2189  0.1099 -0.0189
16123W        W32257  15.676  12.331   2.328 -0.1755  0.1698 -0.0546
16124W        W32258  12.378  15.176  10.628  0.1242 -0.0475 -0.2698
16125W        W32259   0.938  14.221   2.678 -0.0012 -0.1807  0.5182
16126W        W32260  17.577  15.766  11.312 -0.0462  0.1080 -0.0308
16127W        W32261   9.396   4.852  15.095  0.0746  0.3402  0.0730
16128W        W32262   0.425   4.804  12.737 -0.2278 -0.3210 -0.2634
16129W        W32263   5.690   4.083   5.571 -0.1062  0.0450 -0.3410
16130W        W32264  14.605  15.579  12.645 -0.0089  0.1537  0.2361
16131W        W32265   5.230   7.524   4.425 -0.0493 -0.3342 -0.0556
16132W        W32266  17.446  17.845   0.728 -0.1960 -0.2108  0.0450
16133W        W32267  12.405  10.677  10.641  0.1796  0.0965  0.3098
16134W        W32268  15.390  18.792   4.082  0.4271 -0.1834 -0.2899
16135W        W32269   3.655   7.325   0.638 -0.0047 -0.0410 -0.1794
16136W        W32270   0.800  17.735  13.165 -0.1059 -0.0220 -0.2068
16137W        W32271  15.587  12.497  12.487 -0.0053  0.3548 -0.1514
16138W        W32272  15.296  15.382  11.096  0.3179  0.1510  0.1041
16139W        W32273   8.290   1.666   4.689 -0.1715 -0.2189 -0.1296
16140W        W32274  15.658   8.980   2.712  0.0134 -0.0369  0.2192
16141W        W32275   6.354  17.377   3.529  0.0505 -0.3105  0.0043
16142W        W32276  11.788   3.864   1.036  0.2001 -0.2898 -0.1082
16143W        W32277   0.867  12.804  13.022 -0.3286  0.2631 -0.3197
16144W        W32278  13.244  14.059   4.567 -0.3655  0.2555 -0.0309
16145W        W32279   1.142  15.787   2.580  0.2995 -0.4447  0.1577
16146W        W32280  18.479  11.218  14.671  0.3039  0.3065  0.2379
16147W        W32281  12.791  10.995   5.059  0.4196  0.1595 -0.3188
16148W        W32282   0.744   6.187  11.678 -0.0543 -0.1642  0.2058
16149W        W32283  13.496  13.077  11.093  0.0744 -0.2581  0.0295
16150W        W32284   4.985  18.565   3.803  0.1673 -0.0917  0.0010
16151W        W32285   4.776   2.070  13.815 -0.0809 -0.2183  0.0741
16152W        W32286  10.324  15.504  11.396  0.4218  0.1289 -0.1287
16153W        W32287   1.035   2.246  10.414  0.1123  0.0450 -0.0177
16154W        W32288  14.676   7.880  11.042  0.0391  0.0715  0.1502
16155W        W32289  15.821  12.005  12.772 -0.1291 -0.0032 -0.0455
16156W        W32290   9.175  14.217   4.779 -0.1655 -0.0146 -0.2184
16157W        W32291  11.568  12.326   1.453  0.2156 -0.0217  0.3040
16158W        W32292   8.478   9.486   1.269 -0.3088 -0.3976  0.1341
16159W        W32293  13.472   4.414   3.980 -0.0652  0.3827 -0.1586
16160W        W32294  18.845   0.043  14.156  0.0603  0.2521 -0.1204
16161W        W32295   7.531   4.785   4.440  0.3912 -0.1006  0.1463
16162W        W32296   5.798  10.672   2.366  0.0558 -0.5434  0.2082
16163W        W32297   4.135   5.867   3.543  0.0262  0.1314 -0.3629
16164W        W32298  16.924  13.643   1.948 -0.1451 -0.0641  0.1025
16165W        W32299  13.707  13.080   3.489 -0.0624  0.0846  0.1892
16166W        W32300  10.172   5.747   3.137 -0.0481  0.1601  0.0611
16167W        W32301  17.329   9.996   1.807 -0.0401  0.2347 -0.1007
16168W        W32302  10.152  14.637  10.301  0.4589  0.1392 -0.2670
16169W        W32303   2.446   9.469  13.484 -0.1165 -0.0444 -0.1028
16170W        W32304   5.109  13.826   4.387 -0.1206  0.1822 -0.2208
16171W        W32305  10.680   7.814  12.330 -0.0034 -0.2126  0.1667
16172W        W32306   1.663  15.478   4.723  0.0302  0.2885 -0.0822
16173W        W32307   8.222  11.147   0.479 -0.2248 -0.0728 -0.0359
16174W        W32308   6.164   2.107  15.058  0.6307 -0.0876  0.1024
16175W        W32309   9.799  15.086  14.224  0.1053  0.0849  0.1868
16176W        W32310   2.154   4.832  14.772  0.0515 -0.0282  0.2753
16177W        W32311   2.977  12.295  10.745 -0.2305  0.0483 -0.0869
16178W        W32312   4.521   3.202  12.430 -0.2801  0.0248  0.0226
16179W        W32313  12.136  13.908   4.305 -0.0840  0.1496 -0.1101
16180W        W32314   0.227   7.310  13.848  0.2711 -0.0550  0.0507
16181W        W32315  12.323  14.530   2.122 -0.0121 -0.3219  0.1970
16182W        W32316   1.260   5.421   1.531  0.1254  0.1425  0.2460
16183W        W32317   9.109  13.992   4.236 -0.2532  0.1866 -0.2884
16184W        W32318  17.212  15.716  10.259  0.1048 -0.0559 -0.1173
16185W        W32319  13.913  17.506   1.634 -0.1831  0.0708  0.0399
16186W        W32320  12.915   5.360   3.060  0.0910 -0.0028  0.1722
16187W        W32321   8.944   5.533  12.169 -0.1692  0.0977 -0.1321
16188W        W32322  18.946   4.171   4.050 -0.0568  0.1615  0.0764
16189W        W32323   7.443  18.742   0.969 -0.0971  0.1902 -0.0907
16190W        W32324   8.090   6.512   0.885  0.2605  0.1228  0.0481
16191W        W32325  10.229   5.676  13.334 -0.0086 -0.0153  0.1941
16192W        W32326   7.743  12.728   3.496 -0.0156 -0.0521  0.1864
16193W        W32327  16.781  13.339  13.635 -0.2770  0.3043 -0.4408
16194W        W32328   3.876  18.969   4.762  0.0627 -0.1862 -0.0698
16195W        W32329  11.174  18.228   1.386 -0.2018 -0.1939 -0.0163
16196W        W32330  15.627  12.266   1.751  0.0423 -0.0894  0.0414
16197W        W32331   5.284   1.616   3.121  0.3509  0.2392  0.1042
16198W        W32332  16.160  12.450  12.756  0.0484  0.1441  0.0762
16199W        W32333  14.067   7.537   1.349  0.1225 -0.1817 -0.2294
16200W        W32334  13.753   9.385  13.540  0.0413  0.0073 -0.0063
16201W        W32335   8.307   7.080   1.426  0.0571  0.2672  0.1325
16202W        W32336   6.208  13.844   4.559  0.2681 -0.1151 -0.1162
16203W        W32337  10.101  17.334   0.668  0.5435  0.0985  0.2619
16204W        W32338  16.184   6.064  10.189  0.0234  0.2361 -0.0600
16205W        W32339   8.573  18.000  14.813 -0.1487 -0.0934 -0.3651
16206W        W32340  12.101   8.709   0.863  0.2590 -0.5032  0.0628
16207W        W32341   3.122   4.949  14.581  0.2157 -0.4801 -0.3584
16208W        W32342   9.732  11.910   1.731  0.0864  0.0367  0.0563
16209W        W32343   2.011   3.768   4.049  0.0458 -0.1755  0.2883
16210W        W32344   8.151   0.554   1.250 -0.2110  0.0459  0.3166
16211W        W32345  11.797  12.812   4.145 -0.0233 -0.0698  0.1883
16212W        W32346  12.353  12.670   4.917  0.0315 -0.1440 -0.2438
16213W        W32347  15.535   7.227   3.776 -0.3591 -0.0051  0.0615
16214W        W32348  11.884  14.137   3.430 -0.0421 -0.0854  0.3801
16215W        W32349   8.095   2.650   4.809  0.0338 -0.1081 -0.1584
16216W        W32350   7.756   8.410  11.563 -0.1178  0.0634  0.1167
16217W        W32351  13.690   9.721   4.718  0.0362  0.1995  0.3391
16218W        W32352  13.251   1.337  14.264  0.1016  0.2902 -0.0982
16219W        W32353   4.920  10.135  11.529 -0.1102  0.4524 -0.3041
16220W        W32354   1.154   2.333  13.216 -0.0151 -0.0314 -0.1096
16221W        W32355   0.393   7.838  13.886  0.3545  0.0790 -0.2623
16222W        W32356  17.509   5.860   1.246 -0.1076 -0.0576  0.0180
16223W        W32357   2.431   9.616  10.882 -0.0567  0.0502 -0.0435
16224W        W32358   9.981   3.482  14.901 -0.1691  0.3769  0.0247
16225W        W32359   2.017  13.115   1.700 -0.3674  0.3150 -0.2603
16226W        W32360   1.355   9.403  14.066 -0.1450 -0.0377 -0.0241
16227W        W32361  13.290   4.017  14.643 -0.0116 -0.0228 -0.0973
16228W        W32362  14.345   8.680  13.043 -0.1309 -0.1660 -0.1177
16229W        W32363   2.425  14.938  12.975 -0.0970  0.0416 -0.2435
16230W        W32364  19.086   8.044   2.323 -0.2742  0.0442 -0.3247
16231W        W32365  12.330   2.631   2.093  0.1509 -0.4427 -0.3297
16232W        W32366  16.244  13.070  13.522 -0.0627 -0.1064  0.0856
16233W        W32367   1.367  17.668   2.700  0.0020 -0.0760  0.1571
16234W        W32368  15.070   8.167   0.831 -0.1308 -0.0339 -0.2096
16235W        W32369  14.042   3.759   1.691 -0.0511  0.2088  0.1040
16236W        W32370  16.286  11.375   4.465  0.0820 -0.1386  0.0747
16237W        W32371   0.499   6.548  10.390 -0.0862 -0.1081 -0.3053
16238W        W32372   4.885  12.955  11.747  0.2155 -0.0707 -0.1635
16239W        W32373   3.359   9.070   0.974 -0.1226  0.4422 -0.0429
16240W        W32374  10.483  13.108   1.182 -0.0647  0.0674  0.1710
16241W        W32375  13.804   0.377   1.250 -0.1194 -0.2069 -0.3496
16242W        W32376  11.666   7.352   4.866  0.0516  0.0495 -0.1238
16243W        W32377  12.466  14.118  12.904  0.0426  0.1831 -0.3164
16244W        W32378   1.756  17.640   3.634 -0.0108 -0.0018  0.0636
16245W        W32379   3.939  15.205  12.127  0.0007 -0.3314 -0.1015
16246W        W32380   2.855   9.238  13.295  0.0923  0.3107  0.1749
16247W        W32381   9.533   7.642  13.698  0.1439 -0.0691  0.2098
16248W        W32382  14.758  12.625   2.883 -0.4279 -0.0713 -0.0920
16249W        W32383   1.348   4.896   1.089 -0.4148  0.0029 -0.1319
16250W        W32384   5.087  11.523   3.900  0.1324 -0.0468 -0.0607
16251W        W32385  13.191   0.200   4.826 -0.0620  0.2545 -0.2009
16252W        W32386   8.248  16.861   4.873 -0.0528 -0.0866  0.3098
16253W        W32387   9.987  17.526   1.915  0.0568  0.2807 -0.2433
16254W        W32388  11.807  12.525  11.834  0.0609 -0.1087 -0.1027
16255W        W32389   1.029  16.554   0.692  0.0090 -0.5305  0.1453
16256W        W32390  13.635  16.381   1.078 -0.0844  0.1501  0.1061
16257W        W32391   7.210   7.193  13.152 -0.1592 -0.0596  0.0844
16258W        W32392   3.589   0.289  14.208 -0.0016 -0.0566 -0.2569
16259W        W32393  10.327  14.349   4.051  0.1768  0.0603  0.0723
16260W        W32394   4.676   7.987  15.194  0.0045 -0.0039  0.0973
16261W        W32395  16.516   5.122   5.574 -0.4606 -0.2059  0.2178
16262W        W32396   3.080   7.473  11.747 -0.0468 -0.0178  0.1633
16263W        W32397  16.322   8.763   0.831  0.1581  0.0964  0.5745
16264W        W32398  16.855  14.958   4.188  0.0996  0.2050 -0.0939
16265W        W32399  13.202   1.701   1.250  0.0857  0.1450 -0.2908
16266W        W32400  11.872  13.282   3.975 -0.0383  0.1328 -0.1350
16267W        W32401   6.950  14.578  12.051  0.1238 -0.0361 -0.2936
16268W        W32402  12.745   4.224   1.961  0.1728  0.1860  0.2997
16269W        W32403   2.290   4.408   5.001 -0.3039  0.1435  0.1945
16270W        W32404   1.647   4.529   0.242 -0.3895 -0.1209 -0.0082
16271W        W32405   2.509  13.628  13.856  0.0566 -0.2911  0.2274
16272W        W32406   9.455   0.237   2.415 -0.3546 -0.0810 -0.0631
16273W        W32407   8.653   4.274  10.703  0.2204 -0.2427  0.3496
16274W        W32408   4.243  14.888  12.379 -0.0514  0.1607  0.0802
16275W        W32409  16.464  13.089  10.489  0.1729 -0.1520 -0.0518
16276W        W32410  10.383  18.110  10.545  0.1570  0.2041 -0.1314
16277W        W32411   3.432  13.379  12.366  0.0908  0.0320  0.0323
16278W        W32412  10.216  14.192  10.042 -0.0879  0.0041 -0.3794
16279W        W32413  18.079  12.821   1.522 -0.1440  0.2787  0.2104
16280W        W32414   1.084  12.168   2.040  0.0142 -0.2229  0.1456
16281W        W32415  18.051   5.624   3.919  0.2188  0.0799  0.2965
16282W        W32416   8.692   9.414   3.364 -0.0939  0.0480 -0.0957
16283W        W32417  15.189   9.239  10.589 -0.3287  0.0685  0.0315
16284W        W32418   9.894  12.317  13.018  0.0443  0.3415 -0.1049
16285W        W32419  16.038   9.442  14.315 -0.3365 -0.1296  0.0448
16286W        W32420   7.273  18.567  13.454 -0.2857  0.0898  0.1599
16287W        W32421  12.180  18.248   3.362  0.4642  0.1616 -0.0156
16288W        W32422  13.151   6.785   0.385  0.1171  0.1243 -0.1149
16289W        W32423  12.893   9.786  13.325  0.1580  0.4302 -0.0103
16290W        W32424  15.372  15.798  11.421  0.0219  0.0320  0.0388
16291W        W32425   4.732  10.868  14.612  0.2765 -0.1652 -0.0929
16292W        W32426   4.971   7.691  13.556  0.0252 -0.2212 -0.1550
16293W        W32427   2.070   1.322   4.376  0.0028 -0.4244  0.1124
16294W        W32428   3.067  10.211  10.163  0.0286 -0.2113 -0.0540
16295W        W32429   0.418  10.013  11.934  0.1100 -0.3170 -0.3466
16296W        W32430   2.845  15.003  11.617 -0.1917 -0.2883  0.0884
16297W        W32431   4.190  11.643   2.723 -0.0028 -0.1866  0.1641
16298W        W32432   7.582   9.519   3.374 -0.0496  0.1012 -0.3503
16299W        W32433  15.859  18.386  12.882 -0.1089  0.1457  0.0271
16300W        W32434   4.754  11.422  11.896 -0.1365 -0.2368  0.0533
16301W        W32435  10.390  16.030   0.792  0.1575 -0.0516  0.0081
16302W        W32436   3.641   1.955   3.814  0.0864 -0.1541  0.0430
16303W        W32437   8.393   6.361  11.188  0.1752 -0.0944 -0.1650
16304W        W32438  12.091   6.347   0.595  0.4049 -0.0326 -0.0775
16305W        W32439   3.989  16.095   3.327  0.0874  0.0200  0.0061
16306W        W32440  16.511   8.854  10.546  0.3306 -0.0436 -0.2540
16307W        W32441   4.977   8.774   5.804 -0.2627 -0.0139  0.1100
16308W        W32442   1.272  13.801   0.077 -0.1510  0.3332  0.0466
16309W        W32443  13.163  14.346  10.470 -0.0618 -0.0878 -0.1704
16310W        W32444  11.452  18.123  13.973  0.1021  0.2057  0.0741
16311W        W32445  15.172   7.209  10.832 -0.2859  0.0813  0.0709
16312W        W32446  12.729   1.795  11.835 -0.2188  0.0097  0.3622
16313W        W32447  17.988   2.796  13.612 -0.1049 -0.1955 -0.0245
16314W        W32448  11.967   8.423  14.715 -0.0070  0.0585 -0.0311
16315W        W32449  10.570   3.872   4.135  0.1084 -0.2695 -0.4389
16316W        W32450   0.559   6.787   1.501 -0.2820 -0.1848 -0.2993
16317W        W32451  12.797   2.308  11.059 -0.0804  0.0604  0.1115
16318W        W32452   3.948  11.134  11.575  0.1745 -0.0112  0.3316
16319W        W32453  17.553   3.125   3.018  0.0915 -0.2711 -0.2794
16320W        W32454  13.946  18.417  13.381  0.4004  0.0553  0.0134
16321W        W32455   2.137  14.806   0.140 -0.1970  0.2598  0.2354
16322W        W32456   6.486  11.005  12.374 -0.0547 -0.2262  0.0654
16323W        W32457   6.277  16.363  15.116  0.0768  0.0677 -0.0427
16324W        W32458  13.976   7.154   0.054  0.1558 -0.0951  0.2723
16325W        W32459  14.177  14.626  13.012  0.0968 -0.0981 -0.2720
16326W        W32460  16.714   7.368   3.159 -0.1753 -0.0108  0.1002
16327W        W32461  16.634   5.649   4.836  0.2341  0.0223 -0.1335
16328W        W32462   3.479   8.748  12.198 -0.4388  0.2121 -0.0738
16329W        W32463  13.070   5.833   3.216  0.3608  0.2625 -0.1333
16330W        W32464  15.000  13.074  11.475 -0.1189 -0.2549 -0.4181
16331W        W32465  16.822   0.032   4.826  0.0459  0.2440  0.2802
16332W        W32466   6.598   1.031   3.466  0.1728  0.1969  0.0318
16333W        W32467   7.729  13.180   1.386  0.1006  0.5026  0.2063
16334W        W32468   7.608   1.069   0.527  0.0368 -0.0706  0.0511
16335W        W32469   9.251  17.143   0.381  0.1005 -0.1005 -0.0163
16336W        W32470  15.206  17.565   1.562 -0.2851  0.1785 -0.1278
16337W        W32471   1.662   7.676  12.301 -0.0032  0.2097  0.1192
16338W        W32472   5.310  16.466   3.236  0.1071 -0.3479  0.1255
16339W        W32473  17.314  10.684  11.513  0.1536 -0.0296  0.0504
16340W        W32474   8.026  14.451   0.998 -0.2714 -0.0536 -0.0228
16341W        W32475  17.039  16.892   4.549  0.2094 -0.3934 -0.1844
16342W        W32476  14.300   6.436  14.102 -0.1891  0.0141  0.1027
16343W        W32477   4.583  18.513   4.106  0.0498  0.0704 -0.2455
16344W        W32478   9.772  13.409   4.695  0.0278 -0.1631 -0.0176
16345W        W32479   4.663   1.728   5.075 -0.1346 -0.1769 -0.0142
16346W        W32480   7.168  12.931  12.926 -0.1835 -0.1652  0.2303
16347W        W32481  11.907  17.942   3.973  0.1015 -0.3439 -0.0081
16348W        W32482   0.180  11.421   5.214  0.0668 -0.0290 -0.1063
16349W        W32483   5.634  14.901  14.014  0.1199  0.1558  0.1327
16350W        W32484   3.100   2.746  13.383  0.0430  0.3901  0.0311
16351W        W32485   0.704   0.907  12.294  0.0191  0.2041 -0.2728
16352W        W32486   8.135   5.450  11.687  0.1573 -0.2489 -0.2319
16353W        W32487   9.139  14.161   2.221 -0.0022  0.2858  0.1799
16354W        W32488   3.194  10.131   1.991 -0.2902  0.1443 -0.1109
16355W        W32489  10.000   6.277   0.867 -0.2940 -0.4345 -0.1335
16356W        W32490  13.532   4.229  12.709 -0.2155  0.2075 -0.1043
16357W        W32491   3.725   3.786  13.218  0.2969 -0.1815 -0.1568
16358W        W32492   2.467   1.544  11.845 -0.2244  0.0319 -0.1241
16359W        W32493   2.552   5.597   1.498  0.1325  0.3560  0.2939
16360W        W32494  12.606   3.322   4.175  0.0024 -0.1758  0.2893
16361W        W32495  15.854   1.102   0.856  0.1954 -0.0834 -0.0030
16362W        W32496   1.531  13.538   4.323  0.0773  0.1572  0.1117
16363W        W32497   3.132  17.270  14.520 -0.1994 -0.2236  0.2720
16364W        W32498   3.229   7.503  14.581  0.0553  0.0673  0.1526
16365W        W32499   7.501   9.877   0.668  0.2432  0.1061 -0.0135
16366W        W32500   2.662   2.629   0.192  0.1097 -0.1540 -0.0742
16367W        W32501  14.276   9.201   4.244 -0.2788 -0.1507 -0.2366
16368W        W32502  16.596   4.530  14.316 -0.1327  0.0110 -0.0027
16369W        W32503   8.390  15.985  14.492 -0.0782 -0.1401 -0.0460
16370W        W32504   9.895  16.891   0.544  0.3178  0.0065  0.4676
16371W        W32505  11.196   9.286  13.684 -0.1284  0.3406 -0.3335
16372W        W32506  14.289  12.683  12.167 -0.1968  0.0318 -0.2422
16373W        W32507   0.486   3.447   4.391 -0.0194 -0.3314 -0.2580
16374W        W32508   0.648  14.391   1.887  0.0356 -0.2563 -0.3227
16375W        W32509   7.579   3.515  14.508 -0.0954 -0.1353  0.0394
16376W        W32510   2.715   0.376  12.856 -0.0590  0.1414  0.0466
16377W        W32511   5.660   8.842   1.449 -0.0110  0.0406 -0.4376
16378W        W32512  17.206  13.340   1.613 -0.2817 -0.2383  0.1868
16379W        W32513  18.804  11.648   4.464 -0.0917 -0.0489  0.3152
16380W        W32514   0.734   0.128  14.468  0.2141 -0.0621  0.1797
16381W        W32515   4.834   9.169   0.248 -0.0655 -0.1549 -0.1538
16382W        W32516  17.295  14.922   1.957  0.1079 -0.0558  0.3232
16383W        W32517  11.251   7.490  14.462 -0.3372  0.1403  0.1406
16384W        W32518   2.717   2.866   1.724 -0.1298 -0.1546  0.1064
16385W        W32519  16.825   1.610  10.965 -0.1060  0.1034  0.0067
16386W        W32520   7.119  14.248  12.484 -0.1672 -0.0954  0.1767
16387W        W32521   3.946  16.583  12.127  0.0845  0.2529  0.1853
16388W        W32522  13.255  15.407   5.368  0.0404 -0.1068  0.1991
16389W        W32523  11.500   4.757   4.166 -0.1348  0.0873 -0.0836
16390W        W32524  18.531  15.780  11.816 -0.0946 -0.0410 -0.0451
16391W        W32525  17.224   2.264   3.851 -0.1589  0.1894 -0.0751
16392W        W32526   2.969   0.108  14.975  0.1144 -0.2762  0.1361
16393W        W32527  10.620   8.981  11.126 -0.1538 -0.2401 -0.3452
16394W        W32528  17.128   1.842  14.477 -0.1712  0.1031 -0.1011
16395W        W32529   0.683  16.191   0.792 -0.0566  0.0730  0.2064
16396W        W32530   9.014   1.231   9.645 -0.2235 -0.1052  0.0235
16397W        W32531   9.240   5.933   0.266  0.2691  0.3543 -0.1327
16398W        W32532  18.504   4.384   2.307 -0.0017 -0.2845 -0.0013
16399W        W32533  12.250   4.935   4.678 -0.2389 -0.0800 -0.2888
16400W        W32534   3.591  12.668   2.140  0.0666  0.2282  0.2486
16401W        W32535  13.436   3.802  13.846 -0.4300 -0.0972  0.5131
16402W        W32536   5.625  18.651  14.735 -0.4309  0.3389 -0.2034
16403W        W32537  15.693   7.744  13.325 -0.1155 -0.2243  0.2483
16404W        W32538  12.220  15.872  14.421 -0.0605 -0.1373 -0.3880
16405W        W32539   2.114   6.662  11.441  0.1835 -0.0395 -0.2371
16406W        W32540  13.682  13.769  12.568 -0.0240 -0.4027  0.1653
16407W        W32541  14.954   7.301   1.906  0.3384 -0.0037 -0.0608
16408W        W32542   7.847  14.489  13.411 -0.0779 -0.2881  0.1484
16409W        W32543   0.942   4.031  14.839  0.2751 -0.0251  0.0391
16410W        W32544   0.358   3.837  12.577  0.1143 -0.0786 -0.1324
16411W        W32545   7.764   6.116   0.789  0.2746 -0.3111 -0.0624
16412W        W32546   8.280  15.376  13.859  0.0345  0.1189 -0.0057
16413W        W32547   9.455   2.521  14.145  0.3252  0.1937  0.0727
16414W        W32548  17.316   4.692   1.790  0.2333 -0.0494 -0.3208
16415W        W32549   0.378   6.745  11.879 -0.1011  0.1306 -0.1756
16416W        W32550  10.114   8.032  13.073 -0.3674  0.0493  0.1049
16417W        W32551   8.177  14.001   4.545  0.0525  0.1060  0.1983
16418W        W32552  17.051   7.911   3.693 -0.0859  0.1298  0.0059
16419W        W32553   5.512   0.879   0.894 -0.1482  0.0396  0.1374
16420W        W32554  18.823  13.101  11.124 -0.1596 -0.0534 -0.1634
16421W        W32555   4.804  13.188  11.258  0.0117 -0.0461  0.1834
16422W        W32556   2.440  15.347   3.023  0.0799  0.2930 -0.0386
16423W        W32557  10.443   2.107  14.494  0.0574  0.3259 -0.2276
16424W        W32558   9.822   6.856   1.047  0.0597  0.3625  0.0605
16425W        W32559   6.041  14.735   3.972 -0.3965 -0.0746 -0.3320
16426W        W32560   0.019   3.476   1.099  0.0046  0.1067 -0.2750
16427W        W32561  14.118   1.237  10.745  0.0759 -0.1899  0.2102
16428W        W32562  18.195   1.834  15.083 -0.0526  0.0850  0.0355
16429W        W32563  14.111   0.846  10.116 -0.0014  0.1403 -0.1281
16430W        W32564   8.519  16.515   5.179 -0.0643  0.3205 -0.0295
16431W        W32565   7.525   8.762   0.392  0.0212 -0.0542 -0.0174
16432W        W32566   6.808   8.562  13.485  0.2854 -0.0850 -0.1890
16433W        W32567   5.077  11.058   5.068 -0.0874  0.2944 -0.1295
16434W        W32568  11.124   4.695   3.454  0.1595 -0.1394 -0.1199
16435W        W32569   2.877   8.871   1.351 -0.0913 -0.1261 -0.0982
16436W        W32570   4.114   4.559   5.503 -0.0693  0.1188  0.0386
16437W        W32571   2.516  17.466   1.014 -0.0717  0.3291  0.0208
16438W        W32572   4.804  15.367   0.672 -0.0625 -0.0464 -0.3326
16439W        W32573  11.089  14.400   1.695 -0.1453  0.2466  0.0785
16440W        W32574  14.697  14.895   3.868  0.1051 -0.0677  0.1192
16441W        W32575  10.458  15.623   0.512  0.1533 -0.0285  0.1668
16442W        W32576  14.076   5.774  10.520  0.2121 -0.2136  0.5892
16443W        W32577   5.611  10.924   3.789  0.0248  0.0067 -0.4036
16444W        W32578  17.534  15.348  14.926 -0.0922 -0.0563 -0.2064
16445W        W32579  14.265   2.550  13.602  0.2990  0.0159 -0.0217
16446W        W32580  15.808  13.437  11.574  0.0372 -0.0414  0.1268
16447W        W32581   2.467  14.892   2.043  0.0326  0.1710 -0.2546
16448W        W32582  16.987  16.034   3.636  0.0741 -0.0060 -0.2339
16449W        W32583   6.122   2.668  13.773 -0.2283 -0.1476 -0.1722
16450W        W32584  16.543  10.964  14.927 -0.0090  0.0135 -0.0351
16451W        W32585   6.002  11.068  12.113  0.0892 -0.2575 -0.2103
16452W        W32586  18.993  10.418   1.303 -0.1634 -0.1826 -0.3198
16453W        W32587  15.016   4.342   1.546 -0.1438  0.0235  0.2848
16454W        W32588  15.608   2.000  13.136  0.0810  0.0406  0.1850
16455W        W32589   1.121   5.951   5.079 -0.0287 -0.1699  0.1884
16456W        W32590  17.742  10.824  12.311 -0.0115 -0.3658  0.4545
16457W        W32591  12.283  11.697   0.816  0.2464 -0.0443  0.2174
16458W        W32592  12.679   8.165   3.009 -0.0019  0.0249 -0.0933
16459W        W32593  14.931  11.382   3.190  0.1052 -0.0392 -0.2928
16460W        W32594   1.446   6.689  14.874  0.4353  0.1000  0.0088
16461W        W32595   5.159   8.099  14.472  0.1471  0.0572 -0.2537
16462W        W32596   1.368   8.985  11.520  0.0357  0.1702 -0.0738
16463W        W32597   8.668  16.573   3.221  0.5017 -0.1767  0.0154
16464W        W32598   5.013  12.034   4.579 -0.1048  0.0399  0.1014
16465W        W32599  13.208  18.819  14.016 -0.0393 -0.0663 -0.1011
16466W        W32600   2.030  16.117  15.071 -0.1268  0.3697  0.0347
16467W        W32601   5.781  17.265   2.856  0.2991 -0.3532 -0.1273
16468W        W32602   2.114   9.257   1.137 -0.1157  0.0175 -0.1588
16469W        W32603   1.731   7.220  13.477  0.2734 -0.0258 -0.4205
16470W        W32604   9.688   6.134  11.668  0.1427  0.1218 -0.0069
16471W        W32605  17.452  14.068   3.913 -0.1964  0.2110 -0.1660
16472W        W32606  15.583  11.402  10.452  0.0257  0.0642  0.2742
16473W        W32607   0.605  16.191   2.230  0.1565  0.0994  0.3224
16474W        W32608   3.572  14.792  15.193 -0.3247  0.1415  0.1422
16475W        W32609   4.797   6.670   0.717 -0.1045 -0.1142 -0.0649
16476W        W32610  10.770   2.380  11.593 -0.1458 -0.1929 -0.1783
16477W        W32611   1.473  11.963   0.178 -0.3927 -0.1011  0.2667
16478W        W32612  10.716  18.777  13.233 -0.0035 -0.2506  0.0450
16479W        W32613  11.680   6.206  13.405  0.0333  0.1767 -0.2715
16480W        W32614  14.381   4.191  14.371 -0.0015  0.2618 -0.1458
16481W        W32615   3.357  13.563   3.784 -0.1311 -0.2825 -0.2698
16482W        W32616   1.372  18.328  10.974  0.0689 -0.2310  0.1528
16483W        W32617   5.349  14.845   2.634 -0.1789 -0.1053  0.0498
16484W        W32618  16.665   4.423  12.950 -0.0262 -0.2159  0.1922
16485W        W32619  14.808   5.124   1.988  0.4496 -0.0921 -0.0451
16486W        W32620   0.726   5.429   4.285 -0.1927 -0.2361  0.0128
16487W        W32621  16.900   9.912   8.953 -0.0486 -0.0494  0.1821
16488W        W32622   0.119   2.063   3.371  0.1616  0.1506  0.1688
16489W        W32623   5.347  11.760  13.834  0.2271  0.1211  0.1160
16490W        W32624   6.479  10.471   4.386 -0.0792 -0.3539 -0.2972
16491W        W32625   4.721   5.914  14.853 -0.0490 -0.3622 -0.3238
16492W        W32626   2.843   7.080   9.520 -0.3447  0.0634 -0.0216
16493W        W32627   9.829  16.351   3.005 -0.0532  0.0479 -0.0545
16494W        W32628   1.278  13.095  12.046  0.0968 -0.0308  0.1666
16495W        W32629   5.793  16.184   4.318 -0.1929 -0.0481 -0.0557
16496W        W32630   8.567   8.783   4.630 -0.0619  0.0454  0.0266
16497W        W32631   9.738  18.847   0.708 -0.2248 -0.1880  0.1930
16498W        W32632   4.913   3.347  10.394  0.2065 -0.2438 -0.0582
16499W        W32633  14.614   4.358  11.084  0.0242  0.0382 -0.1754
16500W        W32634  16.865   7.463   2.703  0.0846  0.1940 -0.3315
16501W        W32635  18.885   8.489  13.870 -0.3304  0.0288 -0.1043
16502W        W32636   5.633  18.210   1.815 -0.0673 -0.0366 -0.1040
16503W        W32637   2.039   1.876   2.980  0.0303 -0.2603  0.0813
16504W        W32638   9.579  18.391   1.692  0.0459 -0.0991  0.0408
16505W        W32639   2.617  12.718   9.633 -0.2166 -0.1844  0.1044
16506W        W32640   6.535  15.615   3.241  0.0619  0.1777 -0.1052
16507W        W32641   9.378  15.722  12.494 -0.2250  0.5913 -0.2289
16508W        W32642   1.659  16.754   5.557  0.2530 -0.0777  0.2780
16509W        W32643   8.769  15.695  13.533  0.0231 -0.1538 -0.2026
16510W        W32644  16.075  11.844   1.278  0.2066 -0.2169  0.1679
16511W        W32645  14.474   3.670   2.620 -0.2590  0.0849  0.1688
16512W        W32646  17.418  13.168  14.408 -0.1564 -0.0556 -0.0242
16513W        W32647   9.195   8.160  14.464 -0.2727  0.0778  0.0431
16514W        W32648   3.737  16.807   5.450 -0.0934  0.0117 -0.0512
16515W        W32649  14.937  16.806  11.384  0.0995 -0.0704  0.1024
16516W        W32650  10.116  13.022  13.921  0.0783 -0.1849  0.0634
16517W        W32651   4.007   5.556  14.025 -0.1452  0.1637  0.0245
16518W        W32652   0.534  12.389   1.705  0.1100  0.0452 -0.2256
16519W        W32653  19.135  11.271  12.325  0.2458 -0.0343  0.1205
16520W        W32654  10.461  17.306  12.716  0.1329 -0.1472 -0.0129
16521W        W32655  11.154   8.376   0.069  0.0030 -0.2424 -0.2258
16522W        W32656   5.114   7.128  13.712  0.0325  0.1048  0.2831
16523W        W32657   9.723  10.897   0.439 -0.0855  0.1984 -0.0509
16524W        W32658  13.753   2.678  13.440 -0.1067  0.2716  0.1565
16525W        W32659  13.078  14.483   5.233 -0.1309  0.0031  0.3990
16526W        W32660   3.639  14.064   4.877 -0.2314 -0.0045 -0.0909
16527W        W32661   9.433   3.546  10.996  0.1757 -0.0576  0.0393
16528W        W32662  16.641   7.534   1.430 -0.0338 -0.4040 -0.1920
16529W        W32663  15.395   7.192   5.376  0.0919  0.2023  0.0446
16530W        W32664   0.854  13.691   2.369 -0.1940 -0.3391 -0.3815
16531W        W32665  10.078   2.318  14.857  0.2174  0.0218  0.0865
16532W        W32666   6.534   9.637  13.575  0.2710  0.0266 -0.4147
16533W        W32667  14.135  18.020   2.240  0.0058 -0.2831  0.3435
16534W        W32668  17.651   6.349   1.329 -0.3029  0.5225  0.2266
16535W        W32669  15.814   4.766  14.737 -0.0267 -0.3111  0.0744
16536W        W32670  17.417  12.134   3.990  0.1610 -0.1389 -0.2417
16537W        W32671   2.891  10.277   2.791 -0.0517  0.0229 -0.0165
16538W        W32672  15.804   0.599   3.187 -0.1608 -0.0536 -0.2098
16539W        W32673   0.769  18.493   4.037  0.1455  0.3132  0.0581
16540W        W32674   3.318   0.045   3.829 -0.2344 -0.1741 -0.1916
16541W        W32675   2.267   2.206  12.367  0.0467 -0.2437 -0.1391
16542W        W32676   5.615  16.679   1.269 -0.2171  0.0341 -0.0614
16543W        W32677   0.023   2.508   0.878 -0.2771  0.2620 -0.1465
16544W        W32678   8.617   9.994  11.283  0.1179 -0.0079 -0.0707
16545W        W32679  15.406  13.845   5.200 -0.2645  0.1922  0.0740
16546W        W32680   4.691   1.127  12.170  0.0356 -0.0230  0.2915
16547W        W32681   3.198   1.060   4.896  0.2052 -0.2205 -0.0192
16548W        W32682   4.814  16.102   0.039  0.2050  0.1174 -0.1138
16549W        W32683   4.227   3.517  15.035  0.2352 -0.0387 -0.1700
16550W        W32684   0.668  15.592  12.289  0.0251 -0.3726  0.2180
16551W        W32685   7.930   5.984   4.925  0.2959 -0.0957 -0.1251
16552W        W32686   1.957  12.611   1.748 -0.3168  0.0249 -0.4177
16553W        W32687   6.167  12.640   2.166  0.0187 -0.0944  0.0401
16554W        W32688  10.000   4.490  11.861 -0.1482  0.2091  0.0644
16555W        W32689   9.662   7.843   3.796 -0.1497  0.0540  0.1255
16556W        W32690  10.957   4.539   1.004 -0.3406  0.0533 -0.0166
16557W        W32691   4.369   1.989   3.108  0.1584 -0.0827 -0.0259
16558W        W32692   1.554  16.941  13.027  0.0763 -0.2950 -0.1684
16559W        W32693   7.423  10.263  14.154  0.1827 -0.0847 -0.1330
16560W        W32694   6.882  15.145   0.627  0.1062 -0.0325  0.1146
16561W        W32695  11.304  15.613   2.404  0.0451 -0.0054 -0.1135
16562W        W32696  12.239  10.838   2.192  0.0919  0.1312  0.0091
16563W        W32697  13.458   9.407  15.043  0.1839  0.2147  0.2582
16564W        W32698   2.398  12.301  11.527  0.1285 -0.0717 -0.0002
16565W        W32699  17.631  13.380   5.544  0.4782  0.1474 -0.0930
16566W        W32700   4.490   4.523  12.343  0.1545 -0.1302  0.0078
16567W        W32701  13.529   5.254   1.751  0.1649  0.0634 -0.1564
16568W        W32702   2.547  18.362   4.076  0.0292 -0.1458  0.3566
16569W        W32703   4.294   2.679   0.219  0.0289 -0.0666  0.0884
16570W        W32704   6.278  19.084  13.660  0.1624  0.1457  0.4314
16571W        W32705   3.779  18.553  14.770 -0.0120 -0.2328  0.0191
16572W        W32706  16.627  13.627  11.002 -0.0719 -0.0761  0.2240
16573W        W32707  16.469   3.284   0.312  0.1492  0.0575  0.0980
16574W        W32708  15.116   7.508  12.369 -0.0478 -0.2266 -0.2258
16575W        W32709   8.507   5.306  15.193  0.0033 -0.1496  0.4847
16576W        W32710   5.443  15.753   1.654  0.0875 -0.1565  0.0876
16577W        W32711  16.009   5.171   2.978  0.2198  0.3118  0.0903
16578W        W32712   4.951   4.406  14.732 -0.0867  0.1152  0.2836
16579W        W32713  18.641   5.792  11.685 -0.1518 -0.1000 -0.1015
16580W        W32714  12.179   8.600  11.961 -0.0734 -0.2480  0.3673
16581W        W32715  13.126   5.282  13.348  0.0145 -0.0747 -0.3558
16582W        W32716  11.086  11.498   0.508  0.2133 -0.2695  0.0034
16583W        W32717   7.190   2.516  11.651 -0.2358  0.0484  0.3311
16584W        W32718  17.714   7.892   2.898  0.0958  0.6770 -0.1403
16585W        W32719   8.895  18.780   0.646  0.0922  0.3262  0.1533
16586W        W32720   0.784  13.702  10.835 -0.4035 -0.4179 -0.0969
16587W        W32721  14.444   4.445  13.870  0.2220  0.0213  0.0923
16588W        W32722   3.898   0.304  10.416 -0.1652 -0.2165 -0.1080
16589W        W32723   5.572  18.252   3.344  0.0538 -0.2842 -0.2558
16590W        W32724   6.609  15.461   0.395 -0.2379 -0.2017 -0.0056
16591W        W32725   6.594   6.763   1.056 -0.0116  0.1165  0.0326
16592W        W32726   8.556   5.548   3.790  0.1187  0.3802 -0.0644
16593W        W32727  10.033   1.747   3.004  0.4620  0.1716 -0.1844
16594W        W32728  17.053   9.722   2.142 -0.1203  0.1442  0.2866
16595W        W32729   4.577  13.181  10.745  0.3141 -0.0361 -0.0357
16596W        W32730   8.162  18.792  11.969 -0.2881  0.0759 -0.1451
16597W        W32731   5.298  13.748  14.841  0.0955 -0.1908 -0.1597
16598W        W32732   7.559   5.974  11.844  0.1896 -0.0639  0.0384
16599W        W32733  10.919   3.121  13.646 -0.0338  0.0131  0.1262
16600W        W32734   8.987   2.345   1.877  0.1323  0.0441 -0.3695
16601W        W32735   7.591  18.002  14.287  0.1693 -0.2897 -0.0656
16602W        W32736  13.829  13.985   3.603 -0.0985 -0.1747  0.0763
16603W        W32737  13.411   6.199  13.205 -0.3362  0.2484 -0.1693
16604W        W32738   8.323  17.994  11.704 -0.2742  0.3325  0.1391
16605W        W32739   5.918  13.822  12.497  0.1541  0.2404  0.1773
16606W        W32740   0.286   8.926   1.903 -0.1422  0.2880  0.0366
16607W        W32741  18.077  15.940   1.628  0.0689 -0.1597 -0.2438
16608W        W32742  13.352  17.721  12.651 -0.1007  0.0293 -0.1433
16609W        W32743   7.200   3.822   5.052 -0.1316 -0.2515  0.4433
16610W        W32744   3.282   4.362  13.061  0.1287  0.4213  0.1619
16611W        W32745  13.389   5.664   1.417  0.0785 -0.2589  0.0573
16612W        W32746   6.209   9.363   0.332  0.1718 -0.1969  0.2066
16613W        W32747  10.084  14.262  14.932 -0.2749  0.2116  0.5303
16614W        W32748   3.568   8.729   1.348 -0.0825 -0.1639 -0.4025
16615W        W32749   2.185  11.622   9.680 -0.6090 -0.0663 -0.2605
16616W        W32750  14.429   7.850  14.190 -0.1604  0.1308 -0.0647
16617W        W32751   8.413  18.618  14.649  0.1426 -0.1845  0.1723
16618W        W32752  12.761  11.533   1.626  0.0707 -0.3325 -0.0834
16619W        W32753  13.873   0.786  10.625  0.1557 -0.1017  0.2096
16620W        W32754  11.688   6.534   4.493  0.1328 -0.0888  0.0483
16621W        W32755  13.628   9.867   2.737 -0.2125 -0.0084  0.1795
16622W        W32756  18.994  17.169   2.023 -0.0845  0.0137  0.0907
16623W        W32757   1.404   2.724   1.563 -0.0440  0.2448 -0.1407
16624W        W32758   3.042   0.458  12.452 -0.0870  0.0281  0.2252
16625W        W32759  11.704  14.615   3.068 -0.0786 -0.0198 -0.3415
16626W        W32760   0.652   7.669  10.645  0.0698 -0.2106  0.1742
16627W        W32761  16.315   7.619  12.517  0.1542  0.0481 -0.0954
16628W        W32762  12.968   5.120   4.279  0.2268 -0.3570 -0.2088
16629W        W32763   8.988   3.552  13.382  0.2307  0.0457  0.2298
16630W        W32764   6.075   5.256   1.824 -0.2598  0.1653 -0.0646
16631W        W32765  10.432   5.758   4.660  0.2212 -0.1465 -0.2243
16632W        W32766  16.217  16.307   0.759 -0.3090 -0.3991 -0.0810
16633W        W32767   5.253   4.581  12.324  0.1066  0.0420 -0.0357
16634W        W32768  18.147  10.160  13.193 -0.4253  0.1099 -0.0180
16635W        W32769   9.386  10.428  12.333 -0.0021 -0.0548  0.0481
16636W        W32770  13.048   1.902  10.782  0.3370  0.0181 -0.1345
16637W        W32771   9.248   2.763  11.138 -0.2640  0.1195 -0.1959
16638W        W32772  19.115  10.855  14.180 -0.1326 -0.2511 -0.2079
16639W        W32773   5.339   8.609  14.407 -0.3989 -0.2250 -0.1421
16640W        W32774  10.590   0.472   1.654 -0.0142  0.3099  0.1722
16641W        W32775  17.866   5.987  11.758 -0.0980  0.2043  0.0448
16642W        W32776  10.780  11.931   2.012  0.3386 -0.0976  0.1330
16643W        W32777   3.251  19.044   5.450  0.2744 -0.0380  0.1139
16644W        W32778  10.617  14.521   4.799 -0.0686 -0.0545  0.1490
16645W        W32779  18.226   9.310  12.627 -0.0102 -0.0311  0.2158
16646W        W32780   8.666   3.282  15.057  0.0366 -0.2037 -0.0544
16647W        W32781  14.475  13.420  13.682  0.1123  0.2785  0.0556
16648W        W32782  10.604   0.647   4.297 -0.1905  0.0923  0.2342
16649W        W32783   0.091  10.344   2.165  0.0172  0.1392 -0.1752
16650W        W32784  19.090  11.694   2.279  0.0253  0.0287 -0.0824
16651W        W32785   3.146   0.350  13.151 -0.0719 -0.1610  0.1563
16652W        W32786   0.055   8.202  13.600 -0.1661  0.0089  0.2514
16653W        W32787   0.323   6.244  14.373  0.1847 -0.1053 -0.0777
16654W        W32788   9.769  12.454   3.040 -0.0011 -0.2535  0.1597
16655W        W32789  13.947   6.276   3.035  0.2526  0.0968  0.2125
16656W        W32790   7.405   5.945   0.392  0.4433  0.0253  0.0320
16657W        W32791  15.602  11.148  12.690 -0.0911  0.0704  0.1038
16658W        W32792   1.293   0.827   4.711  0.1974  0.0449  0.0901
16659W        W32793  11.863   8.130   5.432  0.0483  0.2833 -0.1311
16660W        W32794   3.492   7.780   3.703 -0.2544  0.3271 -0.0040
16661W        W32795   0.996   0.572   5.658  0.0445  0.1072  0.0336
16662W        W32796  14.717   7.164  13.010  0.1076 -0.0203  0.0808
16663W        W32797   5.874  15.708   4.186  0.2887 -0.0643 -0.1826
16664W        W32798   4.664  11.313   1.171 -0.0611  0.1395 -0.1319
16665W        W32799   2.724   6.533   4.661 -0.1343  0.0988 -0.0165
16666W        W32800   9.507  14.924  13.820  0.0081  0.3109 -0.2920
16667W        W32801  11.095  11.638  11.719 -0.0052 -0.0249  0.0075
16668W        W32802   9.481   2.980   3.964  0.2253 -0.1058  0.1001
16669W        W32803   1.610   5.985   0.290 -0.0465  0.1425  0.1625
16670W        W32804   2.638  13.339  12.955 -0.4230 -0.0055  0.0078
16671W        W32805  13.383  18.692   0.999  0.0140 -0.0098 -0.3668
16672W        W32806  13.494   8.061  13.074  0.0204 -0.1400  0.0263
16673W        W32807  16.606   9.344   2.249  0.0347 -0.1295  0.0447
16674W        W32808   1.702  14.776   3.547 -0.2944  0.1465 -0.0841
16675W        W32809  15.589  11.728   1.042  0.1434 -0.2405 -0.2534
16676W        W32810   7.450   0.038   0.666  0.0203  0.0098 -0.3023
16677W        W32811   0.106  19.065  12.995  0.0251 -0.1749  0.2027
16678W        W32812   3.169   0.558  11.036 -0.0962 -0.2328  0.1805
16679W        W32813  18.321  12.532   2.514  0.1326  0.4263  0.1980
16680W        W32814   5.021  17.780   4.463 -0.2223  0.2332 -0.3386
16681W        W32815  17.745   7.241  13.727  0.0116 -0.0253  0.0663
16682W        W32816  13.660  17.266  11.829 -0.0002 -0.0707 -0.1977
16683W        W32817   6.112   4.274   4.176  0.0576  0.0045 -0.1195
16684W        W32818   1.305  14.025  11.578  0.0016  0.0506 -0.0187
16685W        W32819   8.182  12.155  13.184 -0.2375 -0.0475 -0.3490
16686W        W32820  16.464   6.947   2.091 -0.3058 -0.1555 -0.1646
16687W        W32821  14.084  18.859   3.988  0.3038 -0.0710  0.0965
16688W        W32822   4.405  19.123  13.680  0.0354  0.2512  0.3081
16689W        W32823   1.881  15.650  13.028 -0.0143  0.1310  0.0584
16690W        W32824  10.223   2.383  11.506  0.1777  0.0564  0.2350
16691W        W32825  11.294  10.913   0.843 -0.0921  0.0972 -0.1710
16692W        W32826  16.885  10.321  14.579 -0.0053  0.0210  0.4496
16693W        W32827   0.481   9.025  14.255  0.1971 -0.0254  0.0553
16694W        W32828  13.008   2.467   5.511  0.0592  0.0330 -0.1859
16695W        W32829   2.977   1.521   4.950 -0.2352  0.1249  0.2261
16696W        W32830   3.887   5.277   0.982  0.0058 -0.1781 -0.1188
16697W        W32831   9.869   1.199   3.650 -0.0191 -0.2688 -0.1749
16698W        W32832  17.271  12.642   5.433  0.2443  0.0673 -0.0555
16699W        W32833   1.553   7.498   1.863  0.1840  0.1859  0.0525
16700W        W32834  11.394  12.509   4.512  0.2987 -0.5492  0.0639
16701W        W32835  17.501   4.903  10.831  0.0780 -0.0276 -0.0765
16702W        W32836   5.515   8.756  13.173  0.3472 -0.0226 -0.1415
16703W        W32837  18.929   5.357  15.183  0.1703 -0.1741 -0.1612
16704W        W32838   6.359   9.697   1.216 -0.1219  0.0206  0.1822
16705W        W32839  18.960  12.116   1.955  0.1144  0.0514 -0.0251
16706W        W32840  18.381   2.271  13.266 -0.0061 -0.0437  0.2836
16707W        W32841   5.261  18.526   0.724  0.0681  0.1359  0.2982
16708W        W32842   2.792   3.668   0.095 -0.2934 -0.1009  0.1610
16709W        W32843   5.543   3.474   4.004  0.2728  0.2488 -0.3020
16710W        W32844   9.536  17.150   0.859 -0.0338  0.0069 -0.0247
16711W        W32845  18.819   2.192  13.126 -0.2796  0.3680  0.3213
16712W        W32846  12.628   2.333   1.180 -0.2510 -0.0647 -0.4785
16713W        W32847  15.990  12.363  12.264 -0.0424  0.0377  0.2163
16714W        W32848  13.295   3.078  12.731  0.0332  0.2723 -0.1617
16715W        W32849   0.353   7.288  10.676 -0.1829  0.0046  0.1521
16716W        W32850  16.762   4.085  12.607  0.2879 -0.1006  0.0234
16717W        W32851   7.144   0.309  13.017 -0.0289  0.3368  0.0635
16718W        W32852   7.054   7.522   4.650  0.1353  0.1845  0.0987
16719W        W32853  18.948  17.800  14.734 -0.0221  0.1262 -0.3006
16720W        W32854  19.095  10.927  13.207 -0.1926  0.2761  0.0497
16721W        W32855  10.305  14.252  14.420  0.1091  0.0197 -0.5198
16722W        W32856  17.526  11.084   1.451  0.0748 -0.1112  0.2093
16723W        W32857  10.564  12.858  12.365 -0.2358  0.0053  0.0834
16724W        W32858  12.653  18.526   0.441 -0.1117 -0.0605  0.3758
16725W        W32859  15.526   6.995   0.658  0.0694 -0.0830 -0.1303
16726W        W32860   1.308  11.054  12.719  0.1172 -0.1060  0.3656
16727W        W32861   2.203   1.604  13.877 -0.0323 -0.0607  0.2753
16728W        W32862   8.202   5.937  10.206  0.2676  0.4484  0.1534
16729W        W32863  18.356  17.066   5.149  0.0073 -0.0571 -0.3796
16730W        W32864  16.153  11.766   1.791 -0.0159 -0.2288  0.0326
16731W        W32865   8.063   2.453   4.251 -0.0621  0.2345 -0.0242
16732W        W32866   9.013   6.104  13.235  0.0083  0.0919  0.0489
16733W        W32867   1.765   0.535  13.090 -0.1574 -0.0492  0.0753
16734W        W32868   2.990  17.345   5.123  0.1302  0.2765  0.1973
16735W        W32869   3.169  10.602  13.319 -0.0556  0.0888  0.1223
16736W        W32870  12.280  17.004  12.426  0.0660  0.2172 -0.3226
16737W        W32871  16.155  15.881  14.976 -0.0899 -0.3935  0.3187
16738W        W32872  12.625  10.934   1.775 -0.3471 -0.0298 -0.0926
16739W        W32873  16.152   8.135   4.181 -0.3005 -0.1846  0.0953
16740W        W32874   9.566  16.808   4.579 -0.0159 -0.2332  0.3799
16741W        W32875   2.910  15.806  13.131  0.1353 -0.5338  0.3805
16742W        W32876  16.238  12.571  10.978  0.0508  0.3189  0.3283
16743W        W32877   1.899  14.294  12.763 -0.0719  0.1318 -0.1858
16744W        W32878   4.735  12.952   2.327 -0.1693 -0.0669  0.0028
16745W        W32879   7.437   2.883   1.095  0.0243 -0.3267 -0.1269
16746W        W32880   8.736   2.032  10.506 -0.0668 -0.1358  0.3766
16747W        W32881  18.135   9.539  13.099 -0.0774  0.2168 -0.0064
16748W        W32882   3.279  18.070  13.578  0.1088 -0.1403  0.0062
16749W        W32883   0.348   9.322   0.712  0.0265 -0.1163 -0.1783
16750W        W32884   6.100   0.608   4.158  0.0176 -0.1418 -0.3280
16751W        W32885  16.559   2.399  11.880 -0.0361 -0.1732  0.2560
16752W        W32886  15.074   6.586   0.636  0.6315 -0.0334 -0.0524
16753W        W32887   0.425   3.083  10.941  0.0950  0.2406  0.2614
16754W        W32888  15.833   1.889   4.373  0.2486  0.0996 -0.1660
16755W        W32889   6.017   1.184  11.156 -0.0186  0.0010 -0.0167
16756W        W32890   3.878  18.840   3.375  0.0640 -0.0515 -0.1484
16757W        W32891  13.273   9.416   1.037 -0.1070  0.2894  0.1791
16758W        W32892  18.109   7.501   2.299  0.1797 -0.0094  0.1536
16759W        W32893  12.499   7.584  12.056 -0.1171  0.0150 -0.1781
16760W        W32894   9.565  17.571   2.662  0.1935  0.0968 -0.1464
16761W        W32895   6.316  10.491  13.251 -0.0353  0.1384  0.0367
16762W        W32896   2.372  13.057   1.354  0.2905  0.2460 -0.1957
16763W        W32897   4.433   4.092  11.989  0.0869 -0.1333  0.0067
16764W        W32898   1.501  11.078   2.245  0.0721 -0.1095  0.1110
16765W        W32899  14.341  13.922  14.548 -0.2176 -0.1446  0.0051
16766W        W32900  14.956  12.911   3.237  0.2793  0.2071  0.2606
16767W        W32901   2.249  12.909   2.140 -0.1385 -0.4462  0.0903
16768W        W32902  17.932  17.036   2.796 -0.0055  0.2086 -0.1041
16769W        W32903  18.300   5.869  12.593  0.1342 -0.3025  0.3315
16770W        W32904  13.048  16.821  14.287 -0.0172  0.1037  0.4028
16771W        W32905  10.467  12.178  13.712  0.0313 -0.0162 -0.0112
16772W        W32906   3.500  17.744  13.880  0.0141  0.0448  0.2616
16773W        W32907  16.860  14.314   2.684 -0.1058 -0.0490  0.1521
16774W        W32908  16.375   7.917   1.204 -0.0658  0.0079 -0.0506
16775W        W32909   3.025   4.766  11.931 -0.0432 -0.1849 -0.3412
16776W        W32910   6.551   6.775   5.170 -0.3653 -0.0171  0.0434
16777W        W32911  18.280  11.060   3.297  0.3141 -0.0563  0.0726
16778W        W32912   6.981   3.165  10.026  0.0476 -0.0252  0.3502
16779W        W32913   9.983  13.335  12.791 -0.0277 -0.2103 -0.0608
16780W        W32914  12.754   6.154   0.701  0.2178  0.0020  0.0672
16781W        W32915   4.379   8.683  14.784  0.1674  0.0144 -0.0039
16782W        W32916  15.457   7.338   4.283 -0.1304 -0.1325  0.1466
16783W        W32917  11.317   2.124  12.388 -0.3974  0.2010  0.2011
16784W        W32918  17.451   4.439   3.054 -0.1200  0.1728  0.0289
16785W        W32919   0.690   3.172   1.696  0.1311  0.0257 -0.1466
16786W        W32920   8.473   8.841  13.169 -0.0342  0.1098  0.1081
16787W        W32921  13.654  14.492  11.681 -0.3094  0.4424  0.0737
16788W        W32922  14.979   5.399  12.803  0.2536 -0.1894  0.0964
16789W        W32923   6.345   1.636  10.358 -0.0781 -0.0277 -0.1675
16790W        W32924   4.368  18.289   1.851 -0.1368 -0.1125 -0.0618
16791W        W32925  14.661  16.086  12.698  0.2628  0.1121  0.0444
16792W        W32926  16.053   0.202  14.819 -0.0241  0.1265 -0.1252
16793W        W32927  13.061  15.482  10.732  0.4973 -0.0432 -0.3298
16794W        W32928   1.831  12.884   3.204  0.2032  0.2127  0.2580
16795W        W32929   8.472   6.738  11.661  0.1325 -0.1215 -0.2383
16796W        W32930  12.586   4.752  13.440  0.0274  0.2768  0.2766
16797W        W32931   9.861   0.419   3.887 -0.3442 -0.1713  0.2625
16798W        W32932  14.677   5.219   3.423 -0.4648 -0.0743  0.1637
16799W        W32933   1.273   4.220  13.664 -0.1152 -0.2764  0.0200
16800W        W32934  11.684   6.479  14.176  0.0855 -0.1008  0.2017
16801W        W32935  13.875  18.398   3.076  0.0060  0.2239 -0.0158
16802W        W32936   6.550  18.192  10.719 -0.1218  0.1027  0.1924
16803W        W32937  16.855   1.586  13.546 -0.0268  0.2486  0.3252
16804W        W32938   3.522  10.086  10.365  0.0486 -0.0377  0.0357
16805W        W32939  13.282  13.532   3.971  0.1675  0.1170 -0.2814
16806W        W32940   5.381   4.530   0.548  0.0654 -0.1660 -0.0662
16807W        W32941  17.805   4.604   1.640 -0.1769  0.1972  0.0290
16808W        W32942   1.636  15.171   1.935  0.1248 -0.0564  0.3018
16809W        W32943  13.238   1.506  13.790 -0.6089  0.1503  0.3920
16810W        W32944   9.062  16.951  13.210 -0.0330  0.1022 -0.0584
16811W        W32945   4.039  15.424   2.731 -0.1212 -0.2766 -0.4244
16812W        W32946   9.183  13.492  14.101  0.2459  0.1157 -0.0621
16813W        W32947  14.281   6.805  13.047  0.3518  0.0613  0.1970
16814W        W32948  15.797  10.038   2.463 -0.0389  0.3468 -0.0888
16815W        W32949  13.701   0.474   2.499  0.2695  0.0864 -0.0893
16816W        W32950  10.923  11.295  13.986  0.1136 -0.0706  0.1498
16817W        W32951   9.943   1.291   0.724  0.1246 -0.0140  0.1635
16818W        W32952   2.293   8.176  11.853 -0.1179 -0.0658  0.1647
16819W        W32953   8.258   4.964   5.032  0.1377  0.1872  0.2721
16820W        W32954  13.734  17.287  12.472 -0.2918 -0.0757 -0.1226
16821W        W32955  15.067   2.185   0.011  0.0197 -0.0244  0.2188
16822W        W32956   9.237  16.993  10.839 -0.0352 -0.0670 -0.5037
16823W        W32957  16.102  15.304  12.853 -0.1677 -0.3194 -0.0372
16824W        W32958  10.960  15.551   6.155 -0.2181 -0.0841  0.1379
16825W        W32959   2.309  15.577  14.475  0.0912  0.1413  0.1144
16826W        W32960  16.780  16.342  10.683 -0.0411  0.3068 -0.3160
16827W        W32961   1.489   4.082  10.708 -0.2538 -0.1669  0.0485
16828W        W32962   9.059   0.772  13.800 -0.0361  0.5981 -0.0575
16829W        W32963   3.965  17.356   0.365 -0.2846  0.3135  0.0664
16830W        W32964   3.623  11.730   4.770 -0.1117  0.3075  0.0116
16831W        W32965   1.782  18.860   0.267  0.0865  0.0192  0.4076
16832W        W32966  16.988  11.289   4.525 -0.3867  0.3180  0.1184
16833W        W32967   6.197   5.165  11.908  0.1820 -0.1220 -0.1216
16834W        W32968   1.105   8.132   0.241 -0.1172 -0.0328  0.2111
16835W        W32969   1.924  18.419   3.004 -0.3072 -0.0539 -0.1138
16836W        W32970  18.947   6.286   1.569  0.0819  0.2741 -0.1683
16837W        W32971   2.511   5.153   1.940 -0.1465  0.1071 -0.1358
16838W        W32972  12.995  16.115   2.894 -0.0121  0.1496 -0.2652
16839W        W32973   4.758  18.439  11.907  0.3356 -0.0065  0.3868
16840W        W32974  11.889   0.064   0.200 -0.3220 -0.0805  0.0972
16841W        W32975  15.541   2.831  10.855  0.0572  0.0522 -0.2536
16842W        W32976  13.890  17.134  10.658 -0.0443 -0.0229  0.1354
16843W        W32977  18.657  17.890   5.312  0.2519  0.2379 -0.0644
16844W        W32978   2.124  12.165   3.957  0.0675 -0.0247  0.2991
16845W        W32979   3.522   8.978  12.640  0.4957  0.0250  0.0547
16846W        W32980  11.197   0.834   3.880  0.2689 -0.3044  0.5037
16847W        W32981   1.133   4.819   4.302  0.1709  0.0604 -0.0668
16848W        W32982   8.698  16.191   1.744 -0.0901 -0.1012 -0.0286
16849W        W32983   4.360  13.149  13.502 -0.3093  0.0354 -0.1441
16850W        W32984  13.353   8.100   4.255 -0.1604  0.2791 -0.2274
16851W        W32985   3.765   0.285  12.222  0.2001 -0.2492 -0.1569
16852W        W32986  16.063   9.978   4.804 -0.3854 -0.6446 -0.1411
16853W        W32987   8.678   7.502  14.883 -0.0216  0.1847  0.0538
16854W        W32988   6.689   8.337   0.569  0.0073  0.0381  0.1665
16855W        W32989   4.919  15.942   5.924  0.1087 -0.1891 -0.4779
16856W        W32990   2.870   5.822  11.691  0.2891 -0.0106 -0.2614
16857W        W32991   5.615   7.589   4.943  0.0700  0.2195 -0.2362
16858W        W32992  14.459  12.139   0.906 -0.0373  0.2384  0.0824
16859W        W32993  13.677  13.959   1.525 -0.1402 -0.2108  0.0227
16860W        W32994  17.664   2.479   1.903 -0.2799 -0.1717  0.1738
16861W        W32995  18.776   5.884  10.972  0.1253  0.2524  0.1082
16862W        W32996  17.056  13.663   3.168 -0.1828  0.1730 -0.0129
16863W        W32997  12.855  17.889   2.692  0.1837 -0.0284  0.3185
16864W        W32998  17.184   6.670  11.009 -0.2040  0.3445 -0.0859
16865W        W32999   1.503   0.894   0.523  0.2134 -0.2430 -0.0072
16866W        W33000   0.101   0.470   1.622 -0.0420  0.0479  0.1102
16867W        W33001   7.496   6.237  14.999 -0.0988 -0.1271 -0.1252
16868W        W33002   6.309  12.384   5.610  0.2851 -0.2032 -0.0034
16869W        W33003  17.698   5.926  13.927 -0.0347  0.0611  0.0402
16870W        W33004   9.352   3.856  11.373  0.2641  0.4169 -0.0043
16871W        W33005  18.079   4.175  14.414 -0.0981  0.0243 -0.2229
16872W        W33006   3.648   9.045  13.855  0.0639 -0.0176  0.0581
16873W        W33007  18.585  12.779   4.213 -0.4316  0.1649  0.0064
16874W        W33008  17.698   1.053   2.970 -0.2145 -0.0914 -0.3133
16875W        W33009   3.388  17.052  10.975  0.1096  0.1296 -0.1173
16876W        W33010  17.773  10.206  10.456 -0.1354 -0.2048 -0.3245
16877W        W33011   4.980  11.654   3.228  0.1491  0.2231  0.1483
16878W        W33012  11.157  12.509  11.263  0.1488 -0.1130 -0.0639
16879W        W33013   4.469  14.185   4.288  0.2337  0.1152  0.1885
16880W        W33014   3.643  10.151   1.209  0.4954 -0.1371 -0.0079
16881W        W33015  11.220  18.308   1.918 -0.1491 -0.1142  0.3428
16882W        W33016   7.520   7.403  13.626  0.3217  0.0733  0.3211
16883W        W33017   4.102  10.482  14.467  0.2616 -0.2794 -0.1771
16884W        W33018  17.741   4.426  13.814  0.2049  0.1376 -0.2461
16885W        W33019   8.036  10.621   2.966  0.2249  0.1746  0.0542
16886W        W33020  10.608   6.865   2.043  0.0941  0.1127  0.0324
16887W        W33021  11.376   8.761  13.012 -0.1154 -0.0528 -0.3823
16888W        W33022   4.060   5.045   0.319 -0.2328 -0.0097 -0.0652
16889W        W33023   8.331  15.167   4.449 -0.0655 -0.0223  0.1541
16890W        W33024  18.291   6.991  14.446  0.1364 -0.3781 -0.2025
16891W        W33025  18.397   5.898   4.064 -0.2608 -0.0885 -0.2031
16892W        W33026  11.362   7.799   4.580 -0.1291  0.3691  0.0728
16893W        W33027  18.066  15.661  13.792 -0.1673  0.0051 -0.3045
16894W        W33028   9.870  10.381  12.435  0.1465 -0.2326  0.0208
16895W        W33029  13.537  15.136   2.371  0.0489  0.1195  0.1649
16896W        W33030   7.034  14.301  15.107  0.1278  0.3512 -0.0066
16897W        W33031   2.797  10.737   1.043 -0.0818 -0.0585 -0.0805
16898W        W33032   5.464  12.515   1.482 -0.1474 -0.1001 -0.0419
16899W        W33033   1.036  19.114  14.900 -0.4322 -0.1142  0.0443
16900W        W33034  11.897   1.664   2.700 -0.1445  0.0401  0.0839
16901W        W33035   0.019  15.412   5.218  0.0307 -0.1232  0.0368
16902W        W33036  13.878   4.448  14.210  0.1825 -0.0046  0.2290
16903W        W33037   9.290   1.965   1.123 -0.1346  0.2159 -0.1553
16904W        W33038   6.923   2.716   4.287 -0.1896 -0.2580  0.3483
16905W        W33039   1.858   2.936  14.325 -0.1996 -0.1836 -0.0327
16906W        W33040   8.807   4.280   6.090 -0.0022  0.3323 -0.1529
16907W        W33041   1.984  16.430   0.976  0.1814 -0.2175  0.0390
16908W        W33042  16.410  15.733   4.194 -0.3090  0.2255 -0.0668
16909W        W33043   5.564  16.619   2.738 -0.1073 -0.0187 -0.1140
16910W        W33044   3.260  11.938   2.614  0.0590 -0.0853  0.3662
16911W        W33045  10.113  16.432   3.373 -0.0680  0.3135  0.2431
16912W        W33046   9.838   1.437  12.465  0.1574 -0.1570  0.1136
16913W        W33047   7.661  18.978  14.410  0.1400  0.1674 -0.0855
16914W        W33048   3.019   5.886   5.645  0.3699 -0.2820  0.0173
16915W        W33049   5.966   2.397   0.850  0.0249 -0.4843 -0.0507
16916W        W33050   1.114   2.143   2.939  0.1150  0.2104  0.0225
16917W        W33051  18.614  14.801  12.658 -0.0054  0.0726 -0.0086
16918W        W33052  12.361   6.838   0.564  0.1042  0.3264 -0.0804
16919W        W33053   7.572   1.715  11.467 -0.0301  0.2709 -0.0876
16920W        W33054  18.878   5.886   3.160 -0.0641  0.1670  0.2489
16921W        W33055  12.655   4.321   3.227 -0.2711  0.2695  0.1998
16922W        W33056  17.926   0.848  12.102  0.1765 -0.1678  0.1883
16923W        W33057   8.635   4.459   2.765 -0.3631 -0.2911 -0.1017
16924W        W33058  17.259  17.385  13.038  0.1815  0.0652 -0.0276
16925W        W33059   4.226  16.533  10.847 -0.3582  0.0064 -0.2731
16926W        W33060  12.651  18.352  14.742 -0.1142 -0.2340  0.3368
16927W        W33061   4.794   6.841  11.274 -0.2369  0.1958  0.0443
16928W        W33062  18.125   8.959   1.611  0.0897 -0.0522 -0.0238
16929W        W33063   0.570   7.955  11.758 -0.0358  0.2896  0.3445
16930W        W33064  18.949  11.288   0.846  0.2564 -0.2436  0.1283
16931W        W33065  14.405  10.133  14.309  0.0931  0.2256  0.0470
16932W        W33066   2.311   2.632  13.904 -0.2912  0.1622 -0.1640
16933W        W33067   8.400   8.277   4.990 -0.1054  0.1584  0.3890
16934W        W33068   2.077   7.269  13.082 -0.0203  0.2257 -0.0977
16935W        W33069  10.397  11.729   5.058  0.0339  0.0511 -0.1096
16936W        W33070   9.553   5.431  13.019  0.3482 -0.1221  0.1270
16937W        W33071   2.520   9.956   2.134  0.2382 -0.3530 -0.0551
16938W        W33072   9.523   1.303   1.516  0.1248 -0.1430 -0.0112
16939W        W33073   6.488  18.180   3.054  0.3623  0.1183  0.0054
16940W        W33074  18.859  13.365  10.612 -0.0617 -0.2292 -0.3039
16941W        W33075  18.339   5.055  13.091 -0.1653 -0.0492  0.0772
16942W        W33076   3.060   6.672  11.059  0.2641 -0.1646  0.0669
16943W        W33077   5.805  15.021   3.576  0.0551 -0.1144 -0.2272
16944W        W33078   2.197  17.145  13.839  0.2378  0.0503 -0.2943
16945W        W33079  14.289   5.875  10.123 -0.1418  0.2139  0.1971
16946W        W33080  11.115   2.303   4.318 -0.0569  0.3423 -0.0995
16947W        W33081  13.516  14.356   0.279  0.2371  0.2423 -0.0561
16948W        W33082   5.635  18.555   1.480  0.0239 -0.0247 -0.0845
16949W        W33083  10.971   2.089  13.359  0.1254  0.3625  0.1727
16950W        W33084   1.629  17.274   4.022  0.2045  0.2632 -0.0755
16951W        W33085  18.761  15.789  13.618  0.0664  0.0680 -0.0239
16952W        W33086  11.307   2.110   2.701 -0.0876 -0.1308  0.1208
16953W        W33087  10.594  13.600  13.324  0.1155 -0.2309  0.2092
16954W        W33088  18.565  18.759  14.315 -0.0882  0.0947 -0.0578
16955W        W33089  15.557  15.132  11.929 -0.3142 -0.2658 -0.0375
16956W        W33090  14.725  13.706   0.733 -0.3947 -0.2266 -0.2129
16957W        W33091   6.955  18.270  11.065  0.1006 -0.1431  0.1235
16958W        W33092   1.818  13.558  10.819 -0.0758 -0.1497  0.2569
16959W        W33093  10.121  17.647  12.626  0.1832  0.1646  0.2466
16960W        W33094   6.964  10.638   0.415 -0.0380  0.0665  0.1241
16961W        W33095  17.735   3.685  11.857  0.1850  0.4732 -0.0332
16962W        W33096   1.249  17.404  12.947 -0.0967  0.2184  0.0859
16963W        W33097  12.648  13.376   2.712  0.0108  0.1715 -0.2557
16964W        W33098  18.804  16.097  14.222 -0.3183 -0.3384  0.0311
16965W        W33099  15.277   4.490  13.053  0.2564  0.2085  0.2868
16966W        W33100   8.480   2.924   2.151  0.2655 -0.1894 -0.0560
16967W        W33101  10.708   1.175  12.645  0.3766  0.0055  0.2169
16968W        W33102   4.665   9.976   0.970 -0.0050 -0.0542  0.3483
16969W        W33103   8.967  13.460   3.175  0.2235  0.1553 -0.0886
16970W        W33104  10.194  15.404  13.217 -0.3995  0.4596  0.2036
16971W        W33105   2.444  16.897  10.276 -0.1952 -0.1089  0.1861
16972W        W33106  17.710   0.446  14.389 -0.0609 -0.4016  0.0666
16973W        W33107  13.697  11.263  10.808  0.0759  0.2353  0.0948
16974W        W33108   5.066  11.882  13.090  0.0844 -0.0940 -0.0429
16975W        W33109  10.695  14.204   5.274  0.2404 -0.1124 -0.2384
16976W        W33110   1.234   8.762   2.196  0.2183 -0.0628  0.3055
16977W        W33111   0.958  12.685  13.966 -0.0735 -0.4927  0.0763
16978W        W33112  17.942   0.319   1.206  0.0863 -0.2208 -0.1925
16979W        W33113  11.985   3.711  13.321  0.3258  0.1643  0.2040
16980W        W33114   2.245   1.151   3.822  0.0862  0.2289 -0.3130
16981W        W33115   0.103   6.946   3.517 -0.2562  0.1371  0.1024
16982W        W33116  14.227  11.189   9.744  0.0579  0.2928 -0.0927
16983W        W33117   1.362  15.511  15.123 -0.1025 -0.0687 -0.2567
16984W        W33118   9.235  17.265  11.306 -0.4212 -0.1338  0.3675
16985W        W33119  13.202   2.950  12.196 -0.0916 -0.4122 -0.0156
16986W        W33120  10.015  12.116  11.317  0.2887  0.2073 -0.1860
16987W        W33121  12.601  12.436  12.634  0.0124 -0.1839  0.2303
16988W        W33122   5.369   3.346   1.520 -0.1914  0.1369 -0.1756
16989W        W33123   8.684  17.741   2.681  0.3046  0.3801  0.1354
16990W        W33124  15.613   8.507   1.440 -0.2639 -0.1611 -0.0596
16991W        W33125  11.126  15.392   3.303 -0.1102 -0.0476 -0.1220
16992W        W33126  15.410   0.977  15.135  0.1925  0.2662 -0.0691
16993W        W33127   5.945   8.482   1.665  0.1756  0.1151 -0.0733
16994W        W33128  19.115   8.910  15.151  0.0620 -0.0412 -0.0953
16995W        W33129   0.109  18.467  10.214 -0.0583  0.1565 -0.0012
16996W        W33130   6.176   0.695  12.929  0.1307 -0.0433  0.1404
16997W        W33131   6.047  18.216  11.492 -0.2124  0.3022  0.0758
16998W        W33132  13.207   8.538  14.811  0.1851  0.4274 -0.1105
16999W        W33133   4.457  15.420   4.552  0.6350 -0.0264 -0.1360
17000W        W33134   4.249   4.709  10.307  0.0009  0.2635 -0.0687
17001W        W33135  17.282  10.282  14.942 -0.1679  0.1187  0.4025
17002W        W33136  13.543   8.298   3.268  0.1086  0.3490  0.0615
17003W        W33137   0.649  18.002   3.365 -0.1696  0.1567 -0.0465
17004W        W33138  10.197   0.236   5.218  0.0944 -0.0395 -0.0874
17005W        W33139   4.481  15.463  13.483  0.2930  0.0552 -0.5605
17006W        W33140  18.039   2.079   2.750  0.0159  0.1401  0.1400
17007W        W33141   0.371   0.921   0.427 -0.1190  0.1620  0.0308
17008W        W33142   0.989  12.750   4.988 -0.1874  0.1639 -0.0010
17009W        W33143  11.369  17.479   2.874 -0.0361  0.0587 -0.0119
17010W        W33144   4.420   6.329   3.548  0.1387  0.1249 -0.0363
17011W        W33145   0.754  15.098   2.361 -0.3765  0.1277  0.2109
17012W        W33146  13.867   4.104  13.813 -0.3662 -0.0268  0.2043
17013W        W33147  15.121  16.916   2.862 -0.2608 -0.1101  0.1760
17014W        W33148   3.408  11.694  11.874 -0.0767 -0.1110  0.1930
17015W        W33149   5.331  11.640   1.620  0.1416 -0.3504  0.0708
17016W        W33150   1.152   8.786   9.356  0.1730 -0.1748 -0.4949
17017W        W33151   9.863  16.045   0.993 -0.0177  0.2355 -0.0198
17018W        W33152  13.819  17.528   2.675  0.2546  0.2830 -0.2542
17019W        W33153   4.944  12.295  11.290  0.2988  0.1036 -0.0311
17020W        W33154   9.730   2.631   2.010 -0.2941  0.0723 -0.3837
17021W        W33155  13.617   0.203  11.240  0.3521 -0.2815  0.0407
17022W        W33156   5.593   9.191   1.933  0.1539  0.0692 -0.1172
17023W        W33157  11.130  13.564  10.891  0.1520  0.2209 -0.0324
17024W        W33158   7.997  11.100  13.634 -0.0103 -0.3530 -0.0912
17025W        W33159  15.919  19.079  11.476 -0.0682  0.1310  0.0366
17026W        W33160   2.304   5.826   0.439  0.0798 -0.2100  0.2014
17027W        W33161  12.837   6.650  11.494 -0.1355 -0.0231 -0.1999
17028W        W33162   4.811  12.322   5.629  0.0770  0.2134  0.2535
17029W        W33163   1.161   5.918   3.674  0.0645  0.0366  0.2983
17030W        W33164   3.652   5.662   3.624 -0.3605 -0.0289 -0.2859
17031W        W33165  10.458  14.306  10.524 -0.3158  0.0971 -0.0562
17032W        W33166   1.476  11.760  14.383  0.0678  0.1321  0.2328
17033W        W33167  15.330  14.184  13.124 -0.1033 -0.0332  0.2909
17034W        W33168  18.466   6.354   0.293  0.0600  0.2291  0.0199
17035W        W33169  17.721   3.478  14.276  0.2767  0.1716 -0.1145
17036W        W33170  14.165  14.197  12.237 -0.1105  0.2242  0.1542
17037W        W33171   0.197  12.847  11.244  0.0480  0.0492 -0.0148
17038W        W33172   4.465  12.626  13.527 -0.2659  0.0174  0.2612
17039W        W33173  14.758   6.880  13.412  0.1608  0.1271  0.0067
17040W        W33174   4.013   7.707   2.495 -0.3406 -0.1452  0.0440
17041W        W33175   6.215   5.630   3.167 -0.1940  0.0201 -0.1816
17042W        W33176  17.412  10.713  10.489 -0.0351  0.1601  0.3123
17043W        W33177  12.585  14.625   2.580 -0.1295  0.2004 -0.0134
17044W        W33178  10.013   6.161   0.088  0.1338 -0.0409  0.1708
17045W        W33179  17.549  14.428  11.650  0.0725 -0.0801 -0.0600
17046W        W33180  12.417  17.372  11.875  0.0308 -0.0259  0.1564
17047W        W33181   5.123   8.719  10.363  0.3870 -0.2044  0.0383
17048W        W33182  16.903   2.621   0.538 -0.0195 -0.1896  0.2288
17049W        W33183   5.524  12.044   4.415 -0.0635 -0.1215  0.1522
17050W        W33184   0.451   2.889   0.478 -0.1776  0.2080 -0.3266
17051W        W33185   8.855  11.024  14.281  0.4303  0.0862 -0.3131
17052W        W33186   2.554  16.460  10.421  0.1989  0.0643  0.1884
17053W        W33187  11.560   4.509   4.625  0.0043 -0.1978  0.2139
17054W        W33188   6.764   7.454   4.220  0.0001 -0.0584  0.1061
17055W        W33189  17.407   8.999  12.151 -0.0295 -0.0901  0.0987
17056W        W33190  18.489   1.189   3.341  0.4546  0.0477 -0.0859
17057W        W33191   6.114  10.795   5.376 -0.1665 -0.0218  0.2013
17058W        W33192   1.168   9.031   0.678  0.1261  0.0522 -0.0926
17059W        W33193   1.784   3.941  10.261  0.3482 -0.1497 -0.3212
17060W        W33194  18.399  10.502   0.471 -0.3041 -0.1724 -0.1893
17061W        W33195   7.528   7.284  12.300  0.1102  0.7006  0.3743
17062W        W33196  14.009  15.143   0.450  0.1468  0.0884 -0.0556
17063W        W33197  14.174  13.278   3.472  0.2521  0.0168 -0.1365
17064W        W33198   9.726   6.461   1.625  0.0882 -0.0538  0.0551
17065W        W33199   5.698  14.855  10.809  0.3194  0.0647  0.1699
17066W        W33200   3.811   2.576   4.287 -0.2809 -0.0093  0.1620
17067W        W33201   4.335  14.434   3.852  0.5879 -0.2300 -0.1313
17068W        W33202   5.391  15.309   3.470 -0.2107 -0.1597 -0.1885
17069W        W33203   3.977  14.474   2.387  0.1903  0.0671  0.2958
17070W        W33204   0.397   4.431   0.993  0.0127  0.2157  0.1239
17071W        W33205   3.124   3.268  11.910 -0.0310  0.0366 -0.3671
17072W        W33206  15.410   7.161  12.206 -0.0328 -0.0099  0.1832
17073W        W33207  17.249   4.970   0.370 -0.0860  0.1794  0.2590
17074W        W33208  17.427  11.428   3.540 -0.2013 -0.3510  0.0773
17075W        W33209   8.523  12.870   0.100  0.3376  0.0208  0.0799
17076W        W33210  11.841  17.961   0.075  0.2639  0.3141 -0.2161
17077W        W33211   9.183  15.589  12.041  0.0130 -0.2015 -0.1126
17078W        W33212   7.879  18.944  13.958 -0.2545  0.0552 -0.1920
17079W        W33213   7.081  14.258   1.304  0.0725  0.2209  0.0222
17080W        W33214   3.351  13.807   0.202  0.0496 -0.1173  0.1574
17081W        W33215   5.692  11.457   0.370 -0.0906 -0.2283 -0.1249
17082W        W33216  12.453  13.188  11.079 -0.1248 -0.1410 -0.0372
17083W        W33217   4.837   8.843   0.625  0.2818 -0.0695 -0.2245
17084W        W33218   2.089  16.995  11.840  0.0260 -0.1272 -0.0844
17085W        W33219  17.042   4.221   2.662 -0.0150 -0.2428  0.4621
17086W        W33220  11.469   1.864   4.303 -0.2654 -0.1168 -0.5071
17087W        W33221  11.295  15.933  11.647 -0.0795 -0.0985  0.1192
17088W        W33222   4.724   8.169  14.730  0.0673  0.0492  0.0770
17089W        W33223  16.654  16.279  12.497 -0.0906 -0.0262 -0.0569
17090W        W33224   1.744   5.225   1.578  0.1676  0.3192 -0.0205
17091W        W33225  10.965  15.167   3.907  0.2731 -0.0228  0.1360
17092W        W33226  15.557   6.888  12.612  0.0573  0.1776  0.2842
17093W        W33227  18.834  17.662   1.752 -0.3388  0.1070 -0.1675
17094W        W33228  12.337  10.667  14.674  0.1866  0.1432  0.2515
17095W        W33229  14.487   1.254  13.144 -0.1264  0.1432  0.0364
17096W        W33230   0.593  14.604  11.653 -0.0056  0.1164  0.0291
17097W        W33231  18.665  10.713  14.477 -0.1389  0.4823  0.1097
17098W        W33232   1.191  16.890   1.935 -0.2264 -0.0123 -0.1576
17099W        W33233   7.164  10.616   2.764  0.4918 -0.3610 -0.2314
17100W        W33234   9.243   0.186  11.273  0.0246 -0.1331  0.2609
17101W        W33235   5.890   3.920  11.432  0.0178  0.0357 -0.2528
17102W        W33236  13.315   1.926  10.370  0.0089 -0.0988  0.0656
17103W        W33237   5.126  13.743   0.118  0.0121  0.0381 -0.1332
17104W        W33238  17.606  19.044   5.341  0.3142 -0.0405  0.0129
17105W        W33239   9.355   3.981   1.959 -0.3054 -0.2414  0.3330
17106W        W33240  18.294   3.669  11.993 -0.0524  0.0820 -0.0987
17107W        W33241   3.357   9.994  12.295  0.1081 -0.3389  0.1170
17108W        W33242   8.033   8.691   0.174  0.1760 -0.0280 -0.0380
17109W        W33243  16.125   1.579   1.951 -0.0171  0.2473 -0.2895
17110W        W33244   8.547   8.162   0.166 -0.2470  0.0480 -0.3271
17111W        W33245   5.851  12.914   1.655  0.0918 -0.4677  0.1927
17112W        W33246   6.118   5.235  11.359  0.1332  0.0928 -0.2780
17113W        W33247  14.906   1.295   0.589 -0.2002 -0.1042  0.3214
17114W        W33248  12.178  18.337  12.135  0.0368  0.1208  0.0054
17115W        W33249  15.760   5.347   4.723 -0.0690 -0.2102  0.1873
17116W        W33250   7.872   1.423   1.158  0.2356  0.1295  0.0423
17117W        W33251  14.865   3.655   3.645  0.1486  0.2305 -0.2438
17118W        W33252  10.523   7.920  13.350  0.1788  0.1759  0.0123
17119W        W33253   9.862   7.462  11.088  0.0488 -0.3509  0.0786
17120W        W33254  10.835   8.670   2.690 -0.0227 -0.0788 -0.1374
17121W        W33255   2.656   2.665   2.961 -0.1647 -0.1429  0.0164
17122W        W33256   8.466  18.855   3.543 -0.0011  0.4737 -0.1012
17123W        W33257   6.621   8.668   1.846  0.0338 -0.0533  0.0105
17124W        W33258   8.469   8.526  11.059  0.0231  0.0833  0.0519
17125W        W33259  16.364   4.291   3.285  0.0836 -0.0644 -0.0904
17126W        W33260   4.163  12.811   3.978  0.2719 -0.0697 -0.0406
17127W        W33261  11.661   0.213  14.399  0.0070 -0.1632 -0.1885
17128W        W33262  15.205   6.489   1.315 -0.2479  0.0405 -0.3669
17129W        W33263   8.664   0.804  14.577  0.0342  0.0815 -0.3085
17130W        W33264  18.196   2.589   2.589  0.0476  0.1520 -0.0002
17131W        W33265   3.617   2.511   3.773  0.0074  0.3043 -0.0143
17132W        W33266  11.704  18.654   2.635 -0.2217 -0.1077  0.0310
17133W        W33267   5.108  15.699   4.972  0.0432 -0.2107  0.0019
17134W        W33268   3.383  16.607   2.572  0.2247 -0.2463  0.1890
17135W        W33269  10.568   8.176  14.435  0.4037  0.1701  0.0620
17136W        W33270   9.632  11.549  14.245  0.1768 -0.0058 -0.0607
17137W        W33271   1.824  11.799   4.139 -0.3286  0.0811 -0.0617
17138W        W33272  18.739   3.059  12.744 -0.1670 -0.0028 -0.2788
17139W        W33273   6.697   7.873  12.945  0.0608 -0.0654  0.0420
17140W        W33274   0.030   5.804   1.443 -0.1589  0.0544  0.2788
17141W        W33275   6.556   7.566   4.673  0.2923 -0.1642 -0.0077
17142W        W33276   7.564  10.542   3.087  0.1147 -0.1934  0.1034
17143W        W33277  12.432  13.365  12.145 -0.3539  0.0017  0.0898
17144W        W33278   4.247  10.468  12.119 -0.2199 -0.1352 -0.1304
17145W        W33279  16.156  17.825   5.395 -0.2703 -0.0509 -0.3395
17146W        W33280  11.824  18.132  11.639  0.2528 -0.4325  0.1066
17147W        W33281  16.342   9.160  13.464 -0.4851  0.3276 -0.0502
17148W        W33282   0.516  18.367   0.800  0.0743  0.3163  0.0451
17149W        W33283  13.863   2.896  13.923  0.1475  0.0990 -0.1659
17150W        W33284   5.544   9.793   0.682  0.1635  0.1166  0.1534
17151W        W33285  12.780   9.816   2.040 -0.0288  0.0444 -0.0595
17152W        W33286  16.401  10.143   1.504 -0.0761  0.0500  0.0411
17153W        W33287   2.956  18.553  15.183 -0.0014 -0.3129 -0.0943
17154W        W33288  19.078   2.555   3.522  0.1876  0.2316  0.1235
17155W        W33289  11.566   0.920  15.125 -0.3267  0.3254 -0.1126
17156W        W33290  16.796  12.779  14.575  0.0816 -0.1128  0.1806
17157W        W33291  14.280  15.995   9.870  0.1517  0.3916 -0.0618
17158W        W33292   9.935  18.036  10.970 -0.1325  0.1004 -0.1234
17159W        W33293  17.819  10.349  12.289  0.0888 -0.2375  0.2715
17160W        W33294  15.096   6.975   4.962  0.0158  0.3144  0.0959
17161W        W33295  13.337  16.640   4.396  0.2077  0.5346  0.2722
17162W        W33296   2.900  13.351  13.875 -0.0125 -0.1240 -0.0372
17163W        W33297   5.672   2.522   1.362 -0.0859  0.0059  0.1076
17164W        W33298   4.653   9.740  11.742  0.1007  0.2260  0.1520
17165W        W33299  11.614  14.575   3.713  0.0629 -0.5547  0.0883
17166W        W33300   5.786  17.535  12.685 -0.1244  0.0584 -0.1613
17167W        W33301   8.841   2.156   3.702  0.0733 -0.3405  0.0985
17168W        W33302  17.162   9.870  13.636 -0.2428 -0.0175 -0.0490
17169W        W33303   9.727   4.190   3.424  0.1565 -0.0192 -0.4307
17170W        W33304   8.416   7.234  10.558  0.0200 -0.0263 -0.1841
17171W        W33305   3.876   4.559   1.754 -0.2966 -0.2222 -0.0375
17172W        W33306  12.045   3.463  13.743 -0.1356  0.2513  0.1358
17173W        W33307   7.795  16.232  10.916  0.2676 -0.3395  0.2645
17174W        W33308  13.615   8.286   3.805  0.1635  0.2753  0.0203
17175W        W33309   9.780  11.800  12.334  0.1063  0.1044 -0.0110
17176W        W33310   7.974   0.113   4.332 -0.0429  0.4529 -0.0626
17177W        W33311  13.148  19.145  10.759 -0.0367  0.2738  0.0368
17178W        W33312  16.984  15.848  10.682 -0.0008 -0.0381  0.0792
17179W        W33313  10.061  16.546   1.644 -0.0525 -0.1368  0.1334
17180W        W33314  12.490  19.106   4.328 -0.2378  0.0891  0.2010
17181W        W33315  13.473  11.387  15.113 -0.0781 -0.0869  0.0363
17182W        W33316  18.495  12.603  10.826  0.0773 -0.2162 -0.4749
17183W        W33317  17.309   4.422  11.562 -0.1232  0.1853  0.1315
17184W        W33318  11.912   9.031   2.150  0.2503  0.0209 -0.1238
17185W        W33319  13.352   7.715   0.554 -0.1842 -0.2282  0.0426
17186W        W33320  14.577   9.222  12.243 -0.2804 -0.0064  0.0803
17187W        W33321  14.863   7.148  12.118  0.2949  0.0752  0.3415
17188W        W33322  13.701   1.287  13.267 -0.1662  0.2241  0.0293
17189W        W33323   7.932   1.618  10.604  0.0411  0.0201  0.1042
17190W        W33324  13.644  19.098   2.664  0.1398  0.4046  0.1144
17191W        W33325   8.488  14.582  13.941  0.1338  0.0861 -0.0214
17192W        W33326   9.662   8.915  11.566  0.0704  0.0010 -0.1103
17193W        W33327   1.269  10.912   0.585  0.3752  0.0067  0.3024
17194W        W33328  16.357   1.490  13.421  0.2436  0.2983 -0.0248
17195W        W33329   7.673  13.667  11.869 -0.2108  0.1495  0.0470
17196W        W33330  15.167  10.798   3.950  0.0914  0.0013 -0.0727
17197W        W33331  15.727  15.336   5.476 -0.1685 -0.0582  0.2230
17198W        W33332  14.810   2.567   1.678 -0.1195 -0.3396  0.0693
17199W        W33333   8.100  17.644  12.522  0.0050  0.0073  0.1043
17200W        W33334  14.702  13.721  10.402  0.0120 -0.0322  0.0903
17201W        W33335  17.781  13.694  12.776  0.0324  0.1726  0.0236
17202W        W33336   7.886  11.416  12.344  0.2375  0.2915 -0.1642
17203W        W33337   0.588   2.530  13.599  0.3605 -0.1573  0.0513
17204W        W33338  18.698   1.427   1.503 -0.0360  0.1201  0.4619
17205W        W33339   4.649  16.174   2.533 -0.1594  0.0361  0.4741
17206W        W33340   2.127   0.619   2.328 -0.7938 -0.0672 -0.2002
17207W        W33341   9.969   7.437   2.001 -0.2238  0.1636 -0.1448
17208W        W33342   1.292   9.110   3.710 -0.0136 -0.3100 -0.6285
17209W        W33343   9.909  15.223   4.205  0.1678  0.0600 -0.1841
17210W        W33344   2.045   8.588   0.885  0.3822  0.0206 -0.1663
17211W        W33345  13.344   1.856   9.771  0.0026 -0.0968 -0.1399
17212W        W33346  15.417  18.057   3.731  0.1424  0.1783  0.5720
17213W        W33347  17.363  19.083   4.826  0.0260  0.2836 -0.2214
17214W        W33348  14.283  13.416   0.412 -0.0447  0.3222 -0.3383
17215W        W33349   6.824  17.736  12.421  0.2746 -0.0580  0.1578
17216W        W33350   0.538  14.060  14.876 -0.1262 -0.3244 -0.1641
17217W        W33351   7.704   2.632  14.793  0.1899 -0.0596 -0.1753
17218W        W33352  16.676   8.260  12.185  0.0011 -0.1516 -0.1122
17219W        W33353   3.234  18.841  14.767 -0.3446 -0.2689 -0.1498
17220W        W33354  15.297  18.344  14.841 -0.1408  0.0749 -0.2647
17221W        W33355   2.082  16.063   9.711 -0.2578 -0.1735 -0.0357
17222W        W33356   2.531  15.908   3.361 -0.1067 -0.0122  0.1182
17223W        W33357  11.247  11.400   3.065  0.0561  0.1377  0.0298
17224W        W33358  11.059   4.192  11.573  0.4702  0.0482 -0.3150
17225W        W33359   0.495  17.739   1.567 -0.0412  0.1878 -0.0238
17226W        W33360   8.813  15.154  13.075  0.4427 -0.2293 -0.0454
17227W        W33361   3.186   4.553   1.123  0.0800 -0.1512 -0.2892
17228W        W33362  15.825   3.222  14.575  0.1281 -0.4242  0.0087
17229W        W33363  10.842   4.709   3.854  0.0468  0.1349 -0.4951
17230W        W33364  11.479   0.055   0.531 -0.3260  0.2125  0.1558
17231W        W33365   1.152   7.667  13.508 -0.3399 -0.2356 -0.0933
17232W        W33366   5.304   1.795  12.206  0.1543  0.3017 -0.3893
17233W        W33367   7.502   6.259  12.893 -0.1477 -0.4318 -0.5779
17234W        W33368  18.505  18.584  13.680 -0.1162  0.0011 -0.3235
17235W        W33369   9.450  18.823  10.495  0.2800  0.0430  0.0082
17236W        W33370   0.739  10.532  13.180  0.1890 -0.3600  0.0529
17237W        W33371   5.298  16.685   0.783  0.1551 -0.0691 -0.2969
17238W        W33372  12.240   3.220  13.296 -0.0523  0.0998  0.2077
17239W        W33373   1.603  10.273  11.691 -0.1992 -0.0254  0.1389
17240W        W33374  16.389  11.691  11.757 -0.0700 -0.0429 -0.2064
17241W        W33375  11.065  13.948  12.634 -0.2678 -0.0493 -0.1872
17242W        W33376   5.370   2.314   5.258  0.1549 -0.5329  0.1124
17243W        W33377   6.893  12.513   1.409  0.1495  0.1507 -0.0068
17244W        W33378   1.250   3.045  13.787  0.1816 -0.0067  0.0725
17245W        W33379   3.750  15.611  10.649  0.0261  0.0733  0.0224
17246W        W33380  10.073   1.936   4.293 -0.2866  0.1535 -0.2318
17247W        W33381  18.384   1.220  13.400 -0.1669 -0.3624 -0.0269
17248W        W33382  12.428  16.753   3.937 -0.1245  0.0991  0.1360
17249W        W33383   5.146   6.505  11.078 -0.0123 -0.0374  0.0968
17250W        W33384   2.149   1.906   3.901  0.2141  0.0157  0.0466
17251W        W33385   6.123  14.629   0.457 -0.2248  0.4544 -0.3307
17252W        W33386  13.636   9.830   3.697  0.4243 -0.2964  0.0842
17253W        W33387  18.119  15.448  11.997 -0.0693  0.1141  0.1543
17254W        W33388  11.024  15.119  13.828  0.0147  0.0073 -0.2405
17255W        W33389  10.742  14.774  13.405  0.2463 -0.1302 -0.0888
17256W        W33390  10.544   6.253   0.976  0.0060 -0.1883  0.3387
17257W        W33391  15.652   0.212  12.062 -0.0457  0.0270 -0.2456
17258W        W33392  14.849   7.310   1.353 -0.0108 -0.3589  0.1492
17259W        W33393  15.666   2.735  15.112 -0.0568 -0.0478 -0.0670
17260W        W33394   7.894   4.279   0.818  0.1060 -0.1991 -0.0448
17261W        W33395   1.796  18.094   2.195  0.1892  0.2770  0.3424
17262W        W33396  16.408  14.553   1.745  0.0515  0.1903 -0.2723
17263W        W33397   2.685  14.517  13.254 -0.1417 -0.1890 -0.0389
17264W        W33398   2.641  17.826   2.058 -0.1759  0.3016 -0.1739
17265W        W33399   0.131  15.696   9.225  0.0516 -0.3529  0.0536
17266W        W33400   9.898   7.299   0.228  0.1730 -0.3958 -0.1285
17267W        W33401  18.782   1.265   3.754 -0.0608  0.2561  0.0412
17268W        W33402  16.800  15.555  13.148  0.0132  0.0033  0.0910
17269W        W33403   8.911   1.034   4.708 -0.1014  0.2686 -0.3688
17270W        W33404   0.808  12.012   2.932  0.1278 -0.1132  0.0478
17271W        W33405  15.801  15.803  13.023 -0.0750  0.3612  0.0189
17272W        W33406   5.641  17.437   0.424 -0.2679 -0.1786  0.0994
17273W        W33407   7.336  12.233   3.075  0.4077  0.1107  0.2106
17274W        W33408   0.589   9.924  12.504 -0.0461  0.2411 -0.1225
17275W        W33409   7.324  11.243   1.744 -0.1345  0.0589 -0.1361
17276W        W33410   1.326   5.077   3.449 -0.2637 -0.0275  0.0032
17277W        W33411   0.301   3.849   3.904 -0.2579  0.1893  0.1646
17278W        W33412  13.735   7.317   2.647  0.0180 -0.2221  0.0457
17279W        W33413   8.081   0.800  10.384 -0.0770 -0.0362  0.1229
17280W        W33414   8.196  14.319  14.400 -0.0355  0.1126 -0.2788
17281W        W33415   8.065  18.244  13.345 -0.3018  0.0004 -0.5217
17282W        W33416   3.213  16.782  12.394  0.1702 -0.0136  0.0488
17283W        W33417  10.433   7.874   4.337  0.1855  0.3387 -0.0233
17284W        W33418   8.166   8.319  12.374  0.0236 -0.0409 -0.0306
17285W        W33419   3.111   6.243   4.688  0.0568 -0.1366 -0.0916
17286W        W33420  16.406  15.792   9.902  0.0208  0.0641  0.3043
17287W        W33421  17.996   8.474  12.197 -0.1368 -0.0900  0.0959
17288W        W33422  14.031   4.424  11.776  0.2406  0.0032 -0.3737
17289W        W33423  15.101  18.272   1.697  0.1892 -0.3505 -0.0648
17290W        W33424  10.666   0.866   2.361 -0.2698  0.1060  0.0660
17291W        W33425   7.657  13.250   6.147  0.1630 -0.1489 -0.3850
17292W        W33426   8.983  13.998   1.590  0.0186 -0.2366  0.1137
17293W        W33427   2.330   5.492   2.884  0.1322 -0.1222 -0.0919
17294W        W33428   1.222  17.703  13.473 -0.2345 -0.2912 -0.0857
17295W        W33429  13.920  12.260   1.853  0.1346  0.3637 -0.0906
17296W        W33430  10.339  18.884   1.438  0.0216  0.0614 -0.0421
17297W        W33431   2.931   8.677   1.962 -0.0046  0.0999 -0.0519
17298W        W33432  16.188   0.141   6.260  0.0248  0.2533  0.1465
17299W        W33433  17.707   2.326   5.576  0.1807 -0.1025  0.2861
17300W        W33434   0.051  12.916  12.657 -0.3120 -0.0036  0.0605
17301W        W33435  10.695  14.694  11.248 -0.0082 -0.2872 -0.1998
17302W        W33436   9.232  16.290   2.646 -0.2954  0.2879  0.0017
17303W        W33437   6.113   1.670  11.410 -0.2487  0.1028  0.0216
17304W        W33438   3.546  10.912  13.381 -0.3209  0.0299 -0.0813
17305W        W33439   6.408   9.158  14.299 -0.0430  0.3349  0.3192
17306W        W33440   2.401  13.779   3.768 -0.3689  0.2935 -0.2546
17307W        W33441   4.915   2.620  14.067 -0.2643  0.1054 -0.3657
17308W        W33442  14.683  13.669   3.221 -0.0187  0.2225  0.0060
17309W        W33443   9.335  13.956  13.562  0.1418 -0.1014 -0.1067
17310W        W33444  14.367  13.012   2.081 -0.0415  0.0696 -0.2515
17311W        W33445  18.134  17.666  13.811  0.1249 -0.2070  0.2655
17312W        W33446  10.476   0.250   0.321  0.3778  0.1555 -0.1206
17313W        W33447   7.585   8.097  11.959 -0.4022 -0.0121 -0.0499
17314W        W33448  16.364  16.136   4.532  0.0276 -0.0772  0.0398
17315W        W33449  13.402   5.015   2.972 -0.2157 -0.1180 -0.5183
17316W        W33450   1.190  12.532   2.408  0.1816 -0.0493 -0.2965
17317W        W33451   3.662   3.451   3.602 -0.0095  0.0831  0.2013
17318W        W33452   9.989   0.086   4.263 -0.0092  0.0132 -0.1205
17319W        W33453  12.582  14.032   0.753  0.1551  0.0738  0.1228
17320W        W33454   9.088  16.892   4.359 -0.1500  0.2967  0.2152
17321W        W33455   1.326   3.375   2.203 -0.1691 -0.0609 -0.0632
17322W        W33456   5.084  18.513  13.931  0.0795  0.2131  0.0369
17323W        W33457   0.703   6.639  12.552 -0.0973 -0.0620  0.0058
17324W        W33458  11.217   7.069   5.053  0.2506 -0.2008  0.1977
17325W        W33459   9.058   9.123   0.116 -0.1906 -0.2357  0.2337
17326W        W33460  14.726   6.929   2.363  0.0101 -0.0168 -0.0287
17327W        W33461  12.433   9.128   4.240 -0.0539 -0.2720 -0.0469
17328W        W33462   9.353  11.364  15.186  0.0040  0.1925 -0.1518
17329W        W33463  13.842   8.936  12.712  0.0055 -0.2259  0.0126
17330W        W33464  15.949   4.544   0.349  0.1061  0.3969  0.2521
17331W        W33465  12.660  13.922   4.380  0.3557 -0.3659 -0.1035
17332W        W33466   7.777  12.615  10.433 -0.0853 -0.0969 -0.0776
17333W        W33467   3.658   6.065   2.739  0.2394 -0.1903 -0.1676
17334W        W33468   7.828   7.625  11.809 -0.0985  0.1386  0.4080
17335W        W33469   9.234  14.351  12.279  0.1377  0.1946  0.2541
17336W        W33470  18.159  15.142   4.031 -0.4814  0.1341  0.2787
17337W        W33471   9.168  10.658   4.687  0.0362  0.0706 -0.2637
17338W        W33472  18.761   3.737  11.655  0.0942  0.0017 -0.0597
17339W        W33473   9.333   0.249  14.414 -0.2264 -0.0112  0.1098
17340W        W33474   5.754  16.425   0.850 -0.0336  0.0876  0.0330
17341W        W33475   7.304  18.065   3.440 -0.0404  0.0877  0.0203
17342W        W33476  17.372  12.062   1.260  0.0403  0.1758 -0.3522
17343W        W33477   3.357   4.598  12.350  0.0918  0.2412 -0.3325
17344W        W33478   0.115  10.236  15.079  0.0374  0.0419  0.0887
17345W        W33479   6.581  12.166  10.277  0.0616  0.0652 -0.2029
17346W        W33480   4.272  12.799   4.470  0.0455 -0.0413 -0.1920
17347W        W33481   0.438   5.498   4.666  0.1600 -0.0880  0.0377
17348W        W33482   4.306   3.552   3.233 -0.3301 -0.1601  0.2199
17349W        W33483   6.653  12.405   2.800 -0.0254  0.5906  0.0630
17350W        W33484  17.164  12.120   2.113  0.0586  0.1257  0.0667
17351W        W33485  12.161  15.411  13.363 -0.2121 -0.1926  0.2845
17352W        W33486  13.206  16.684  11.206 -0.1496 -0.2097  0.2609
17353W        W33487  11.351   5.268   1.772 -0.0541  0.2518 -0.1778
17354W        W33488   7.634  14.377  11.484 -0.1114  0.1317 -0.1293
17355W        W33489   2.159  14.619  11.546 -0.2200  0.2912 -0.1573
17356W        W33490   8.724  18.367  10.649 -0.5773 -0.0826  0.1911
17357W        W33491  16.964   6.605  12.071  0.1910 -0.1917  0.0890
17358W        W33492  16.600   6.206   3.699  0.0017  0.0258  0.1111
17359W        W33493  13.146  13.063   0.694  0.1676  0.1840 -0.1629
17360W        W33494   9.122   1.464   3.146  0.1168  0.0270  0.0550
17361W        W33495  11.883  18.456  12.557 -0.1331  0.0889  0.0054
17362W        W33496  17.328   5.233  12.772  0.3095  0.3174 -0.2123
17363W        W33497   9.943   3.282   4.595 -0.0745  0.0544 -0.2058
17364W        W33498   7.885   2.882  13.215 -0.1096  0.0216 -0.3271
17365W        W33499  18.106   3.481   0.739 -0.0848 -0.1457 -0.1527
17366W        W33500   0.352  16.164  10.869  0.2644  0.0309  0.0864
17367W        W33501   5.824  18.421  12.559  0.0750 -0.2270  0.2687
17368W        W33502  19.126   7.506  14.746 -0.1846  0.0921 -0.0737
17369W        W33503   7.216   0.299  11.796  0.0579 -0.1113  0.1182
17370W        W33504   8.623   2.016   5.020 -0.0155  0.0916 -0.2849
17371W        W33505   7.995  12.404  12.257 -0.0063 -0.0561 -0.0541
17372W        W33506  12.589  17.121   9.386  0.0136 -0.2572  0.1976
17373W        W33507   8.616  13.870   4.273 -0.1022 -0.2149  0.1171
17374W        W33508  12.583   5.009   3.260 -0.2041 -0.0561 -0.3014
17375W        W33509   6.185   8.948   1.798 -0.1047 -0.1348 -0.3212
17376W        W33510   2.076   5.903   1.016  0.3172 -0.2074  0.0682
17377W        W33511  12.473   8.068  14.623 -0.0025  0.1865  0.1960
17378W        W33512   7.922   1.485   1.782 -0.1444  0.1623 -0.3675
17379W        W33513   4.322   8.021   4.440  0.1026  0.2446  0.0622
17380W        W33514  13.523   8.257  14.390 -0.0460 -0.1044 -0.2038
17381W        W33515  17.135   6.660   0.681 -0.2730  0.0970  0.1172
17382W        W33516  16.478  17.197  12.160 -0.1848  0.2119 -0.1788
17383W        W33517  15.191  12.844   3.985  0.2045  0.0848 -0.0836
17384W        W33518  14.381   1.806  12.171  0.1413 -0.2711  0.4453
17385W        W33519  15.610  16.935  12.578 -0.2450  0.0550 -0.1283
17386W        W33520   8.991  15.127  13.633 -0.0899 -0.3145  0.1964
17387W        W33521  15.938   2.326   1.870  0.0513 -0.1436  0.0010
17388W        W33522  12.954   3.890   3.690  0.2168 -0.0279  0.1541
17389W        W33523   9.661   9.666   4.346 -0.0732 -0.2311 -0.1179
17390W        W33524   3.865   5.414   0.514  0.0592 -0.2516  0.1200
17391W        W33525  18.252   1.604  13.784 -0.1816  0.0001 -0.2865
17392W        W33526   1.979  17.271   3.319  0.2038 -0.1393 -0.4788
17393W        W33527  15.756   4.536   3.567  0.0691 -0.0907 -0.1106
17394W        W33528   3.849   2.076  12.394  0.0557  0.1125 -0.0960
17395W        W33529   4.525  16.931  14.128  0.0582  0.0736 -0.3005
17396W        W33530   5.292   5.190   1.098  0.0199  0.0877  0.1205
17397W        W33531  11.478   1.925  10.788 -0.0770  0.2695  0.0374
17398W        W33532  10.695  11.774  13.977 -0.1248 -0.0357 -0.1820
17399W        W33533   0.321   5.385   2.531  0.1779 -0.1052  0.2374
17400W        W33534  11.569   2.661  13.974  0.3418  0.0070 -0.2974
17401W        W33535   2.434  14.285  14.742  0.0859 -0.1100  0.0860
17402W        W33536   9.331   4.001  11.858  0.1404 -0.0669 -0.3102
17403W        W33537  15.633   7.685  12.339 -0.6031  0.0623  0.1089
17404W        W33538  17.869   2.526  11.511  0.0168 -0.0900  0.0553
17405W        W33539  12.029  10.127  11.484 -0.0468 -0.0683  0.0588
17406W        W33540  14.033  16.149   4.032  0.2485  0.3490 -0.0508
17407W        W33541  15.584  15.107  10.123 -0.2708  0.6474 -0.0596
17408W        W33542  16.586  16.297   2.614 -0.0319  0.1720  0.3785
17409W        W33543   9.695  18.640   2.091 -0.1290  0.0999  0.0190
17410W        W33544  15.637  15.534   1.193 -0.1216 -0.0413  0.0127
17411W        W33545  11.948   1.406  11.351 -0.0383 -0.0290 -0.1543
17412W        W33546  11.381   0.871   3.289 -0.4759 -0.2070 -0.0549
17413W        W33547  17.650   1.126  14.832 -0.3274  0.3362 -0.2195
17414W        W33548  13.575   6.115  11.639 -0.0481 -0.0502  0.0139
17415W        W33549  10.191  14.195   5.187  0.0938  0.0382 -0.0019
17416W        W33550  18.324   1.744  13.274  0.0562  0.3992 -0.1174
17417W        W33551   7.572   6.143  14.356 -0.0625 -0.0524  0.0091
17418W        W33552   3.451  18.329   1.152  0.0531  0.0903 -0.2121
17419W        W33553   2.007  16.990   5.216  0.2570  0.0013 -0.3393
17420W        W33554   4.072   0.882   0.833 -0.1531  0.0041  0.3125
17421W        W33555  10.239  17.155   0.200 -0.1584  0.3576 -0.3727
17422W        W33556  11.685  12.429  12.690  0.0400  0.0858 -0.1443
17423W        W33557   4.258  18.098   1.098  0.1378 -0.1239 -0.2043
17424W        W33558   6.490   0.001  10.700 -0.1556  0.1088  0.2512
17425W        W33559   4.224  13.453   3.524 -0.1665  0.0408 -0.0594
17426W        W33560   3.365   9.654   1.754  0.0791 -0.0133  0.0707
17427W        W33561   1.253  12.682  12.331 -0.1248 -0.0114  0.1161
17428W        W33562   3.311  13.326  15.191  0.0628 -0.3211 -0.2673
17429W        W33563   2.686   6.569   0.483  0.2205 -0.0895  0.0501
17430W        W33564  12.261   9.336   1.928  0.1007 -0.0355  0.0090
17431W        W33565  12.779  14.256   1.856 -0.0756  0.1594  0.0609
17432W        W33566   9.694   3.803  12.887 -0.1769 -0.0831  0.0669
17433W        W33567  12.544  13.915  12.229  0.1307  0.0695 -0.1853
17434W        W33568  17.904  15.339  14.612  0.2183 -0.1338  0.2885
17435W        W33569   1.769   3.327  11.309  0.1395 -0.1958 -0.2239
17436W        W33570   7.246  18.958   3.099  0.2533 -0.4854 -0.0974
17437W        W33571   7.569  18.590  11.516  0.0494  0.3238  0.0571
17438W        W33572  17.401  18.093   1.184  0.0462 -0.1975 -0.2249
17439W        W33573  19.065  14.107  12.811  0.3917  0.0232  0.1335
17440W        W33574   4.200  14.131   0.964  0.1983 -0.0193  0.2081
17441W        W33575   1.198   5.733   0.056  0.1852 -0.2872  0.2123
17442W        W33576  14.425  10.879  14.974  0.2814 -0.0810  0.1501
17443W        W33577   1.200   2.938  14.320 -0.0980  0.0105 -0.1076
17444W        W33578  14.876  15.513   1.300 -0.0273 -0.0396 -0.0735
17445W        W33579  13.500   8.165   0.240  0.1091 -0.3956 -0.0516
17446W        W33580   1.280  12.431   4.724  0.0897  0.2205 -0.1525
17447W        W33581   8.017  11.417   4.283  0.0840  0.1089 -0.0187
17448W        W33582   5.651   2.359   4.051 -0.1796  0.2674  0.1428
17449W        W33583  14.241   3.675   5.203 -0.1710  0.0887 -0.0555
17450W        W33584  14.555  11.261   5.152 -0.0281  0.1645  0.0575
17451W        W33585   8.025  10.999   0.041 -0.0746 -0.2893  0.4482
17452W        W33586  17.745  13.367  11.219 -0.0120  0.0246  0.0582
17453W        W33587   2.698   7.647   0.345  0.0778  0.1291 -0.2193
17454W        W33588  12.544   6.086  13.609  0.0121  0.1825  0.0701
17455W        W33589  15.599  10.627   1.150 -0.0247 -0.3133  0.0553
17456W        W33590   8.308   4.373  14.015  0.1382  0.2587  0.0605
17457W        W33591   8.780   0.459  13.169 -0.0277 -0.4591 -0.1529
17458W        W33592   2.280   1.578   1.124  0.1347  0.0020 -0.0939
17459W        W33593   8.522   9.237  12.369 -0.1230  0.0034 -0.1134
17460W        W33594   0.964  14.633   4.709  0.0293 -0.0050  0.2468
17461W        W33595   3.184   7.828   2.327  0.3103 -0.1651  0.3598
17462W        W33596  14.093  13.001   0.733 -0.1240  0.2276  0.0822
17463W        W33597   3.948   5.926   1.746  0.0992 -0.0149  0.2304
17464W        W33598  10.041  17.972   3.958  0.0369  0.0692  0.3034
17465W        W33599  16.630  12.503   5.286 -0.3147 -0.3365 -0.3675
17466W        W33600  12.577   5.778   3.070 -0.4172 -0.0657 -0.0318
17467W        W33601  18.232   7.462   0.097 -0.0902  0.3123  0.2300
17468W        W33602   8.981  11.646   2.678  0.4566  0.3445 -0.0135
17469W        W33603  12.700   0.770  14.549  0.0677 -0.1801  0.0808
17470W        W33604   3.308  10.480   2.506 -0.2407 -0.1066 -0.0410
17471W        W33605   7.170   6.495   4.206  0.1643  0.1218  0.1793
17472W        W33606  17.348   5.010   3.796 -0.1855  0.1950  0.2368
17473W        W33607   1.383  10.092   1.689 -0.1059 -0.1755 -0.0185
17474W        W33608  14.884   9.717  10.825  0.2013 -0.1643  0.1570
17475W        W33609  10.519   5.668   4.173 -0.3558  0.0018  0.0846
17476W        W33610  16.441   4.483  14.850  0.1571 -0.1642  0.2049
17477W        W33611  11.702   7.962  11.630 -0.3212 -0.2647 -0.1309
17478W        W33612  13.761   3.041  14.986 -0.0093  0.0942  0.4611
17479W        W33613   4.045   3.147   1.134 -0.0340  0.1282 -0.0445
17480W        W33614   8.201  15.962  11.776  0.1340 -0.1347 -0.2327
17481W        W33615  15.542  13.719  12.766  0.1286 -0.2510 -0.0417
17482W        W33616   6.749   0.566   3.123 -0.1141 -0.2700 -0.0629
17483W        W33617   7.482  13.509   0.693  0.1420 -0.1106 -0.0988
17484W        W33618   1.592  16.709   6.080  0.1901  0.1465 -0.1226
17485W        W33619  14.774   6.769   1.324 -0.1025  0.1280  0.0179
17486W        W33620   6.235   2.311  12.075  0.0753 -0.1025 -0.0013
17487W        W33621  17.749   1.633  15.175 -0.0413  0.1392  0.0881
17488W        W33622  12.293  18.515  11.571  0.2317 -0.2296 -0.0886
17489W        W33623   0.019   3.845  13.952 -0.4250  0.1218 -0.0665
17490W        W33624   5.426   3.918  13.198 -0.0716  0.2452  0.1306
17491W        W33625   9.041   8.381   1.077 -0.1136  0.1643 -0.1977
17492W        W33626  13.248  14.512   1.760  0.3135  0.0697 -0.0244
17493W        W33627   0.274   1.743   5.132  0.2343  0.0687 -0.0166
17494W        W33628  16.928  12.405   2.574  0.1047  0.2763  0.3330
17495W        W33629   1.822   9.237  11.679 -0.1558 -0.0545 -0.2126
17496W        W33630  16.919  11.383  11.049 -0.1934 -0.0607  0.0355
17497W        W33631  11.259   5.028   3.754 -0.3795 -0.0218  0.0614
17498W        W33632   7.626  10.010  13.730 -0.1463 -0.1384  0.0432
17499W        W33633  13.026  11.314   2.116  0.0668 -0.4007 -0.3626
17500W        W33634   2.279   5.963  14.362  0.0756  0.1061  0.0223
17501W        W33635   2.061  10.994   0.906 -0.0212  0.0029 -0.1618
17502W        W33636   3.687  16.684  13.428  0.1413 -0.0180  0.0685
17503W        W33637   3.531   5.470  13.332  0.3217  0.0203 -0.0446
17504W        W33638  15.966   7.708   4.488 -0.0814  0.1168 -0.0703
17505W        W33639   5.408  16.093  13.352  0.0158  0.2342  0.0285
17506W        W33640  11.833  12.390   2.971 -0.2434  0.0081  0.1733
17507W        W33641   7.082  17.317   3.945 -0.4157 -0.2984  0.0226
17508W        W33642  14.196  17.884   0.326  0.3407  0.0846  0.0752
17509W        W33643   8.279  13.791   3.148  0.0903 -0.2291 -0.1652
17510W        W33644   1.427   7.067  11.855  0.2069 -0.2997 -0.2180
17511W        W33645   4.836   7.523  10.118 -0.0119 -0.0948  0.1790
17512W        W33646   1.823   2.485   2.326 -0.1338  0.3015  0.2234
17513W        W33647  15.219   1.052  14.381 -0.0164 -0.1656  0.0442
17514W        W33648  18.356   4.827   0.677 -0.1543 -0.1111  0.1052
17515W        W33649  11.454   7.195   1.992 -0.1171 -0.1421  0.1186
17516W        W33650  17.720   2.998   4.575 -0.2006 -0.0139  0.0557
17517W        W33651  17.205   7.742  10.155 -0.2202  0.2768  0.2059
17518W        W33652   4.471   5.448  13.689 -0.1271 -0.2371  0.0813
17519W        W33653   9.149  13.663   3.662  0.4044  0.2603  0.0770
17520W        W33654  17.133   8.289  13.228  0.2117  0.0810  0.1252
17521W        W33655  18.575  14.322  10.991 -0.1323 -0.0246 -0.0666
17522W        W33656  10.173   0.402   2.059 -0.1175 -0.4058  0.3825
17523W        W33657   8.759   4.867   1.996  0.1199 -0.1010  0.0321
17524W        W33658   4.718  18.252  11.435 -0.0899  0.1050  0.0773
17525W        W33659   7.958   2.675   5.306  0.2590 -0.0013  0.0897
17526W        W33660   9.586  17.533   3.237 -0.3701  0.1339  0.2330
17527W        W33661   3.215  12.034   5.498 -0.0028 -0.0271 -0.1510
17528W        W33662  11.839   2.787   1.136  0.0143  0.1599 -0.0566
17529W        W33663  13.692   4.415  10.698  0.0807  0.0451  0.4105
17530W        W33664   2.775   6.453  11.484 -0.2009 -0.4472 -0.1893
17531W        W33665   5.049   5.481   1.488 -0.0964  0.0423  0.1793
17532W        W33666  12.202  11.685   1.375  0.1561 -0.3094 -0.0139
17533W        W33667  17.296   2.367  13.247  0.0678 -0.1756  0.0073
17534W        W33668   5.704  18.148   0.112  0.0262 -0.0589  0.4691
17535W        W33669  16.705   1.362   1.846 -0.1386 -0.1429 -0.1672
17536W        W33670   1.212  12.795  15.137 -0.0872 -0.1461 -0.3618
17537W        W33671  13.579  10.298  11.612 -0.0334  0.0429  0.2636
17538W        W33672   5.138  10.883  12.868  0.0920  0.2675  0.4778
17539W        W33673  11.012  16.064  13.884  0.1012 -0.1580  0.4746
17540W        W33674  12.278   7.982   5.121  0.3261 -0.2682 -0.0747
17541W        W33675   7.112   9.750   4.348 -0.1485  0.1157 -0.0490
17542W        W33676  16.592  12.463   3.465 -0.0981  0.0399 -0.1850
17543W        W33677   6.516   6.893  13.720 -0.0764  0.1821 -0.2503
17544W        W33678   8.449   6.916   1.977  0.2892 -0.0077  0.2060
17545W        W33679   4.839  13.503  14.983 -0.0754  0.1725  0.0819
17546W        W33680  13.577   9.894   0.391  0.1288  0.2605 -0.1685
17547W        W33681  16.024  13.075  10.746  0.0659  0.0246  0.2016
17548W        W33682   7.690   4.289   5.357 -0.1737  0.1958 -0.0033
17549W        W33683   1.899   5.657  11.023  0.0021  0.1177  0.0182
17550W        W33684  13.491   9.080   1.299 -0.1401 -0.1244  0.2468
17551W        W33685  13.656  18.893  12.642 -0.0858 -0.0120  0.1326
17552W        W33686   3.032  18.328   1.408  0.1964  0.1271 -0.0364
17553W        W33687   3.696  10.138   1.857 -0.0045  0.0948 -0.0314
17554W        W33688  18.648   0.630   2.403  0.0281  0.0354  0.3550
17555W        W33689  11.326  13.362  14.544  0.4453 -0.3690 -0.1511
17556W        W33690   8.882   9.960   0.832 -0.0169  0.2644 -0.2387
17557W        W33691   1.242  18.230   4.064  0.0937  0.2657  0.2113
17558W        W33692  11.533   9.135  12.682 -0.2466 -0.1110 -0.0001
17559W        W33693  17.796  15.142   1.577  0.1606 -0.1651 -0.0386
17560W        W33694   8.986  11.416   4.701 -0.0185 -0.2446 -0.1934
17561W        W33695   3.947  13.441  11.776 -0.1085 -0.1957  0.0957
17562W        W33696   7.826   6.868  14.963  0.4465 -0.1053 -0.0851
17563W        W33697   1.885   6.294   4.333  0.1895  0.1106 -0.1310
17564W        W33698   3.445  13.189   4.481  0.3444 -0.1789 -0.1849
17565W        W33699   7.020  15.845   4.100 -0.0407 -0.0850  0.0713
17566W        W33700   7.262  15.485  15.069  0.1135 -0.0725  0.0029
17567W        W33701   9.328  18.355   3.718  0.3142 -0.0492  0.0742
17568W        W33702   9.413  13.968  14.089  0.0828 -0.2959 -0.2071
17569W        W33703  10.923   5.722  12.024 -0.1629  0.0452 -0.2586
17570W        W33704   0.872  15.866  13.588  0.0303  0.0641 -0.1495
17571W        W33705   2.858   8.061   0.409 -0.0605 -0.0899  0.0392
17572W        W33706  12.708   1.053  15.018 -0.2171 -0.0671  0.0208
17573W        W33707  18.848   2.408  11.537  0.3778 -0.2466  0.0690
17574W        W33708   7.161  10.913   3.296  0.2525 -0.5329  0.0768
17575W        W33709  10.360   2.169   0.004 -0.0872  0.0906 -0.0367
17576W        W33710   0.602   2.578  11.241  0.1287 -0.3586  0.2370
17577W        W33711  18.991  17.787   0.880 -0.1277 -0.0862  0.0309
17578W        W33712   5.921  17.911  11.866 -0.3093  0.0782  0.1435
17579W        W33713   5.283   5.435   2.753  0.0406  0.1024 -0.1920
17580W        W33714   8.772  11.322   1.316  0.3676 -0.1675  0.0287
17581W        W33715  15.144   3.779  10.927 -0.2449 -0.3233  0.0810
17582W        W33716   8.932   2.365   1.242 -0.1333 -0.0439 -0.1986
17583W        W33717  16.490   7.485  13.776 -0.1138  0.1231  0.2979
17584W        W33718  16.303   0.277  10.884 -0.0233 -0.0540  0.3843
17585W        W33719   0.271  15.005  11.514  0.5369 -0.0516 -0.2203
17586W        W33720  17.722  17.169  12.681 -0.0872 -0.3324 -0.0730
17587W        W33721  11.770   3.487  10.100 -0.0979 -0.1437  0.3461
17588W        W33722  17.161  11.184   1.018  0.1589 -0.1040 -0.0249
17589W        W33723   5.839   5.917   2.145  0.0950 -0.0047  0.0089
17590W        W33724   3.831  14.054  13.714 -0.2158  0.3227 -0.1052
17591W        W33725   6.245   3.852   1.812  0.0043 -0.0819  0.0637
17592W        W33726   3.983   1.729  11.760 -0.0039 -0.1223  0.0197
17593W        W33727  10.209   8.263   2.189  0.0203 -0.0474  0.2057
17594W        W33728  10.127  18.993   3.783 -0.1621  0.0742  0.2512
17595W        W33729  11.378  17.338  11.886  0.0011  0.2932 -0.0216
17596W        W33730   3.207  15.532   4.792 -0.1644 -0.0247 -0.1327
17597W        W33731   1.642  15.948   2.707 -0.1245 -0.2958  0.0223
17598W        W33732  14.811   0.364   4.385 -0.2220 -0.0667 -0.1980
17599W        W33733   1.089   0.913  13.411 -0.0579  0.0001 -0.1003
17600W        W33734  13.236  17.087  12.069  0.1511 -0.1421 -0.0094
17601W        W33735  17.827   0.035  15.199 -0.1810  0.1691 -0.0608
17602W        W33736  14.659  12.058   1.692 -0.0572  0.0030  0.1142
17603W        W33737   3.475  15.316  12.352  0.0435 -0.2951  0.2030
17604W        W33738   5.360   6.115   5.589 -0.0993  0.2087 -0.3195
17605W        W33739  10.462   6.167   1.485  0.1132  0.0443 -0.1149
17606W        W33740   8.097   9.434   4.289  0.0334 -0.2648 -0.2879
17607W        W33741  10.035  16.488   4.646 -0.4155  0.0401 -0.2210
17608W        W33742  14.395  15.315  14.756  0.0358 -0.0465 -0.0070
17609W        W33743  12.741   2.528  13.795  0.1885 -0.2316 -0.3890
17610W        W33744   0.151   1.436  11.079  0.3001  0.0561 -0.0342
17611W        W33745   1.326  15.391   1.271  0.2165 -0.0255  0.0824
17612W        W33746   7.960   6.393  15.127 -0.0399  0.1821 -0.2741
17613W        W33747   7.115   4.566  10.325  0.0903  0.3571  0.0739
17614W        W33748   5.551  12.294  13.316  0.1438 -0.0319 -0.0846
17615W        W33749   8.439  16.494   2.086  0.0442 -0.0794 -0.0445
17616W        W33750   0.514   8.099   0.994 -0.1144 -0.0960  0.1312
17617W        W33751   3.809   1.321   1.653 -0.0830  0.0877  0.1234
17618W        W33752  13.230  10.930  13.611  0.1081 -0.0849  0.0869
17619W        W33753   5.009   4.614  10.816 -0.1552  0.0383  0.1521
17620W        W33754  13.221  17.799  10.785  0.2241  0.5595 -0.1093
17621W        W33755  18.538  12.659  14.824 -0.1626  0.0407 -0.3839
17622W        W33756   4.091  15.923  11.557 -0.1557  0.1459  0.4093
17623W        W33757  11.090   0.252  15.138  0.0030 -0.4915 -0.0597
17624W        W33758  13.519  17.435  10.886  0.0759 -0.0401  0.0193
17625W        W33759   4.285  15.410  10.677 -0.0213  0.2853  0.2388
17626W        W33760  10.193  15.524  14.215 -0.0393  0.0007  0.0233
17627W        W33761  16.458  17.786   0.274 -0.2341  0.4267 -0.2180
17628W        W33762  10.023   4.495   0.937 -0.0795  0.0147 -0.3437
17629W        W33763  12.019  15.606   3.610  0.1248 -0.3111 -0.2564
17630W        W33764   9.283  18.604   0.385  0.0555  0.2314 -0.2402
17631W        W33765   6.402  15.904  15.006  0.4375 -0.0263  0.2754
17632W        W33766   4.686   2.167  12.077 -0.0866  0.4618 -0.0195
17633W        W33767  16.303  14.476  15.094  0.1580 -0.0125 -0.3211
17634W        W33768   0.744  16.896   1.077  0.1480 -0.1793 -0.1527
17635W        W33769   5.283  12.273   0.741  0.0487  0.2856 -0.0005
17636W        W33770   7.098  18.307   1.794 -0.2732  0.1845  0.0118
17637W        W33771  16.983  12.403  11.881 -0.0274 -0.2162  0.0498
17638W        W33772   1.810   0.883  10.031  0.0941  0.3377  0.0063
17639W        W33773   6.002   2.798  13.142  0.0953  0.3192 -0.3039
17640W        W33774   1.067  14.102  11.050  0.1683  0.2354  0.0312
17641W        W33775   6.426  13.617   3.719 -0.4508 -0.1399  0.1741
17642W        W33776  12.818   0.193  12.371  0.0376 -0.0370  0.1514
17643W        W33777   6.661   2.926   4.817  0.0899  0.1408  0.0676
17644W        W33778  12.756  11.751   2.258 -0.1336  0.3482 -0.0507
17645W        W33779  13.927   5.594  12.921  0.2825  0.0746 -0.2180
17646W        W33780  13.116   3.765  12.107 -0.1065  0.2599  0.1654
17647W        W33781   7.113   8.798  10.065 -0.4907 -0.1268  0.2865
17648W        W33782  14.392  18.907  11.766  0.2021 -0.3524  0.3117
17649W        W33783   3.076  16.666  10.942  0.1751 -0.3532 -0.2371
17650W        W33784   3.299   2.476   0.167 -0.0045  0.1016  0.4788
17651W        W33785  16.474   0.861   0.726  0.1728  0.3744  0.2137
17652W        W33786  12.373   4.065   5.405  0.2619 -0.1599 -0.0209
17653W        W33787  10.679   4.647   2.167 -0.4156 -0.2696 -0.0040
17654W        W33788  12.629  15.746  14.144  0.4129 -0.1775 -0.3213
17655W        W33789   2.829   8.654  12.091  0.0580 -0.3911  0.0406
17656W        W33790  10.706  17.560  13.702 -0.2051  0.1482  0.0020
17657W        W33791  15.810  18.909  11.000 -0.1162  0.2238  0.0986
17658W        W33792   9.031   5.691   1.645  0.0920 -0.2918  0.2564
17659W        W33793   9.876  11.970  14.381 -0.0230  0.0544  0.0959
17660W        W33794  15.467  16.195  14.954 -0.0905  0.1529 -0.0759
17661W        W33795   3.014   6.864  12.503 -0.2065  0.0186  0.0756
17662W        W33796  14.933  10.652   5.273 -0.0259  0.2061  0.0357
17663W        W33797   4.819   4.470   3.085  0.2577 -0.2168  0.0152
17664W        W33798   0.390  17.022  10.985  0.3621  0.0105  0.1889
17665W        W33799  17.321   6.454  14.582  0.3505 -0.3076  0.0396
17666W        W33800   9.827   9.199   4.991 -0.4325 -0.2191 -0.0716
17667W        W33801  16.934   2.482   1.677  0.2259  0.1032 -0.1318
17668W        W33802  10.467  15.168   0.759  0.1327  0.0207 -0.0807
17669W        W33803  12.340  12.917   4.485  0.2430  0.4274  0.0074
17670W        W33804   3.141  16.640   1.614 -0.1819  0.2952  0.1205
17671W        W33805  13.824   4.666  15.077  0.0982 -0.0750 -0.0916
17672W        W33806   2.504   2.454  11.139  0.1446 -0.0523  0.1288
17673W        W33807   8.077  18.810   1.826 -0.0381 -0.3049  0.1727
17674W        W33808  13.730   3.725  15.094  0.1897 -0.0267  0.2127
17675W        W33809  17.084  11.541   0.018 -0.0720  0.2257 -0.1802
17676W        W33810  15.135   2.935   1.587 -0.1562  0.3643  0.1926
17677W        W33811   9.376   5.892  14.499 -0.1817  0.0362  0.2054
17678W        W33812  12.418  16.216  14.003  0.0944 -0.0354  0.0072
17679W        W33813   6.199   4.071   5.679  0.2322  0.0505  0.1845
17680W        W33814   8.348   1.349  10.395  0.1513 -0.1266 -0.0832
17681W        W33815   8.593  13.571  12.438  0.1078  0.3048 -0.2871
17682W        W33816  17.529   1.768   5.182 -0.0015 -0.0679 -0.3584
17683W        W33817  11.797   8.319   0.818 -0.0603 -0.3784  0.0765
17684W        W33818   4.413  10.643  12.871 -0.0446  0.0720  0.1111
17685W        W33819   5.580  18.417  11.178  0.0449 -0.1675 -0.3189
17686W        W33820   8.380  11.920  13.660 -0.1463  0.2738 -0.0809
17687W        W33821   6.439   4.234  13.096  0.2403 -0.2485  0.1838
17688W        W33822   7.748   5.165   0.655 -0.0191 -0.1990 -0.1091
17689W        W33823   0.797  10.562  11.299 -0.0494  0.2074  0.0538
17690W        W33824  17.313   5.065  12.214 -0.0324 -0.0102 -0.3811
17691W        W33825   5.777   5.867   4.127 -0.0465 -0.0998 -0.2238
17692W        W33826   7.569  12.632   2.946  0.4256 -0.2402 -0.3455
17693W        W33827   4.120   0.816  13.428  0.1884  0.1358 -0.0563
17694W        W33828   5.201  10.656  14.578  0.1143  0.1845  0.3694
17695W        W33829   0.947  15.441  11.881  0.3810  0.0225  0.0335
17696W        W33830   8.271  10.700   3.889 -0.0175  0.0683  0.2092
17697W        W33831  15.680  11.048   4.879  0.3002 -0.2219  0.1723
17698W        W33832  18.956  16.505   0.327  0.1576  0.0447 -0.0367
17699W        W33833   2.520  17.177   1.559 -0.0768  0.0028 -0.0056
17700W        W33834  13.861  11.878   2.198 -0.2216  0.2119  0.2422
17701W        W33835   3.329  15.817  14.706  0.0819  0.1072  0.1825
17702W        W33836   1.982   1.259  12.777  0.0042  0.1670 -0.4009
17703W        W33837  16.058   2.755   1.448  0.0909 -0.0358 -0.0973
17704W        W33838  14.351   9.143   2.979  0.0445  0.1614 -0.2077
17705W        W33839  10.095  13.437  14.985  0.3216 -0.1550  0.0538
17706W        W33840   6.000   9.909   1.552 -0.0042 -0.4403 -0.2290
17707W        W33841   9.292   4.423  14.281  0.0315 -0.1469 -0.0408
17708W        W33842  18.736   3.587  14.111 -0.0438  0.0400 -0.0912
17709W        W33843  11.340  14.640   0.609  0.0053 -0.0283  0.0207
17710W        W33844   1.122  17.267  13.881 -0.0973 -0.2196 -0.0404
17711W        W33845  18.749   8.515   2.407 -0.1326  0.0210  0.2378
17712W        W33846   4.960   7.234  10.769 -0.0064 -0.2279 -0.0375
17713W        W33847   0.031  14.653   4.684 -0.2082  0.2780 -0.1040
17714W        W33848  16.705   1.466  14.584 -0.0289  0.2023 -0.0891
17715W        W33849  13.431  10.625   3.057  0.0423  0.1317  0.3518
17716W        W33850  13.787  10.727   2.541 -0.0829  0.1038  0.2528
17717W        W33851  13.689   3.907  14.346 -0.1574  0.0390  0.1018
17718W        W33852  17.371  10.294  14.374  0.2279  0.3572 -0.4333
17719W        W33853   5.993  13.927  10.596  0.0621 -0.1147 -0.1461
17720W        W33854   6.962   0.791  12.964  0.2119 -0.1116  0.0440
17721W        W33855  10.883  12.706  14.459  0.1850  0.0078 -0.0193
17722W        W33856   5.668  14.019  11.713  0.1003  0.0369  0.1069
17723W        W33857   3.193   3.005   0.728  0.1414 -0.1375  0.0828
17724W        W33858   9.643  13.698   4.356  0.0742 -0.1319 -0.3056
17725W        W33859  14.814  15.264   0.570  0.1547  0.1804  0.0719
17726W        W33860  15.066   2.804   2.647 -0.0198 -0.0722 -0.0055
17727W        W33861   9.359  16.679   2.230  0.0531 -0.0304 -0.0341
17728W        W33862  13.823   5.693   4.915 -0.3281 -0.0454  0.1706
17729W        W33863   7.244  14.175   3.168 -0.1517  0.1072 -0.0507
17730W        W33864   5.755   3.122   4.841  0.2401 -0.2013 -0.1011
17731W        W33865  13.860  15.311  13.766 -0.1863 -0.0394 -0.1260
17732W        W33866   5.646   0.899   4.130 -0.2077  0.3046  0.1871
17733W        W33867  16.660  17.885   0.753 -0.1234 -0.0972  0.0833
17734W        W33868   3.928  15.795   2.084  0.1800  0.1116 -0.0222
17735W        W33869   7.532  16.193   0.250 -0.2023  0.2415  0.0906
17736W        W33870   4.106  16.629  11.320 -0.2280  0.1105  0.0122
17737W        W33871   1.471  11.403   0.892  0.2470  0.0848  0.0612
17738W        W33872   3.804   3.398   3.100  0.2242 -0.0525 -0.3546
17739W        W33873  11.002  12.107   2.388 -0.0871 -0.1553 -0.7529
17740W        W33874   7.115   2.491  13.964  0.2827 -0.1655  0.0009
17741W        W33875   0.636  13.721   0.770 -0.3628 -0.0285  0.0976
17742W        W33876  12.545   4.372  13.795  0.2151  0.2783 -0.2165
17743W        W33877   8.161  18.235  15.108  0.1558  0.3628  0.1117
17744W        W33878  12.559   9.466  11.972 -0.0616 -0.3715 -0.1177
17745W        W33879   1.971   3.766  12.222 -0.0341  0.1237  0.0537
17746W        W33880   7.490   4.550   3.442  0.1490  0.3040 -0.2680
17747W        W33881  15.264   5.693   4.741 -0.0516  0.1792 -0.2155
17748W        W33882  11.638   2.641  11.280 -0.0219 -0.0301 -0.1409
17749W        W33883   8.759  18.580  11.164  0.0995  0.2236  0.0934
17750W        W33884  15.887   0.649  15.040  0.4416 -0.1378 -0.0958
17751W        W33885  14.686   9.731  12.253  0.0029  0.2004  0.0241
17752W        W33886   0.078  16.967   0.566 -0.2141  0.0488 -0.5011
17753W        W33887   5.940   7.015   5.135  0.1526 -0.0434  0.1257
17754W        W33888  16.152  15.160  11.639  0.2297 -0.3227 -0.3185
17755W        W33889   5.966   6.787   4.671 -0.0242 -0.0512  0.5171
17756W        W33890   6.404   5.779   2.749  0.1158 -0.1270  0.4094
17757W        W33891   8.659  10.203  13.111  0.0665 -0.1853  0.0522
17758W        W33892   5.943   9.178  11.435  0.0726  0.2025 -0.0518
17759W        W33893   1.359   2.654   3.740 -0.2613 -0.0115 -0.0140
17760W        W33894   7.777  18.167  12.383 -0.0984 -0.1110  0.1553
17761W        W33895  17.470  10.006   4.364 -0.0070  0.2107  0.0642
17762W        W33896   6.477  14.972   0.937 -0.0089 -0.2236  0.0056
17763W        W33897   6.253  17.391  14.563 -0.1082  0.3405  0.0181
17764W        W33898  18.693  14.788   1.851 -0.3001 -0.2014  0.0818
17765W        W33899   3.449  10.489   0.740 -0.0335 -0.1385 -0.0898
17766W        W33900   5.599   5.450   2.320  0.2364  0.0067  0.3414
17767W        W33901   1.351   0.964  11.208  0.0482 -0.1711 -0.1230
17768W        W33902   6.585   2.576  12.364  0.0179  0.0763  0.1198
17769W        W33903   5.535  17.729   3.139  0.1691 -0.0130  0.2608
17770W        W33904  18.100  15.213   4.567 -0.1026  0.0027 -0.2452
17771W        W33905   9.691  10.452  11.086  0.1521  0.0129 -0.0028
17772W        W33906   0.307  19.134   0.295 -0.0485  0.3090 -0.0751
17773W        W33907   7.154  10.374   0.883  0.1646 -0.0205  0.4995
17774W        W33908   8.940   2.904   0.308  0.2309 -0.2142  0.1860
17775W        W33909  17.374   9.156  11.570 -0.1405  0.1193  0.2820
17776W        W33910   2.573  10.351  12.513 -0.0724  0.2679  0.0090
17777W        W33911  14.000   8.925   9.505 -0.1571 -0.3720 -0.0757
17778W        W33912   0.057  12.440   0.347  0.0380  0.1195  0.3262
17779W        W33913   6.946   3.234  14.077 -0.1152  0.1953  0.3743
17780W        W33914   9.698   5.795   0.840 -0.1270  0.2550  0.0397
17781W        W33915   6.974   6.179   1.849 -0.0635  0.0826 -0.1787
17782W        W33916   5.729   3.622  10.491  0.1948  0.0947 -0.2720
17783W        W33917  12.766   8.145  15.056 -0.1205  0.0655  0.1829
17784W        W33918   4.298  17.399   3.368 -0.1510 -0.0309 -0.0026
17785W        W33919  13.060   7.313   3.441  0.0790  0.0659  0.0884
17786W        W33920   7.898  11.895  14.418 -0.0943  0.0139 -0.2678
17787W        W33921  10.311   1.351   1.990 -0.2727  0.2226 -0.1887
17788W        W33922  18.848  13.011   0.276 -0.0065 -0.0030 -0.1359
17789W        W33923   8.339   3.272  12.526  0.0399  0.0246 -0.0929
17790W        W33924   7.020  16.810   1.008 -0.0350 -0.2890 -0.2344
17791W        W33925   5.905  17.704   1.762 -0.3270  0.0767 -0.2266
17792W        W33926  18.238  17.256  11.063  0.2853  0.1535 -0.3224
17793W        W33927   0.853  14.944   4.262 -0.0476 -0.1476  0.0135
17794W        W33928   5.619  17.952   1.381 -0.1322 -0.3373  0.3266
17795W        W33929   5.961  16.940   4.775 -0.1099 -0.2780  0.0756
17796W        W33930   9.133   9.071  10.830 -0.0851 -0.1523 -0.1163
17797W        W33931  13.208  14.904   4.372  0.1968  0.0804 -0.0351
17798W        W33932   4.187  18.312   4.403  0.1203 -0.2717  0.1235
17799W        W33933   4.141  11.747   3.987  0.2188  0.0711  0.3018
17800W        W33934  15.713   9.260  12.537 -0.1304 -0.1627 -0.0386
17801W        W33935  10.817   5.762  14.953 -0.3829  0.3581 -0.2483
17802W        W33936   5.453  15.370  14.089  0.1968 -0.0014 -0.2177
17803W        W33937   5.008  15.173  11.786 -0.0260 -0.1605  0.0563
17804W        W33938   9.191  14.276  13.173  0.0774  0.2660  0.0299
17805W        W33939   2.442  17.754  11.618 -0.0037 -0.1553 -0.5832
17806W        W33940  11.531   1.872  13.969  0.3047  0.1113 -0.0915
17807W        W33941  17.169  10.412   4.405  0.1243  0.1256 -0.2151
17808W        W33942  17.711  19.104   4.486  0.4760  0.2274  0.1852
17809W        W33943   6.757  18.111   2.551  0.0238 -0.0493 -0.2123
17810W        W33944   1.145  13.827   4.120  0.0278 -0.1414 -0.0452
17811W        W33945  16.058  18.361   0.986  0.1005  0.1625  0.1265
17812W        W33946  10.734   2.323   3.154 -0.3286 -0.0535 -0.0277
17813W        W33947  10.505   3.075   0.487 -0.0393  0.0373  0.3324
17814W        W33948   8.045   5.473  14.816 -0.2199  0.0087  0.0565
17815W        W33949  18.874   9.869   5.098 -0.1079 -0.0854 -0.1977
17816W        W33950  18.649   5.512  13.243  0.0562  0.2923 -0.2679
17817W        W33951  12.347  14.658   1.116 -0.0236 -0.0008 -0.2994
17818W        W33952   0.348  12.073   2.060  0.2162 -0.2228  0.5301
17819W        W33953   9.764  14.238   3.629  0.3439  0.1212  0.1377
17820W        W33954   3.029  15.505   0.619  0.3389 -0.2455  0.1521
17821W        W33955  14.158   5.125  13.357 -0.1665 -0.1044 -0.1396
17822W        W33956  16.670   5.090   0.432  0.1620  0.1396  0.1468
17823W        W33957  14.161   3.171   3.856  0.0632  0.2169  0.3565
17824W        W33958   4.354   2.051  14.741  0.0133 -0.0842  0.2277
17825W        W33959  13.134  16.577   2.617 -0.2268  0.4213 -0.0681
17826W        W33960   7.407  11.927   5.825  0.1801 -0.0734 -0.2211
17827W        W33961  16.742  18.888   2.521 -0.0027  0.2641  0.0072
17828W        W33962  16.329   9.478   3.814 -0.0490  0.1192  0.2164
17829W        W33963   2.270   3.853   0.103 -0.0315 -0.0743  0.2839
17830W        W33964  10.689   8.270  11.814  0.2480  0.3527 -0.3879
17831W        W33965  14.376  16.809  12.062  0.1557  0.2988 -0.1609
17832W        W33966   0.132   2.564  12.693  0.1327  0.2620 -0.1436
17833W        W33967  13.568   0.386  14.595 -0.0815  0.2059 -0.0630
17834W        W33968  12.721   3.185  14.932 -0.0177 -0.3758 -0.2241
17835W        W33969   2.049   5.642  13.429  0.1260  0.0119  0.0323
17836W        W33970  17.845   6.246   0.866 -0.2130 -0.3470 -0.0317
17837W        W33971   5.607   9.154   4.596 -0.4574 -0.3108  0.1930
17838W        W33972   3.929   7.133   3.654 -0.1183 -0.3841 -0.0742
17839W        W33973   0.717   4.994  12.088  0.1180 -0.0082  0.1158
17840W        W33974  17.561   0.772  12.688 -0.1001  0.0552 -0.2856
17841W        W33975  17.380  15.856   3.951  0.1866  0.2560  0.2795
17842W        W33976   2.067  17.447   1.419 -0.2759 -0.3046  0.0975
17843W        W33977   2.909  14.150  10.564  0.1898 -0.1914  0.0481
17844W        W33978   2.224  17.358  13.105 -0.1067 -0.3598 -0.1656
17845W        W33979   3.682  11.242   1.310 -0.1715  0.0855 -0.1375
17846W        W33980  15.336   7.009  13.560 -0.0094 -0.0290  0.1805
17847W        W33981   5.279   8.079  11.076  0.2387  0.0327 -0.1435
17848W        W33982   9.762   7.684  15.042 -0.2319 -0.0150 -0.0040
17849W        W33983  18.992   3.122   4.028 -0.0151 -0.0397 -0.1112
17850W        W33984   6.582   4.976   3.681  0.1024  0.1001 -0.4009
17851W        W33985  12.062   4.244   3.728  0.2697 -0.0776 -0.0173
17852W        W33986   1.833  14.219  11.583 -0.2940  0.1091  0.0125
17853W        W33987   5.676  16.935   2.252  0.2186 -0.1034 -0.4540
17854W        W33988  13.490   1.951   2.115 -0.1245  0.0779  0.3128
17855W        W33989   1.089  18.716  10.912  0.2126  0.0332  0.3469
17856W        W33990   4.118  18.640  14.451 -0.0797  0.0470 -0.0960
17857W        W33991   6.174   9.476  15.014  0.1707 -0.0174 -0.1935
17858W        W33992  14.520   3.721   4.647  0.2986 -0.1851 -0.0606
17859W        W33993  13.790  15.377  12.211  0.0391  0.1458 -0.0600
17860W        W33994   1.554   9.082  10.586 -0.1368 -0.1485  0.2858
17861W        W33995   9.791  15.627   5.168  0.1850 -0.1171 -0.2467
17862W        W33996   4.236   0.357  12.281 -0.0133 -0.3490 -0.0796
17863W        W33997  11.500   7.782  10.265  0.2253 -0.0225 -0.1737
17864W        W33998   9.736  11.019   4.103 -0.0031 -0.2088 -0.2322
17865W        W33999  14.449  13.698  14.138  0.2050  0.1885 -0.0158
17866W        W34000  13.365   8.994   2.128  0.0593 -0.0311 -0.3001
17867W        W34001   7.490   9.083  13.557  0.1755  0.0767 -0.0363
17868W        W34002  13.056  18.706  13.558 -0.3320  0.1920  0.0164
17869W        W34003  12.691  16.550   3.017  0.3900  0.1083  0.0422
17870W        W34004  11.768   7.834   0.573 -0.4403  0.0233 -0.1411
17871W        W34005  15.779  11.889   5.091 -0.1976  0.1743 -0.0875
17872W        W34006   3.674   9.456  13.521  0.1162 -0.2589 -0.1053
17873W        W34007  13.226  18.255  15.115  0.0727 -0.1276 -0.0396
17874W        W34008  18.774   2.433  10.904 -0.0029 -0.2715  0.0142
17875W        W34009   7.247   4.589   2.399  0.1244  0.1757  0.1078
17876W        W34010   5.492  10.652  13.197 -0.4128 -0.0659 -0.2869
17877W        W34011   5.768  15.430   1.479  0.0720 -0.1148 -0.0275
17878W        W34012   3.120   9.274   4.529 -0.2033  0.1115 -0.0659
17879W        W34013  18.638   3.372   4.961 -0.0654  0.0461 -0.0191
17880W        W34014   7.308   1.122  13.866  0.0481  0.2511  0.0881
17881W        W34015  16.663   9.564  13.506 -0.2350 -0.0252 -0.0868
17882W        W34016  10.871   9.274   3.325 -0.1832 -0.2154  0.4592
17883W        W34017   7.121  14.679   1.539 -0.2183 -0.1244 -0.4089
17884W        W34018  13.053  10.265   0.452 -0.2185 -0.0339 -0.1512
17885W        W34019   2.805  11.774   9.950 -0.0979 -0.0010 -0.1265
17886W        W34020   3.602  17.210  13.241 -0.3899 -0.2314 -0.0345
17887W        W34021  12.522   2.122  13.545  0.1438 -0.2441  0.0899
17888W        W34022   1.405   0.599  10.834  0.1706 -0.0362  0.1637
17889W        W34023  16.030   6.072  12.778 -0.2128  0.1971  0.2168
17890W        W34024   2.852   9.939  12.294 -0.0366  0.3230 -0.4655
17891W        W34025   7.469  16.525   1.084  0.0686 -0.1000  0.0531
17892W        W34026   3.075  11.063   4.111 -0.1978  0.0691  0.0060
17893W        W34027   8.569   3.703   3.590  0.1037  0.3985 -0.1353
17894W        W34028   6.134  11.716   5.186  0.1118  0.0444  0.3383
17895W        W34029  14.388   4.890   0.473 -0.0646 -0.3666 -0.1586
17896W        W34030  17.453  13.476   0.852  0.0191  0.2051 -0.1975
17897W        W34031   1.802  15.418  11.893 -0.1233  0.0854  0.1467
17898W        W34032  12.293   3.658  10.217  0.4020 -0.4133 -0.1586
17899W        W34033  17.050   7.223  12.926  0.0509 -0.0785 -0.2039
17900W        W34034  14.783  15.387  14.109 -0.0777  0.0382  0.0556
17901W        W34035  11.094   4.406   4.717 -0.0250  0.0742  0.0738
17902W        W34036  12.032  13.988   0.320 -0.2421  0.1162  0.1049
17903W        W34037   6.270   6.143   4.029 -0.0051  0.0117  0.1056
17904W        W34038   7.160  14.250   4.591  0.2023 -0.2969 -0.2623
17905W        W34039  13.174   0.015  11.430 -0.2202  0.1337 -0.1739
17906W        W34040  12.576  15.370  14.581  0.0346 -0.0479  0.1303
17907W        W34041   9.660  16.601   3.406  0.0132 -0.0956 -0.2606
17908W        W34042   6.206   9.939   3.070 -0.2337 -0.0982  0.1627
17909W        W34043  15.491  17.488   3.621 -0.1582  0.1903 -0.3574
17910W        W34044  16.435  13.043  11.019 -0.2056 -0.1141  0.3715
17911W        W34045  19.010   9.667  11.948  0.2336  0.1276  0.2292
17912W        W34046  13.838  12.630  10.796 -0.1298  0.3743 -0.0699
17913W        W34047  11.295   5.463  14.455 -0.1575  0.2018 -0.1220
17914W        W34048  12.300   9.809   2.229  0.1671 -0.0716  0.2745
17915W        W34049  12.693   9.536  10.395  0.2595 -0.1534  0.0193
17916W        W34050   5.311   4.342  11.894 -0.1851 -0.0585  0.0980
17917W        W34051   8.826   9.105  12.030  0.1145  0.0130  0.1169
17918W        W34052   7.424  18.430  10.697 -0.0424 -0.0104  0.2144
17919W        W34053   0.155  12.267  13.513  0.2304  0.3125 -0.2439
17920W        W34054   6.363   9.592   4.544  0.1689 -0.0261 -0.4591
17921W        W34055   3.465   0.089   4.925 -0.1361 -0.1963 -0.2803
17922W        W34056   6.741  10.473  14.991 -0.0346 -0.0337 -0.1885
17923W        W34057  13.157  10.435  11.891 -0.1660 -0.2780 -0.3322
17924W        W34058   8.043  13.005   2.990  0.1807  0.0588  0.3074
17925W        W34059   4.159  18.079  12.472  0.2496  0.1945  0.2557
17926W        W34060  15.883   5.571  14.767 -0.2119  0.4521 -0.2817
17927W        W34061   5.673   4.760  12.558 -0.1301 -0.0938 -0.0131
17928W        W34062  13.081   5.404  12.410  0.0723 -0.0129 -0.0634
17929W        W34063   4.378  12.905  13.101 -0.0715  0.1615  0.3675
17930W        W34064   1.312   2.831  12.121  0.0281  0.0352 -0.2972
17931W        W34065  16.488   6.530   5.514 -0.0791  0.0203  0.0648
17932W        W34066  14.770  14.518  13.958  0.2046  0.1073  0.0448
17933W        W34067   1.744   1.198  14.182  0.0640  0.1096  0.1447
17934W        W34068   2.763  11.718   4.877  0.2239  0.0937 -0.2095
17935W        W34069  16.803   0.585  14.501  0.0059 -0.0089 -0.0721
17936W        W34070  18.702   7.602  10.494  0.4050 -0.2210 -0.2056
17937W        W34071   1.833   5.712   2.834  0.2554 -0.0552 -0.0512
17938W        W34072  10.710   9.477  12.344  0.1308  0.1620 -0.0093
17939W        W34073   2.951  13.863   1.088 -0.1376  0.1050  0.2443
17940W        W34074  11.484   4.331  11.175  0.1374  0.2577 -0.1242
17941W        W34075   7.355  16.982  10.075 -0.1021  0.0517 -0.1590
17942W        W34076   0.355   2.044  13.630  0.1675  0.0410  0.1201
17943W        W34077   1.992  11.889  13.708 -0.0273 -0.1470  0.1650
17944W        W34078   2.100   6.269   5.112  0.1225 -0.0490 -0.0862
17945W        W34079   7.377  16.803  13.514  0.2588 -0.2661  0.3895
17946W        W34080   4.562  12.984   3.635  0.4075 -0.4504 -0.1065
17947W        W34081   5.888  15.318  13.810  0.0467  0.1034 -0.2731
17948W        W34082   2.617  18.150  14.282 -0.0110 -0.0192 -0.1077
17949W        W34083   0.736   7.870   0.028 -0.0207  0.0316  0.0245
17950W        W34084  14.960   1.401  13.029  0.1599  0.0008  0.3595
17951W        W34085   3.928   4.859  13.317 -0.0611 -0.0710  0.1231
17952W        W34086   5.782   1.887  10.422  0.0054 -0.0071 -0.2227
17953W        W34087   1.392   9.970   0.179  0.1106 -0.3084 -0.5350
17954W        W34088   4.790  12.390  10.720  0.3370  0.0945 -0.0706
17955W        W34089   4.802   6.735  10.759  0.0799  0.1172 -0.3444
17956W        W34090   0.334  10.693  11.165  0.2165 -0.0765  0.2797
17957W        W34091   6.453  14.568  12.386 -0.0109  0.2129  0.3117
17958W        W34092  13.929   4.890   3.078 -0.0832 -0.0734 -0.3155
17959W        W34093   1.798  13.147   2.385  0.0432 -0.1953  0.3200
17960W        W34094  18.534   7.948  12.855  0.2452  0.0627  0.0270
17961W        W34095   5.152   8.311   3.856 -0.1295 -0.1175  0.2988
17962W        W34096   5.449   3.471  11.768 -0.0387  0.1465  0.0116
17963W        W34097  16.908  17.556  11.183  0.1236 -0.3353 -0.1498
17964W        W34098  17.166   7.938   3.132  0.2631  0.2457  0.1915
17965W        W34099  11.459   2.175  15.013 -0.3129 -0.0807 -0.1509
17966W        W34100  16.010  17.445  14.164  0.0502  0.0445 -0.2134
17967W        W34101   8.996  17.098   2.058 -0.1698 -0.0539 -0.0400
17968W        W34102  12.821  13.557  10.914 -0.2263 -0.2416  0.0512
17969W        W34103  15.617   1.939   1.998 -0.0439  0.1359  0.2182
17970W        W34104   8.211   6.924  12.429 -0.1396 -0.2421 -0.2787
17971W        W34105   6.396  16.458   3.093  0.1431  0.1044  0.2012
17972W        W34106  12.076   3.525   3.093 -0.2728  0.0947 -0.2216
17973W        W34107  18.263  15.292   5.048  0.1181  0.2109 -0.0607
17974W        W34108   6.143  13.363   4.474 -0.2190  0.1445 -0.0585
17975W        W34109   5.016   4.219  10.556 -0.0473  0.2121  0.3476
17976W        W34110   8.034  12.944   5.272 -0.1241 -0.0913  0.3398
17977W        W34111   9.854   3.941   0.052  0.1590  0.2648 -0.0739
17978W        W34112  14.816  18.574   1.384  0.1618  0.1216  0.0858
17979W        W34113   1.218  11.835   0.816  0.3138  0.2735 -0.1891
17980W        W34114   3.493  11.969  11.274 -0.1467  0.2738  0.0487
17981W        W34115   3.464   7.025   5.078 -0.0703  0.0067  0.0278
17982W        W34116   7.757   1.495   0.195 -0.3418  0.1626  0.0008
17983W        W34117  17.213  16.995   5.540 -0.1216 -0.0963  0.3178
17984W        W34118  12.196   4.511   3.268 -0.1211  0.1842 -0.0211
17985W        W34119   1.995  12.499  11.762  0.0202 -0.1190 -0.0259
17986W        W34120   0.267  10.668   4.285  0.0525  0.0368 -0.1533
17987W        W34121  14.437   0.283  11.936 -0.1093 -0.1604 -0.1043
17988W        W34122   3.902  11.464  13.781  0.1370  0.0964  0.0444
17989W        W34123   8.165   0.689   3.942 -0.1872  0.0349  0.1860
17990W        W34124   3.882  17.754  11.133 -0.1582  0.0895  0.4212
17991W        W34125  16.309  16.485   3.713 -0.0622 -0.0352  0.0737
17992W        W34126  14.104   5.804   1.589 -0.0694  0.2543  0.2252
17993W        W34127   4.930  12.589   2.723 -0.0963  0.1919  0.1944
17994W        W34128  14.503  14.020   1.198  0.3161 -0.1543  0.0099
17995W        W34129   6.121  16.826   1.038 -0.0647 -0.0430  0.0333
17996W        W34130   2.448  16.080   1.438  0.0142  0.0579 -0.1680
17997W        W34131  14.844   0.139   2.211  0.0970  0.1919  0.0805
17998W        W34132   1.413  17.691  11.435 -0.0560  0.0064 -0.2497
17999W        W34133  11.049  15.788  14.670  0.2255  0.0738 -0.1359
18000W        W34134   2.246   2.075  13.837  0.0390 -0.1775 -0.1761
18001W        W34135   5.345  15.913  14.169 -0.1886 -0.1705 -0.0541
18002W        W34136  11.387   8.019  10.695 -0.0294 -0.0926  0.1705
18003W        W34137   6.694  16.268   2.166 -0.0885 -0.4085  0.2194
18004W        W34138   0.798  17.394  10.858  0.0494 -0.2279  0.5026
18005W        W34139   7.452   6.431   5.361  0.0996  0.3231 -0.0334
18006W        W34140  18.549  16.246   1.564 -0.0647  0.2193  0.1744
18007W        W34141  12.333  10.402  13.846  0.0214  0.0100 -0.3405
18008W        W34142   7.169   1.238  10.698 -0.1676 -0.2742  0.2724
18009W        W34143   2.676   9.043  10.645  0.3979  0.0509  0.0740
18010W        W34144   2.004   1.066   5.363 -0.2537 -0.0821 -0.2425
18011W        W34145   2.578   9.850   3.405 -0.1426 -0.0925 -0.0294
18012W        W34146   4.936   1.693   2.345  0.0798  0.0134  0.1233
18013W        W34147   4.281   2.616  14.656 -0.0433 -0.0664  0.1564
18014W        W34148  16.124  17.989   0.043  0.0989 -0.0283  0.0161
18015W        W34149   3.181   4.640   3.052  0.3754  0.0358  0.3058
18016W        W34150  15.055  14.873   3.083  0.1989  0.3135 -0.3213
18017W        W34151  10.586  16.266  13.609  0.0646  0.0695  0.1865
18018W        W34152   4.505  15.882   4.240  0.0438 -0.0508  0.0108
18019W        W34153  13.480  17.648   1.398 -0.0609 -0.2900 -0.2847
18020W        W34154   3.613  17.025   0.471 -0.1496  0.2187  0.0665
18021W        W34155   1.028  18.448   4.495 -0.0988  0.2019 -0.2250
18022W        W34156  17.175   5.304  10.953  0.0198  0.0066 -0.1498
18023W        W34157  16.930   4.588   0.594  0.0660 -0.3199  0.0522
18024W        W34158   4.359   4.459   3.340 -0.3532 -0.1408 -0.0296
18025W        W34159  10.961   2.614   3.460  0.0999  0.2638  0.1879
18026W        W34160   5.994  15.703   5.426  0.1417  0.0274 -0.2195
18027W        W34161  14.685  15.063   1.018  0.0027  0.1107 -0.1383
18028W        W34162   4.531  16.931   4.549 -0.0812  0.2932 -0.0891
18029W        W34163  15.993   3.353   2.324  0.2194  0.1318 -0.0387
18030W        W34164  17.296  11.138   3.131 -0.0256 -0.0450 -0.2661
18031W        W34165  12.435  12.297   3.579  0.0513  0.0078  0.1449
18032W        W34166  12.240   2.318  12.658  0.0847 -0.2753  0.0077
18033W        W34167  18.680   1.257  12.119  0.1051 -0.0761 -0.1225
18034W        W34168   0.616   0.999   0.900  0.2318 -0.0985  0.1901
18035W        W34169   6.450  11.519   5.793 -0.0216  0.0792 -0.2055
18036W        W34170  10.354  14.951  11.605 -0.3628 -0.2401  0.0303
18037W        W34171   7.982  15.100   3.976 -0.1489  0.2700 -0.0411
18038W        W34172  11.172   8.659  13.940  0.1471  0.1474 -0.3524
18039W        W34173   2.166   5.445  14.457  0.1148 -0.1206  0.5250
18040W        W34174  16.014   4.526  10.549 -0.1336  0.2095  0.2610
18041W        W34175   1.979  13.517   1.292  0.0572  0.2545  0.1674
18042W        W34176  10.402   8.205  13.756  0.0199 -0.1191  0.0290
18043W        W34177   8.538   4.614  12.064  0.0334  0.0229 -0.1520
18044W        W34178   3.681  17.344  13.699 -0.2913  0.0650  0.1364
18045W        W34179  16.101   8.225   0.866  0.1469  0.0975  0.0634
18046W        W34180   6.769  10.387  11.821 -0.2766  0.1456 -0.2314
18047W        W34181  13.267   1.778  11.529 -0.1721 -0.1385 -0.1596
18048W        W34182  12.796  10.303  14.003  0.0987  0.3488  0.1074
18049W        W34183  11.515   2.094   4.813  0.3490  0.3307  0.0935
18050W        W34184  16.590   2.691   1.321 -0.1200  0.2112 -0.0403
18051W        W34185  15.895   2.684   0.450 -0.1587 -0.2789  0.0466
18052W        W34186  10.525   7.930  11.508  0.1456 -0.2534  0.0098
18053W        W34187  16.250  11.339  13.822  0.1236  0.0737 -0.1139
18054W        W34188   3.651   8.003   3.187 -0.1423  0.1736 -0.0286
18055W        W34189   8.117  11.714  10.344  0.2287 -0.1440  0.1940
18056W        W34190  14.797   7.381  13.474 -0.3681 -0.0072 -0.0489
18057W        W34191  18.141  10.378   4.731 -0.0409  0.0768  0.2438
18058W        W34192   5.630   1.626   2.742  0.1147  0.0626  0.4418
18059W        W34193  16.670   7.261   0.482  0.0158  0.0053  0.1305
18060W        W34194   1.745  13.942   1.250  0.4165  0.0320  0.0366
18061W        W34195  12.672   1.461  10.768  0.1023  0.1352  0.0271
18062W        W34196  10.925   1.493   0.766 -0.2451  0.1344  0.0178
18063W        W34197   8.587  11.648   0.844  0.1398  0.1516 -0.1445
18064W        W34198   0.569   1.222  15.009  0.2397 -0.3861 -0.1585
18065W        W34199  11.556   0.726  13.113 -0.0897 -0.1360 -0.0990
18066W        W34200   7.353   2.970   4.046  0.2199 -0.5518  0.2893
18067W        W34201   8.192  17.465  14.617 -0.2223  0.0542  0.3564
18068W        W34202  15.004  11.290   4.142  0.1167 -0.0827 -0.2344
18069W        W34203   7.975   9.176   0.273  0.1976  0.2149 -0.1974
18070W        W34204   8.772  11.712  13.987  0.2263  0.1995 -0.1178
18071W        W34205  15.115  17.396  15.161 -0.1063 -0.1413  0.1814
18072W        W34206  11.295   0.281  11.109  0.2429 -0.3123  0.1336
18073W        W34207  18.811   7.647   2.049  0.3060  0.2598 -0.0511
18074W        W34208   7.397   6.379   0.593  0.0676 -0.1765  0.1757
18075W        W34209  13.041  13.604  13.867  0.0823  0.3564 -0.1842
18076W        W34210   3.509   3.357  11.163 -0.0448 -0.0488 -0.1797
18077W        W34211   5.695  13.214   4.504  0.1879 -0.1076  0.1552
18078W        W34212  18.068   4.229   2.022  0.2590 -0.0713 -0.3760
18079W        W34213   2.863  15.594   2.403 -0.0063  0.1737  0.3985
18080W        W34214   0.610   4.432   2.581 -0.1076  0.1771  0.0508
18081W        W34215  15.075  11.138  10.218  0.1035  0.3188  0.0162
18082W        W34216   2.953   8.929   2.380  0.0777  0.3352  0.3551
18083W        W34217   3.505  18.585  14.247 -0.2013 -0.2527 -0.0112
18084W        W34218   4.721  10.319  12.060 -0.0174  0.1209 -0.2935
18085W        W34219  13.941   9.718   4.282 -0.0674 -0.0763  0.3782
18086W        W34220  15.364  12.471   4.796 -0.1157 -0.2657  0.1795
18087W        W34221  16.799  14.839  14.490  0.2076  0.0400 -0.1964
18088W        W34222   1.854  14.288   3.033  0.0756 -0.1230  0.1666
18089W        W34223  12.564   7.806   1.898  0.1802 -0.1609 -0.1414
18090W        W34224  15.649  14.026  14.334  0.0338 -0.3493  0.0941
18091W        W34225  10.306   8.467  13.298  0.4470 -0.0201 -0.4397
18092W        W34226  11.496   6.961   3.937 -0.2451  0.0368  0.1539
18093W        W34227   9.635   7.677   4.803 -0.1983  0.0130  0.1045
18094W        W34228   1.032  12.817   9.849  0.0856 -0.0016 -0.0163
18095W        W34229  11.992  11.597   4.907  0.0671 -0.0846  0.0898
18096W        W34230  10.522   6.663  13.947 -0.1889 -0.1317 -0.0395
18097W        W34231   7.288   8.015   2.105  0.1309  0.0572  0.0880
18098W        W34232   2.722  14.425   1.852  0.1414 -0.1455 -0.0980
18099W        W34233   0.905   0.855   0.436  0.0020 -0.1870  0.1237
18100W        W34234  14.423   7.801  13.643 -0.0116  0.3717 -0.1141
18101W        W34235   4.300  10.989   1.942 -0.1057  0.2655 -0.1473
18102W        W34236   0.187   2.923  14.100 -0.1084 -0.1493 -0.1165
18103W        W34237   2.503  15.192   0.011  0.0345 -0.1169  0.2539
18104W        W34238   2.130   9.128  10.734  0.0691 -0.2503  0.1130
18105W        W34239   3.864   3.547   0.165  0.4738  0.2658  0.0980
18106W        W34240  12.058  11.443  12.001 -0.0102  0.1251 -0.0158
18107W        W34241  18.139   3.996  10.536  0.1606  0.0206 -0.1757
18108W        W34242   1.458   3.394   2.709 -0.4421 -0.1997  0.0620
18109W        W34243  17.951  13.058   3.492 -0.0530 -0.0885  0.0478
18110W        W34244  15.589   9.525   2.559  0.3234 -0.1191  0.1184
18111W        W34245  12.740  15.725  11.214  0.0451 -0.0469 -0.0718
18112W        W34246  14.043  11.874   0.690 -0.1973 -0.0570 -0.2873
18113W        W34247   0.974   7.200   4.550  0.1210  0.0911 -0.0181
18114W        W34248   2.844  12.178  12.389  0.2230 -0.0867 -0.3093
18115W        W34249   4.663  11.433   2.671 -0.1239  0.0656  0.1718
18116W        W34250   1.546  12.772   5.082 -0.2024 -0.1351  0.3355
18117W        W34251   3.801   4.831  10.537  0.1266 -0.0354  0.0136
18118W        W34252   4.359  14.940  10.705 -0.0580  0.2785 -0.0911
18119W        W34253  11.311   8.593  12.340  0.0663 -0.3275 -0.3002
18120W        W34254   9.092   0.014   1.418 -0.2311 -0.1138  0.0520
18121W        W34255   7.277   2.391   0.386 -0.0825  0.0824 -0.0053
18122W        W34256   1.357  14.117   4.581 -0.0436 -0.1785  0.2012
18123W        W34257  14.696   8.258  13.734  0.1120 -0.0154 -0.0565
18124W        W34258   1.553   8.012  10.286  0.0307 -0.1410 -0.0273
18125W        W34259   9.156  15.467  13.270  0.0592  0.0584  0.4483
18126W        W34260   2.206   0.901  12.482 -0.4590 -0.3122 -0.1371
18127W        W34261   0.665  10.593   0.891  0.0490 -0.0416  0.2074
18128W        W34262   1.313  15.166  11.659 -0.2263 -0.2898 -0.1708
18129W        W34263   4.411  17.950  13.343  0.1912 -0.0366 -0.1757
18130W        W34264  18.539   0.994   5.014 -0.3266  0.0980 -0.0698
18131W        W34265  11.189   1.613   2.635 -0.1811  0.1118 -0.2455
18132W        W34266   7.476   5.145  12.889 -0.0512  0.4001  0.2187
18133W        W34267   2.659   8.561   2.596  0.0558 -0.3611  0.1243
18134W        W34268  16.453  18.594   2.773 -0.1692  0.0417  0.1125
18135W        W34269   2.029   2.531   4.041 -0.0272  0.0713  0.0652
18136W        W34270  12.679   0.530   1.196 -0.4941 -0.0757  0.0913
18137W        W34271   0.858  10.613  10.831  0.0231  0.0543 -0.1892
18138W        W34272   5.479   8.048   5.031 -0.1587  0.3112  0.1252
18139W        W34273   2.230  19.004  10.900 -0.0196 -0.2827  0.0521
18140W        W34274   5.058   3.448  14.468 -0.1494 -0.0145  0.0545
18141W        W34275  10.330   0.217  10.542 -0.2840 -0.0647  0.0272
18142W        W34276  14.165   3.209  14.118 -0.0370 -0.0526 -0.0561
18143W        W34277  18.369  16.487   2.986  0.1281  0.0574 -0.1580
18144W        W34278   3.495  16.436  13.030 -0.1020  0.0779 -0.3382
18145W        W34279   3.152  14.943  12.563 -0.0420 -0.1858 -0.0811
18146W        W34280   4.224   4.176   5.047  0.0334 -0.2031  0.1586
18147W        W34281   7.640   3.323   3.721 -0.2535 -0.1632 -0.0850
18148W        W34282   1.834   9.267  14.019  0.0385  0.1112 -0.1509
18149W        W34283   0.741  19.039   3.934  0.1240 -0.0784  0.0166
18150W        W34284   4.782   8.975   5.216  0.0261 -0.0394  0.3025
18151W        W34285  15.150   7.422  13.155  0.2521 -0.1035  0.0526
18152W        W34286  13.613   6.165   4.746  0.1708 -0.1851 -0.1140
18153W        W34287  14.094  12.135   0.127 -0.2716  0.2326 -0.1103
18154W        W34288  17.835  15.918   0.964  0.0177 -0.0970 -0.2961
18155W        W34289  17.063   0.876  12.557 -0.1783  0.0943 -0.3562
18156W        W34290   9.182  13.199   1.863  0.1213  0.0536  0.1220
18157W        W34291   9.100   8.912  13.233  0.1540 -0.1028 -0.3017
18158W        W34292  16.041  11.456   2.980 -0.1042  0.1403  0.0092
18159W        W34293   3.356   8.227  11.434  0.2801 -0.1247 -0.1309
18160W        W34294  12.356  13.271   1.904 -0.1363 -0.2862 -0.1965
18161W        W34295  18.543   9.569   0.896 -0.2443  0.2463  0.1040
18162W        W34296   6.093  13.047   2.909 -0.4124 -0.0795 -0.1544
18163W        W34297  18.253  14.642   0.658  0.1235  0.1263 -0.1210
18164W        W34298   5.843   9.191  12.847 -0.1108  0.3390  0.1086
18165W        W34299  15.339  13.558  13.221  0.0961 -0.3453  0.0050
18166W        W34300   8.564  16.817  14.328  0.0845 -0.0906 -0.2392
18167W        W34301  18.162  18.731  10.475 -0.2838  0.0804 -0.1753
18168W        W34302  11.338   1.176   0.543 -0.0200  0.1701 -0.0150
18169W        W34303  16.012  16.567  12.666  0.0453 -0.0804 -0.0053
18170W        W34304   4.522  12.231  11.587 -0.0376  0.1288  0.1231
18171W        W34305   7.953  18.476   9.461 -0.1101 -0.1771 -0.1648
18172W        W34306   9.864   5.586  13.648 -0.0321  0.3567  0.1428
18173W        W34307   6.888   1.550  10.294  0.0185  0.0244 -0.0729
18174W        W34308   7.590  10.912  14.911 -0.0823  0.2777 -0.0822
18175W        W34309  12.142  16.779  14.638  0.2725 -0.0236 -0.4747
18176W        W34310   9.199  16.187  11.269 -0.2932  0.0881  0.0502
18177W        W34311   4.843  15.655   2.474  0.0986 -0.1204 -0.0451
18178W        W34312  14.400  10.876   0.832  0.1299 -0.1002  0.3338
18179W        W34313   0.905   3.688   0.934  0.1570  0.1886 -0.0022
18180W        W34314  16.987  16.398   0.209 -0.0597 -0.0241 -0.0802
18181W        W34315  19.130  18.187  14.402  0.0425  0.0857  0.1380
18182W        W34316  16.981  10.000  12.708 -0.0526  0.0783  0.0719
18183W        W34317   1.067  16.486   3.083  0.0380  0.1714  0.0977
18184W        W34318  14.711  17.595   0.494 -0.0144  0.0400  0.1687
18185W        W34319   6.225  10.383  11.553 -0.0492 -0.1570  0.0249
18186W        W34320   2.327   7.246   9.311 -0.2499 -0.1185  0.0665
18187W        W34321   3.280  15.983   5.189  0.0771  0.0519 -0.1523
18188W        W34322  16.056  10.928  12.923 -0.1603  0.0776 -0.0800
18189W        W34323  18.992  15.275   0.293 -0.2165  0.2575  0.1821
18190W        W34324  12.444  17.292   1.276 -0.1380 -0.1040  0.0255
18191W        W34325   7.392   1.683  10.470 -0.3054  0.1112 -0.0987
18192W        W34326  17.058  18.174  12.523 -0.0889 -0.2945 -0.0587
18193W        W34327  10.276   2.572  13.127  0.2619 -0.0302 -0.1832
18194W        W34328   7.790  17.881   0.986 -0.2627 -0.0629 -0.1086
18195W        W34329   0.672   5.070   4.576 -0.2916  0.2997 -0.1472
18196W        W34330  13.052  10.443   1.009 -0.1715 -0.1560 -0.0588
18197W        W34331   6.873  10.251   5.767  0.0872 -0.1578 -0.0880
18198W        W34332  11.693  11.892   5.190  0.0607 -0.2160  0.1788
18199W        W34333  10.104   6.707   2.726  0.1414  0.0400 -0.2913
18200W        W34334  10.981  10.354  15.017  0.0478  0.2826 -0.0540
18201W        W34335   7.449   4.977   1.930  0.3455 -0.2435 -0.0614
18202W        W34336  13.129   2.225  12.984  0.1101  0.2007  0.0769
18203W        W34337   2.123   5.073   2.963 -0.2855 -0.1067 -0.2672
18204W        W34338  18.638   9.340   4.007 -0.0249  0.2123 -0.2436
18205W        W34339  14.615  12.377   0.345  0.3096  0.2081  0.0291
18206W        W34340  16.587  15.315  14.512  0.1345 -0.0473 -0.2077
18207W        W34341   4.822   6.183   2.679  0.2633 -0.0339  0.0577
18208W        W34342  15.650  11.328  13.872  0.0315  0.2116 -0.1101
18209W        W34343   9.998   2.261   3.650 -0.3741  0.2880 -0.1555
18210W        W34344  12.609   8.143  12.750 -0.0727  0.1039  0.0534
18211W        W34345   8.555  16.162   0.255 -0.1851  0.0763 -0.0723
18212W        W34346  16.230  15.178   1.668 -0.1318  0.4222  0.1124
18213W        W34347   2.539  11.854   0.494  0.2713 -0.0301 -0.2608
18214W        W34348  12.992   6.581  13.001  0.4260  0.1177  0.0089
18215W        W34349   1.710   2.952  10.184 -0.1657 -0.1989 -0.2390
18216W        W34350   7.204  14.112  10.630 -0.3836  0.1236 -0.2258
18217W        W34351  12.373   0.330  12.558 -0.2735 -0.2360 -0.1294
18218W        W34352  12.215  18.297   0.123  0.3097  0.2339 -0.2574
18219W        W34353   8.014   8.301   3.748 -0.0958 -0.1680  0.0604
18220W        W34354   5.766   2.201   4.619  0.0919  0.1716  0.1611
18221W        W34355   1.740   6.007  10.722  0.0482  0.1601 -0.1713
18222W        W34356  18.427  12.889  11.358 -0.0408  0.2352 -0.0044
18223W        W34357   7.180   9.558   2.065 -0.0465  0.0159  0.0382
18224W        W34358   8.116   9.639  12.504  0.1119  0.5052 -0.1753
18225W        W34359   7.224  14.117  14.676 -0.0898 -0.0209 -0.0531
18226W        W34360  14.497   0.512   0.573 -0.0303  0.0919 -0.2682
18227W        W34361   2.464  16.522  12.057  0.3595  0.1748 -0.0394
18228W        W34362   9.781  10.852  10.695  0.1369  0.2572 -0.1806
18229W        W34363   2.431   6.735  10.482  0.2541  0.0783  0.4389
18230W        W34364   3.222   2.111   4.072  0.1843  0.1210 -0.1077
18231W        W34365  16.949  18.058   1.664  0.0942  0.2280  0.0265
18232W        W34366  17.957   8.476  14.340  0.1201  0.3098  0.2926
18233W        W34367  15.107   8.452   2.261 -0.1283  0.1246  0.2274
18234W        W34368   8.680   9.788  13.936  0.3372  0.1957 -0.2119
18235W        W34369   4.800   4.874   3.835  0.2437  0.1446 -0.0457
18236W        W34370  18.546   5.062  11.233 -0.0938 -0.3558 -0.0524
18237W        W34371   9.215  16.702  12.758 -0.0672  0.0389  0.1709
18238W        W34372   7.738  18.846  10.773  0.1864 -0.0521  0.1933
18239W        W34373  10.133   4.911   0.658 -0.3330 -0.0028 -0.4881
18240W        W34374   5.245  18.816   2.581 -0.0368 -0.0092 -0.0176
18241W        W34375   4.057   7.265   2.124  0.0498  0.0401  0.3149
18242W        W34376   9.606   5.321   2.105  0.1207  0.3327  0.1874
18243W        W34377   1.255   9.561   0.428 -0.0075 -0.0677  0.3425
18244W        W34378  18.086   3.046   3.652  0.3539  0.0313 -0.1383
18245W        W34379   2.455  17.909  12.892  0.1211 -0.2321 -0.0953
18246W        W34380  13.378  12.856  14.267  0.0167 -0.1004 -0.1434
18247W        W34381   9.957   5.450   1.133  0.1162 -0.0020 -0.0407
18248W        W34382   5.991  17.380   4.584  0.1218 -0.0686 -0.0238
18249W        W34383   7.984   0.526  14.935 -0.1077  0.0204 -0.2376
18250W        W34384   6.488  17.869  12.019  0.0660 -0.0282  0.2050
18251W        W34385   7.614  18.112  13.580  0.0169 -0.2030  0.0421
18252W        W34386  11.195   5.952   4.244 -0.1649 -0.0326 -0.2117
18253W        W34387  14.627  18.673   5.338 -0.1575  0.1014  0.2552
18254W        W34388   1.892   2.424  13.701  0.0868  0.2582 -0.0205
18255W        W34389   1.527   5.185  10.442 -0.3094 -0.2140  0.1421
18256W        W34390  14.648   6.615   0.243 -0.0072  0.0197  0.2718
18257W        W34391  14.849  15.886  11.161  0.0107  0.0969  0.0491
18258W        W34392  11.078  15.404  14.269  0.0013  0.0125 -0.0728
18259W        W34393  11.218   6.165  10.903  0.0672 -0.0144  0.0830
18260W        W34394  14.247  13.907  13.758 -0.2934 -0.1804  0.1164
18261W        W34395   4.949   7.467  12.058 -0.1993  0.2968  0.2245
18262W        W34396  14.446  12.922   0.382 -0.0254  0.1787 -0.3694
18263W        W34397   3.307   2.632   4.152 -0.0491  0.0868 -0.2388
18264W        W34398   3.203   8.712  14.244  0.1657 -0.0180  0.1887
18265W        W34399   8.429   5.631  10.889 -0.1078  0.1313 -0.0700
18266W        W34400   6.094  12.659   4.810 -0.1864 -0.2598 -0.0076
18267W        W34401   9.284  17.860   3.518 -0.0395  0.3528  0.3384
18268W        W34402   0.141   8.439   2.988  0.2545  0.0973  0.2405
18269W        W34403  15.995  17.984  12.090  0.1767 -0.2970  0.0424
18270W        W34404   0.678   4.310  14.507  0.1847  0.0151 -0.1008
18271W        W34405   5.337  15.305   9.636  0.1845 -0.0351 -0.0229
18272W        W34406  16.743  11.864   0.185  0.1250 -0.2713  0.3000
18273W        W34407  18.113   0.583   2.383  0.1375  0.0987  0.0904
18274W        W34408  13.569  19.005  11.681 -0.3737  0.4200  0.1260
18275W        W34409   2.374   8.279   4.194 -0.2638  0.2064  0.0673
18276W        W34410  11.753   4.866  14.048  0.1911  0.1441  0.2886
18277W        W34411  15.907  15.854   0.866 -0.2150 -0.3411 -0.0740
18278W        W34412   3.135  11.865   4.542 -0.1268 -0.1450  0.0227
18279W        W34413   3.870  18.002  13.574  0.0666 -0.1345 -0.1734
18280W        W34414   4.337  11.264  10.656  0.0099 -0.1348 -0.2296
18281W        W34415  12.296   9.413  13.235 -0.1729  0.0286  0.3826
18282W        W34416  13.535  11.442   4.682 -0.0767 -0.1518  0.1829
18283W        W34417  15.413  12.743  13.346 -0.2521  0.0167  0.0367
18284W        W34418  12.872   6.730  12.010  0.2602 -0.0198  0.1660
18285W        W34419  11.969   1.824  15.193  0.0891 -0.1838 -0.1380
18286W        W34420   1.428   3.851   1.315  0.0220  0.0287 -0.0961
18287W        W34421   5.811  12.429   2.497  0.1559 -0.1308  0.0706
18288W        W34422   2.833   4.518   2.585 -0.0014 -0.2234  0.0209
18289W        W34423  10.941  13.997  13.450 -0.2240  0.0236 -0.0874
18290W        W34424   4.772   9.829  14.596 -0.0643 -0.0463 -0.0874
18291W        W34425   2.977  11.221   1.016  0.1607 -0.1602  0.0824
18292W        W34426  15.388  14.834   0.926  0.2016  0.2542 -0.2472
18293W        W34427   5.186   4.753  13.809  0.1846  0.0082 -0.2648
18294W        W34428   6.204  15.652   4.987  0.4125 -0.0100 -0.1239
18295W        W34429   0.852  11.410   1.583 -0.0934  0.0440 -0.0358
18296W        W34430  15.431   2.840   3.192 -0.2151 -0.0670 -0.1317
18297W        W34431   0.860   3.935  12.672  0.0665 -0.1421  0.1118
18298W        W34432   3.697   5.477  11.746 -0.3188 -0.0332 -0.2807
18299W        W34433   6.657  10.988   5.201  0.1418  0.2602 -0.2405
18300W        W34434  12.026  16.295  13.051  0.2123 -0.0481  0.1426
18301W        W34435  16.352   3.525  13.763  0.1971  0.0157 -0.1026
18302W        W34436  12.057  10.068   2.670  0.1209  0.0965  0.3301
18303W        W34437  13.154  10.924   4.732 -0.1424  0.0319  0.0199
18304W        W34438   7.906  13.695   0.446 -0.1281 -0.4150  0.1286
18305W        W34439  15.462  10.146  13.481 -0.0295  0.0726  0.0233
18306W        W34440   6.194   0.539  13.407 -0.2420  0.1503  0.0257
18307W        W34441   2.002  17.827   6.017 -0.1744  0.0117 -0.0865
18308W        W34442   0.973   4.485  12.028  0.0137  0.1671  0.2355
18309W        W34443   3.424   1.261  12.069  0.0000 -0.1348  0.1409
18310W        W34444   3.735   5.662   9.964  0.0212  0.1659  0.2832
18311W        W34445  12.486  19.044   1.812  0.2143  0.1145 -0.1145
18312W        W34446  13.091   7.288   5.122  0.1201  0.2632 -0.3293
18313W        W34447  15.831  13.961  10.682 -0.1628 -0.0843  0.3552
18314W        W34448   1.916  10.199   4.065 -0.0569 -0.3005 -0.4581
18315W        W34449  13.655  11.238  12.846 -0.0931 -0.1424 -0.1743
18316W        W34450   5.956   7.879   2.226 -0.0307 -0.1728  0.1857
18317W        W34451  18.582  12.403  14.300  0.0046  0.0013  0.4215
18318W        W34452  16.947  13.167   4.051 -0.0485  0.1250 -0.1562
18319W        W34453   2.256  17.768   0.662  0.0850 -0.1689  0.0717
18320W        W34454   5.195   8.671  10.890 -0.1012  0.0778 -0.0883
18321W        W34455  10.886   0.682  12.296 -0.0947 -0.1177  0.2241
18322W        W34456   3.831   9.521   2.556 -0.0845 -0.0356 -0.1818
18323W        W34457   5.714   6.626   1.680  0.1984 -0.1249  0.1559
18324W        W34458   3.177  18.646   5.005  0.1367 -0.1971  0.0570
18325W        W34459  15.953  14.901  14.565 -0.1549 -0.0140 -0.3717
18326W        W34460  18.975   1.801  11.273 -0.1494  0.0872  0.1850
18327W        W34461   2.434  13.124  14.093  0.3222  0.2171 -0.1798
18328W        W34462   0.390  16.045  13.764  0.1711  0.0615  0.6445
18329W        W34463  11.122   9.042   2.862 -0.0076  0.2146  0.2131
18330W        W34464   1.110   9.933   3.715 -0.2092  0.1816 -0.0144
18331W        W34465   7.623  11.893   6.272 -0.2826  0.0621  0.2607
18332W        W34466   6.040  18.288   1.276 -0.1406  0.1227 -0.1131
18333W        W34467   9.975   1.094   1.157  0.0962 -0.1727 -0.1219
18334W        W34468  18.005  17.851   2.866 -0.2612 -0.2389 -0.4035
18335W        W34469  18.602   1.423  13.005 -0.0412  0.4463 -0.3514
18336W        W34470   0.628  13.176   4.569 -0.0172  0.1594 -0.1392
18337W        W34471   0.628  11.196   0.635  0.1896 -0.0287 -0.2386
18338W        W34472  10.429  15.183   4.023 -0.1628  0.3217  0.0624
18339W        W34473  12.976   5.396  14.676  0.0421 -0.1435  0.3939
18340W        W34474   2.800  12.971   3.448  0.0681  0.3514 -0.0563
18341W        W34475  14.808   4.200   3.558  0.2410  0.3948  0.1451
18342W        W34476  11.961   2.689   2.563  0.0611  0.1151 -0.1371
18343W        W34477   2.167  10.555  12.275  0.0762  0.0789  0.0997
18344W        W34478  14.487   6.295   3.396 -0.1206 -0.0972  0.3260
18345W        W34479   1.857  10.962  10.583 -0.2209  0.4040  0.0551
18346W        W34480  12.541   7.177   4.560 -0.2534  0.0848  0.0491
18347W        W34481   7.270   7.979  11.059  0.2186 -0.0117  0.0688
18348W        W34482   6.466   0.310   0.820  0.0798  0.0391  0.3775
18349W        W34483  17.586   4.457  11.152 -0.0199 -0.2079  0.0216
18350W        W34484  17.998  12.755  12.705 -0.0574  0.1234  0.2376
18351W        W34485   6.125  16.219   1.903  0.1513 -0.0186  0.0742
18352W        W34486  10.485  13.660  11.942  0.1019 -0.3402 -0.0677
18353W        W34487  16.480   2.688  11.169 -0.0438  0.2193  0.0355
18354W        W34488   8.158   0.581   5.631 -0.0818 -0.1746 -0.2147
18355W        W34489  18.333   9.864   4.819 -0.0407  0.0735  0.1705
18356W        W34490   8.600   7.466  14.313  0.1271 -0.0875  0.2128
18357W        W34491   6.652   0.521  11.717 -0.1631 -0.1630 -0.0743
18358W        W34492  12.333   7.271  10.621  0.0674  0.0839  0.1684
18359W        W34493  16.198   7.512   3.367 -0.3345 -0.1648 -0.0084
18360W        W34494   8.483  15.061   3.430  0.2727 -0.2725 -0.1006
18361W        W34495  13.379  16.712   0.302  0.2842  0.0270 -0.2216
18362W        W34496   7.350  15.370   0.749  0.0596  0.0150 -0.0304
18363W        W34497  16.194  14.924   2.114 -0.4746  0.0266 -0.1089
18364W        W34498   5.182   4.397  13.147  0.0149  0.0825 -0.4486
18365W        W34499   4.225   4.304  12.690 -0.0415  0.0437  0.1962
18366W        W34500  16.498  13.192   5.061 -0.4128 -0.2013  0.1520
18367W        W34501  16.088   6.257  13.750  0.3459 -0.5044 -0.3902
18368W        W34502  16.536  15.790  14.240  0.1818  0.1656  0.2900
18369W        W34503   9.948   0.067   0.327 -0.0369 -0.5269 -0.0146
18370W        W34504   3.896   2.306  10.962 -0.2842 -0.2767  0.1123
18371W        W34505  13.587  15.119  11.793 -0.0749  0.0174  0.0209
18372W        W34506   2.984  14.620   5.066 -0.0171  0.3464 -0.0676
18373W        W34507   0.364   0.445  13.104 -0.0189 -0.1375 -0.1876
18374W        W34508  14.005  18.489  12.501  0.0699 -0.0694 -0.5251
18375W        W34509   3.437   5.078  12.196 -0.1994  0.0907  0.0331
18376W        W34510   8.146  13.896  10.523  0.1685  0.3311 -0.0984
18377W        W34511  13.941  16.127  10.735 -0.0872  0.2845  0.3361
18378W        W34512  18.869  15.882   3.924  0.0487  0.3479  0.1657
18379W        W34513   6.958   6.899  14.108 -0.2710  0.1904 -0.2638
18380W        W34514   1.814   1.315   0.867 -0.3487 -0.1922 -0.0303
18381W        W34515  14.895   8.680   1.547  0.2864 -0.1606  0.3367
18382W        W34516   6.309   3.493  11.263 -0.0610 -0.3302 -0.0500
18383W        W34517   1.619   3.430  10.142  0.0773 -0.0325  0.0870
18384W        W34518   6.356  11.236   3.801 -0.0898 -0.3120  0.0760
18385W        W34519   7.053   5.367  11.976  0.0255  0.2109 -0.0489
18386W        W34520   8.898   7.846  11.885 -0.1196  0.1827  0.2852
18387W        W34521  16.243   4.938  14.651  0.1964  0.1839  0.0516
18388W        W34522  15.431   8.749  14.210  0.1539  0.0243  0.2803
18389W        W34523   7.846  13.546   3.340 -0.2381 -0.2071 -0.1703
18390W        W34524   9.401  17.800  10.281  0.2272  0.1811  0.0336
18391W        W34525   8.340   7.014  14.179 -0.1283 -0.1190  0.0148
18392W        W34526  17.676   6.961  11.096  0.1854 -0.0978  0.1097
18393W        W34527   5.248   0.841  14.044 -0.1331  0.1492  0.2174
18394W        W34528  18.891   3.993   2.222  0.4282 -0.1871 -0.0719
18395W        W34529  17.222  17.104  11.857 -0.2608  0.0480  0.4464
18396W        W34530   9.820   0.550  13.398 -0.0767  0.1262 -0.1222
18397W        W34531   0.687   7.121  12.292  0.2468 -0.2672 -0.0265
18398W        W34532  13.635   4.763  10.998  0.0693  0.1959  0.1328
18399W        W34533  18.888   6.696   1.873 -0.0416 -0.1323 -0.1893
18400W        W34534   6.593  18.960  14.512  0.0120 -0.0650  0.2923
18401W        W34535  12.641  12.220  11.632 -0.2683  0.1420  0.2243
18402W        W34536  18.285  10.401   1.982  0.0197 -0.3259 -0.0040
18403W        W34537   4.924   3.580  12.532  0.0012 -0.2788 -0.0277
18404W        W34538   8.473   6.434  10.188 -0.0800 -0.0776 -0.0656
18405W        W34539   8.632  16.953   4.160  0.0836  0.0376 -0.0305
18406W        W34540   2.221   2.878  12.154  0.1108 -0.0995  0.0593
18407W        W34541  15.638  14.829   4.246  0.1869  0.0572 -0.2621
18408W        W34542   7.616  11.293  13.209  0.3082  0.3056  0.3629
18409W        W34543   7.502  18.146   2.770 -0.2888 -0.1472 -0.1849
18410W        W34544  17.101  18.070  13.141 -0.3141 -0.0600  0.0098
18411W        W34545  14.235   4.742  13.008  0.3665  0.0448 -0.0449
18412W        W34546   4.434   4.006   4.226 -0.1971  0.0810  0.2538
18413W        W34547   7.572   3.920   4.262  0.1109  0.1615  0.0998
18414W        W34548   3.636   7.710   2.123 -0.3246  0.3289  0.1940
18415W        W34549  16.648   8.875   9.876 -0.1667 -0.2888  0.0551
18416W        W34550  12.133  11.915  13.710 -0.1524 -0.3421 -0.3674
18417W        W34551   3.814  14.455   3.809 -0.0735  0.2655  0.0523
18418W        W34552   9.459   9.836   2.824 -0.0967  0.2636  0.0338
18419W        W34553   4.638  14.953  12.678  0.2544 -0.0067  0.0537
18420W        W34554   5.708   5.511  10.809  0.0409 -0.1011 -0.1944
18421W        W34555  18.038   5.920   1.295 -0.0524 -0.0167  0.0777
18422W        W34556  15.758   8.338  12.682 -0.3717  0.3079 -0.4123
18423W        W34557   6.819   2.981  11.469 -0.1029  0.3457  0.0446
18424W        W34558  14.885  14.825   5.432 -0.1061  0.2394  0.1092
18425W        W34559  13.006   7.777  12.230 -0.3967 -0.2333  0.4436
18426W        W34560  13.112  16.218   0.195 -0.1090 -0.0235  0.1614
18427W        W34561   2.798  10.732  12.037  0.1351  0.2940 -0.1880
18428W        W34562  15.380  18.726  13.050 -0.1067 -0.0112  0.2713
18429W        W34563  19.005  14.482   0.045  0.1015 -0.1610 -0.0310
18430W        W34564  11.658  16.763  14.556 -0.2660 -0.1947 -0.0337
18431W        W34565  12.035  15.674  12.077 -0.2713  0.1014  0.0571
18432W        W34566  18.235  16.451   3.951  0.0789 -0.1504 -0.1833
18433W        W34567  13.956  11.045   2.069 -0.4444 -0.0389  0.0437
18434W        W34568   1.299   1.365  14.544  0.0351  0.2043  0.0383
18435W        W34569  11.469   7.858   2.620  0.0453 -0.0670 -0.1762
18436W        W34570   6.523  12.663   3.552 -0.0917 -0.0811  0.1851
18437W        W34571   4.633   5.693   0.466  0.5052  0.1517 -0.3636
18438W        W34572   7.484  18.323   2.296  0.2695  0.0143 -0.1974
18439W        W34573   2.587  12.960   0.098 -0.0173  0.1625 -0.0001
18440W        W34574   6.574   5.537   4.775  0.0709  0.2357  0.0947
18441W        W34575  13.381   2.192   0.952 -0.3249  0.1231  0.1083
18442W        W34576  13.568   1.449   4.304  0.0061 -0.0611 -0.1500
18443W        W34577  16.640   9.182  15.037 -0.0922  0.2123 -0.1100
18444W        W34578  14.665   2.338  12.421  0.1098  0.0822 -0.2101
18445W        W34579  14.108   8.947   2.015  0.3431  0.0846  0.1982
18446W        W34580  18.320   7.667   5.167 -0.2546 -0.0916  0.1494
18447W        W34581   6.879  11.083   2.844  0.0995  0.2158 -0.1842
18448W        W34582  14.619  10.565   0.473 -0.3318 -0.3219  0.3351
18449W        W34583  18.347  13.373  13.977  0.2000  0.0396  0.3825
18450W        W34584   8.977   8.476  13.464  0.1152 -0.0221  0.2301
18451W        W34585   7.494  15.989   2.092  0.2289  0.0169  0.1991
18452W        W34586  17.983  17.544   4.064  0.1518  0.2052 -0.1245
18453W        W34587  13.203   2.024  11.955 -0.0949  0.1450 -0.0033
18454W        W34588  13.727  16.297  12.319 -0.1774  0.0092 -0.1236
18455W        W34589   5.903   6.097   0.310  0.2433 -0.1615 -0.2037
18456W        W34590   9.205   4.989  12.535  0.1903  0.0094 -0.0844
18457W        W34591   9.357   6.682  11.917  0.0997  0.1143 -0.1610
18458W        W34592   9.586   6.843  14.029 -0.1288  0.2250  0.2346
18459W        W34593   1.160  18.275   1.452  0.1428 -0.1402 -0.0337
18460W        W34594  19.069   1.084   1.604  0.1511 -0.1456 -0.0539
18461W        W34595   0.580  18.694  10.797  0.0321 -0.1084  0.2726
18462W        W34596   9.462  11.158   2.624  0.2251  0.0986 -0.0044
18463W        W34597  10.827   3.520  15.131 -0.2625 -0.0019 -0.2598
18464W        W34598   7.779  17.454  14.900 -0.1598 -0.1704 -0.0642
18465W        W34599  16.407   5.457  11.858  0.0378 -0.0459 -0.0097
18466W        W34600  10.912  10.287   5.587  0.3722  0.2454  0.0316
18467W        W34601  15.649   2.986  11.365  0.0240 -0.4805 -0.1199
18468W        W34602   5.332  11.940  11.295  0.1033 -0.0904 -0.0605
18469W        W34603   9.247   3.883   4.649 -0.0137  0.0876  0.0446
18470W        W34604   1.056   6.231   1.690 -0.1374  0.0160  0.0010
18471W        W34605  10.611   9.116  10.604  0.2155 -0.3045 -0.0901
18472W        W34606  11.659  11.213   4.981 -0.0539  0.1828 -0.2756
18473W        W34607  11.601  14.753  11.379 -0.0860  0.0785  0.3642
18474W        W34608  12.371   6.744  11.500 -0.1913  0.0713 -0.1322
18475W        W34609   8.918  13.824  13.890 -0.0708 -0.4831  0.1941
18476W        W34610   0.822   9.718  10.456 -0.2786  0.0788  0.2816
18477W        W34611  10.851  11.051   3.238  0.0166 -0.1153  0.0685
18478W        W34612  17.436   7.513   3.240 -0.3858  0.0807 -0.2037
18479W        W34613   4.399   8.329  13.915 -0.1928  0.1268  0.1371
18480W        W34614  17.890   5.721  12.278 -0.1223 -0.4144  0.3134
18481W        W34615   0.552  15.617  11.468  0.1154  0.1249  0.1832
18482W        W34616   5.471  17.754   4.149 -0.4345 -0.1809 -0.1738
18483W        W34617   1.399  15.390   3.249 -0.1193  0.1819 -0.0923
18484W        W34618  16.998  10.134   2.924  0.4121 -0.0491 -0.2501
18485W        W34619   4.924  12.679   5.343  0.2562 -0.0221  0.1490
18486W        W34620   1.701  14.999  13.755 -0.2610 -0.1366 -0.2140
18487W        W34621  11.983  16.641  12.270 -0.1566  0.0620  0.1416
18488W        W34622  12.214   3.838   0.193 -0.0289  0.3196  0.0601
18489W        W34623  17.560   7.085  12.945 -0.0446 -0.2727  0.0418
18490W        W34624  17.023  12.179  10.477  0.0425  0.0388 -0.1302
18491W        W34625  13.176  17.098   2.806 -0.0838 -0.0037 -0.0190
18492W        W34626   0.507  13.059   2.278 -0.1651  0.1735  0.0654
18493W        W34627   5.368  13.961   1.121 -0.0178 -0.0013 -0.2934
18494W        W34628  12.886   1.422  11.545 -0.2758  0.1228 -0.0391
18495W        W34629  16.627  16.565  14.575  0.2582 -0.1548 -0.0171
18496W        W34630   4.890   5.612  13.952  0.0074 -0.1380  0.0568
18497W        W34631  12.427   3.139  12.830 -0.2047 -0.2195  0.0680
18498W        W34632   5.207  12.276  14.596 -0.0028  0.0011 -0.1538
18499W        W34633  13.736   6.571   2.088 -0.1258  0.0437  0.0515
18500W        W34634  15.193   7.277  11.643 -0.3848  0.1587  0.1409
18501W        W34635  14.940  11.913   3.853 -0.0289 -0.0439 -0.0204
18502W        W34636   4.714   7.416   1.350  0.0885  0.1500 -0.0310
18503W        W34637   9.242   2.333   0.845 -0.0273  0.2320  0.5510
18504W        W34638   7.125  18.703   1.485  0.0205  0.4558  0.0056
18505W        W34639   2.607  17.037   2.912 -0.0066 -0.1305 -0.0419
18506W        W34640   3.364   0.942  10.657  0.1603  0.1214 -0.0236
18507W        W34641   1.930  13.674  14.113 -0.1531  0.1977  0.0905
18508W        W34642   2.508  18.118   2.518  0.2181  0.0033  0.2127
18509W        W34643   2.707  12.058  10.385 -0.0322 -0.0465 -0.2701
18510W        W34644  12.917   8.655   4.382 -0.1682 -0.2641 -0.2384
18511W        W34645  12.863  19.019   2.379  0.2272 -0.1941  0.1513
18512W        W34646  13.413  18.453  14.388 -0.0223 -0.1417  0.1038
18513W        W34647   8.939   5.460   3.392 -0.2732  0.2338  0.2392
18514W        W34648  15.181   8.548   1.133 -0.1307 -0.2016 -0.1434
18515W        W34649  11.934   9.985  12.084  0.1781 -0.2349  0.2707
18516W        W34650   4.368  11.749   1.179  0.2051 -0.0898 -0.3181
18517W        W34651   8.410   4.910  14.932 -0.0059 -0.0391 -0.0738
18518W        W34652  16.313  15.679   4.719  0.1057  0.1325 -0.0167
18519W        W34653   5.598  16.627  11.580 -0.3080 -0.0936 -0.1176
18520W        W34654   8.796  16.541  12.932  0.1125 -0.0790  0.1379
18521W        W34655  14.008  12.773   0.281  0.1253 -0.1543  0.3893
18522W        W34656  17.689  14.443  13.511 -0.0361  0.2109 -0.2533
18523W        W34657  18.514  19.055  10.336  0.1991 -0.0887  0.0685
18524W        W34658   8.701   1.160   3.248 -0.3674  0.0430  0.1045
18525W        W34659   6.988   0.236   0.746 -0.1758  0.0515 -0.0868
18526W        W34660  17.448  11.925  10.463  0.1244  0.2063 -0.2085
18527W        W34661  14.899  10.300  12.009  0.2014  0.2725  0.3701
18528W        W34662  17.726  10.597  14.113  0.3873  0.0045 -0.1036
18529W        W34663   3.365   3.730  10.851  0.0288 -0.5336 -0.2372
18530W        W34664   4.536  17.315  11.614  0.2052  0.0013 -0.1449
18531W        W34665  16.460  13.464  13.248  0.0410  0.1214 -0.1421
18532W        W34666  11.005   1.968   0.765  0.2242 -0.1338 -0.1544
18533W        W34667  14.063   0.742   2.816  0.2412 -0.2069  0.1072
18534W        W34668  15.003   5.492   0.092  0.0006 -0.2359 -0.0078
18535W        W34669  18.604  11.702  10.568  0.2145  0.0230  0.1794
18536W        W34670  12.169   7.648  11.587  0.1508 -0.3750  0.1035
18537W        W34671  15.820   4.651   2.897  0.1576 -0.3476  0.2156
18538W        W34672  16.133   6.228  14.320  0.0412  0.2613 -0.1993
18539W        W34673   1.988   9.139  14.545  0.0792 -0.1122  0.2603
18540W        W34674   2.909   1.246  12.673 -0.1189 -0.0683 -0.3388
18541W        W34675  18.218  11.717   1.347 -0.1366  0.1461 -0.0113
18542W        W34676  16.941  12.752  12.346  0.0574 -0.2175  0.0389
18543W        W34677   9.371   5.947   1.192  0.0483  0.1178 -0.1743
18544W        W34678   6.127  15.021  11.089 -0.1755  0.0828 -0.1612
18545W        W34679   3.496  18.771  15.185 -0.1837 -0.0938  0.1817
18546W        W34680   7.417  16.125   1.412 -0.1680 -0.1182  0.1514
18547W        W34681   2.734  14.621   4.529 -0.1071 -0.1882 -0.1555
18548W        W34682   4.926  16.214   4.179 -0.0860  0.1846 -0.1605
18549W        W34683  15.714   8.776  13.406 -0.0183  0.0087 -0.0291
18550W        W34684  13.265  15.964   1.792  0.3350  0.3765 -0.5336
18551W        W34685   2.074   4.247   0.357 -0.0412  0.0196 -0.3140
18552W        W34686   2.617  12.718  11.352  0.1998 -0.3186 -0.2046
18553W        W34687   6.974   2.659  11.067 -0.0782 -0.1835 -0.1665
18554W        W34688  10.377   1.841   2.512 -0.0714  0.1342 -0.0280
18555W        W34689  17.737   6.683   0.125  0.1385 -0.1112 -0.0407
18556W        W34690   0.805  12.251  14.045 -0.0128 -0.0238  0.3006
18557W        W34691  11.048   6.388  12.376  0.2195  0.0601  0.0338
18558W        W34692  14.758  16.518  14.256 -0.0064 -0.0074 -0.0794
18559W        W34693  15.013  14.828   4.282  0.1015 -0.0611 -0.0514
18560W        W34694  16.820  18.981   4.026  0.1529 -0.3090 -0.0467
18561W        W34695   8.727   7.497  12.235  0.1282  0.1773 -0.1718
18562W        W34696  13.291   2.997  14.671  0.2597 -0.2123  0.3235
18563W        W34697  17.153  17.510   3.457 -0.5363  0.1135  0.2666
18564W        W34698  10.543   6.518   2.392 -0.1341 -0.1299  0.2797
18565W        W34699   1.780  17.357  14.705 -0.2282 -0.2113  0.1372
18566W        W34700   6.089  10.845  15.088  0.2189  0.0002  0.0352
18567W        W34701  13.760   1.887   0.265 -0.2134  0.0817 -0.2239
18568W        W34702   3.871  13.017  13.213  0.2414  0.3222  0.2279
18569W        W34703   5.025   4.295   0.786 -0.0767 -0.1418 -0.0023
18570W        W34704  15.765   7.707   2.978 -0.0214  0.0608  0.0344
18571W        W34705   5.636   7.634   5.846 -0.1543  0.2074 -0.3563
18572W        W34706  18.545   4.927  15.126 -0.0228  0.2992 -0.0028
18573W        W34707  12.551   7.156  13.588  0.3000  0.2031  0.0539
18574W        W34708   6.700  16.734  13.167  0.3848  0.0149  0.3125
18575W        W34709  12.339  16.232   0.863  0.0071 -0.1397 -0.1236
18576W        W34710   9.805   3.649  12.174  0.2167 -0.0528  0.1787
18577W        W34711   5.026   8.808   4.024 -0.1306 -0.0399 -0.0096
18578W        W34712  17.752   6.913  11.915 -0.3004 -0.2630  0.3209
18579W        W34713  18.109   4.008  12.773 -0.1519 -0.0973 -0.3962
18580W        W34714   7.679  17.294   2.308 -0.1567 -0.2839  0.3602
18581W        W34715  14.748  15.616   9.129 -0.3123  0.0190 -0.0177
18582W        W34716   7.497  10.484  13.703 -0.2337 -0.3908 -0.1743
18583W        W34717  18.468   7.472  13.497  0.2878  0.1856  0.1469
18584W        W34718   0.067   1.121  12.080 -0.0172  0.0386 -0.0173
18585W        W34719  10.235  18.470   4.051 -0.0663 -0.2856 -0.0114
18586W        W34720   8.483   1.906  14.962  0.0264 -0.0490 -0.0372
18587W        W34721   1.880   9.541  10.472  0.0627 -0.3779  0.0233
18588W        W34722  16.160   1.435  14.324  0.1334  0.2631 -0.1493
18589W        W34723   5.523   1.163  11.199  0.1813 -0.1692  0.1878
18590W        W34724   6.716  16.258  12.924  0.1411 -0.2108 -0.0099
18591W        W34725   0.051   7.402   0.395 -0.0973  0.0623  0.1435
18592W        W34726  17.748  17.521  13.410  0.0830  0.0067 -0.1831
18593W        W34727   0.575  16.699  14.969 -0.0724  0.0815  0.1220
18594W        W34728  13.542  11.805   0.863  0.1164  0.0338  0.3679
18595W        W34729  16.663  15.891   1.221 -0.0764  0.0845 -0.4765
18596W        W34730  17.616   8.814   4.809 -0.1519  0.1433  0.0810
18597W        W34731   8.701   7.233   1.665 -0.0775  0.0351  0.1518
18598W        W34732  13.642   4.154  14.960  0.3649  0.0634 -0.0208
18599W        W34733   0.750   2.254  10.868  0.2896  0.0756  0.0821
18600W        W34734   7.467  17.809  12.370 -0.0424  0.1922 -0.1670
18601W        W34735  18.922   1.044   4.690  0.5039 -0.3304  0.0537
18602W        W34736   7.148  17.245   1.265 -0.1401  0.0251  0.1237
18603W        W34737   6.658   1.597  14.539  0.1601 -0.1216 -0.0309
18604W        W34738   6.519  16.119   1.242  0.2347 -0.2153  0.1421
18605W        W34739  14.698   9.579   3.645  0.1662  0.1957  0.0858
18606W        W34740   4.927   3.976  11.852  0.0674  0.0427  0.0711
18607W        W34741  18.181  13.521  12.544  0.3018 -0.1195 -0.0251
18608W        W34742   9.907  10.651  13.438 -0.3035 -0.1385  0.2364
18609W        W34743  17.967   1.992   1.720 -0.0746 -0.1648 -0.2787
18610W        W34744   7.390   4.451   4.091 -0.1636  0.0033 -0.0538
18611W        W34745   1.214   7.936   0.699 -0.2817 -0.1215 -0.0649
18612W        W34746   3.998   4.091  11.703 -0.0730 -0.1678 -0.4793
18613W        W34747   1.680  10.924   4.411 -0.1556 -0.0126  0.0353
18614W        W34748  18.865  10.742   0.594  0.0417 -0.0447 -0.1816
18615W        W34749  12.121   1.830  14.649 -0.1391 -0.1460  0.0945
18616W        W34750   4.007  11.286  12.411 -0.1880  0.0552  0.0519
18617W        W34751  14.507   6.752   3.738  0.1394 -0.2679  0.0253
18618W        W34752  16.975  14.603  11.018  0.4115  0.0816 -0.0354
18619W        W34753  19.109   8.530  14.860 -0.2915 -0.1434  0.0748
18620W        W34754   9.257   6.623   0.398  0.1661 -0.0110 -0.2592
18621W        W34755   7.007  12.759  11.119 -0.2769 -0.3070  0.1473
18622W        W34756   9.576   6.856   3.447 -0.1541 -0.2713 -0.0775
18623W        W34757  17.203  11.194  11.615  0.0986  0.1892  0.0707
18624W        W34758   1.553  17.516  10.472  0.2566  0.2350 -0.3641
18625W        W34759  16.499   1.910   0.763  0.1297 -0.4625 -0.0667
18626W        W34760  16.143  12.258   3.691 -0.0814 -0.2632  0.0436
18627W        W34761  10.971  16.450   9.888 -0.1646  0.0119  0.1017
18628W        W34762  18.651  12.154   4.357  0.3217 -0.0450 -0.4067
18629W        W34763  10.196  19.142   4.678 -0.0136  0.1813 -0.3351
18630W        W34764  11.156   5.296   0.519  0.1874  0.1156 -0.4244
18631W        W34765  15.905   3.359  15.041 -0.2269  0.0615  0.0881
18632W        W34766   9.368  14.680   3.554 -0.0670  0.1587 -0.2411
18633W        W34767  19.057   7.058  12.813 -0.0307  0.1139  0.2534
18634W        W34768  14.681   1.126   1.848 -0.0018  0.0756 -0.2535
18635W        W34769   9.134  17.294   3.466 -0.1011 -0.2365  0.1295
18636W        W34770  16.482   4.455   4.066  0.3487 -0.0235  0.0486
18637W        W34771  14.232   7.372   4.809 -0.2042  0.0669  0.1860
18638W        W34772  16.943  16.775   1.597  0.2158  0.3743  0.1042
18639W        W34773   1.564  14.129   0.325  0.0853 -0.0874 -0.3712
18640W        W34774   3.619  10.275   5.287  0.0401  0.0065  0.2212
18641W        W34775  12.862   6.795   4.232 -0.1443 -0.0841  0.1864
18642W        W34776  16.859   2.774  12.447 -0.4520  0.3549  0.0142
18643W        W34777   3.945  15.165   3.659  0.0651  0.1967  0.1286
18644W        W34778  10.172  15.150   1.947 -0.0790  0.0959  0.2456
18645W        W34779  17.916  15.733   2.931 -0.1083 -0.0817  0.2514
18646W        W34780  16.661  14.384   1.325  0.1857 -0.1861 -0.0656
18647W        W34781   7.920   9.659   0.065 -0.0072 -0.0248 -0.0502
18648W        W34782  17.290   6.259   0.981 -0.4303 -0.2512  0.2808
18649W        W34783   0.160   2.451   3.073 -0.2738  0.2936 -0.0300
18650W        W34784  16.426  15.678  11.847 -0.1844  0.1699  0.0346
18651W        W34785   2.978   5.220  10.855  0.0327  0.0434  0.0595
18652W        W34786  11.064  18.328   0.535  0.0668  0.0215 -0.0000
18653W        W34787  12.956  12.106  13.435 -0.0745  0.0771  0.2457
18654W        W34788   9.035   9.636   0.021 -0.2037 -0.3128  0.0805
18655W        W34789  17.893   1.281  12.351 -0.2267 -0.2126  0.0712
18656W        W34790  11.310   9.495  15.004 -0.0951  0.0323 -0.1657
18657W        W34791  14.375  16.829  14.442  0.3312 -0.2627 -0.0442
18658W        W34792  14.270   8.802  15.115 -0.1812  0.1080 -0.0098
18659W        W34793   0.638   3.725  12.192  0.0588  0.1213 -0.0782
18660W        W34794  14.521   2.321  11.938 -0.1445 -0.0760 -0.0528
18661W        W34795   1.007   7.143  14.035  0.1339  0.0840 -0.0420
18662W        W34796   7.069  16.703  14.007 -0.2809 -0.0112 -0.0356
18663W        W34797   3.949   6.069  15.181 -0.2039  0.1018  0.2344
18664W        W34798  18.583   9.740  12.643 -0.0129  0.1859  0.1792
18665W        W34799   2.351   7.295   0.819  0.0576 -0.0064 -0.1144
18666W        W34800   3.473   0.716  11.620 -0.3808 -0.0414 -0.2700
18667W        W34801   4.957  10.375  10.200 -0.0683 -0.0866  0.3761
18668W        W34802   7.082   2.376  13.086  0.0193  0.1030 -0.3088
18669W        W34803  16.189  18.098   4.937 -0.0923 -0.2489 -0.0224
18670W        W34804   6.624  17.056   3.742  0.0738 -0.0349 -0.1495
18671W        W34805   1.222  10.593  10.161 -0.2872  0.1759 -0.2889
18672W        W34806   9.794  19.110   2.083  0.0534 -0.2689  0.1044
18673W        W34807  15.743  13.473  14.408 -0.1826 -0.4211  0.0655
18674W        W34808  19.061   1.399  14.369 -0.1298 -0.0968 -0.2072
18675W        W34809   1.475  14.341  13.659  0.1426  0.1217  0.2042
18676W        W34810  11.466   1.152  12.684 -0.0818 -0.0176  0.2155
18677W        W34811  14.443  11.812  10.506  0.2764  0.0616  0.1331
18678W        W34812  12.859  10.510   2.667  0.0568 -0.0045  0.0045
18679W        W34813   3.828  17.507   3.247  0.0429 -0.0033 -0.0605
18680W        W34814  14.593  16.620   0.901  0.0934  0.1151 -0.2411
18681W        W34815   7.552   8.240   5.146 -0.1334  0.1852 -0.0066
18682W        W34816   3.492  16.118   3.245 -0.1558 -0.1651  0.2763
18683W        W34817   0.889   0.460  14.808  0.0139 -0.1712 -0.3062
18684W        W34818  17.770   0.213   4.932  0.2351 -0.0548 -0.0918
18685W        W34819  13.611   2.283  12.144 -0.1333  0.0673  0.3217
18686W        W34820   0.097  13.383   1.311 -0.0228 -0.0467 -0.3698
18687W        W34821   7.439  15.873  13.674 -0.3582 -0.1463 -0.2127
18688W        W34822  17.495  15.333   0.268  0.0703  0.0559  0.0159
18689W        W34823  13.598   6.205  12.204  0.0892  0.2690 -0.0310
18690W        W34824  13.433   7.508  12.083 -0.0224  0.0730 -0.1683
18691W        W34825   7.673   1.583  12.054 -0.0999 -0.1089  0.4903
18692W        W34826  16.823   3.051   9.789  0.0608 -0.2672 -0.0992
18693W        W34827  16.410  16.703   2.063 -0.2968  0.0036 -0.0589
18694W        W34828  16.876   3.108   5.745 -0.0903  0.0748  0.1393
18695W        W34829  17.395   7.374  14.697  0.0771  0.0341 -0.1715
18696W        W34830  14.307   5.415   1.842 -0.0357  0.0825  0.2082
18697W        W34831   8.204  12.075   4.508 -0.0396  0.2356 -0.0567
18698W        W34832  14.212  13.650  10.280  0.0079 -0.0310  0.1144
18699W        W34833  18.502   0.438   9.405  0.1123 -0.0735  0.2718
18700W        W34834  12.896  13.545   3.185  0.0824 -0.1758 -0.2308
18701W        W34835   3.699  11.464   3.566 -0.0212  0.0734 -0.0499
18702W        W34836  10.242   2.034  11.026  0.0068  0.1727 -0.0392
18703W        W34837  10.042  10.628  14.823  0.4729  0.2019 -0.0295
18704W        W34838   9.106   6.682  14.258  0.2878  0.0393  0.1109
18705W        W34839   3.863  17.104   3.987 -0.2864 -0.0480 -0.3072
18706W        W34840   2.102  14.537  12.381  0.0683 -0.0955 -0.1735
18707W        W34841   7.982  16.010  14.762 -0.1163 -0.1396 -0.1552
18708W        W34842   5.899   3.063  12.597  0.1160  0.2752  0.1693
18709W        W34843  10.221   1.754  12.451 -0.3332  0.3586  0.2352
18710W        W34844   2.866   5.361  11.825 -0.3167  0.0538 -0.2278
18711W        W34845   6.247   8.095  10.871  0.2232  0.1773  0.0623
18712W        W34846   5.697   2.336  15.203  0.1864  0.1898 -0.0663
18713W        W34847  19.146  18.565   3.658  0.0534  0.0619  0.0517
18714W        W34848   1.440  18.715  11.968 -0.1435  0.2753 -0.4082
18715W        W34849   4.852   1.968   1.381 -0.2341 -0.3874 -0.2690
18716W        W34850   6.339   6.903  14.228 -0.1396  0.1677  0.4496
18717W        W34851   7.218   7.988  12.757 -0.0643 -0.1735  0.1369
18718W        W34852  17.832  10.109  11.561 -0.3541  0.0578 -0.1622
18719W        W34853   9.268  11.784   4.355 -0.1069 -0.3161  0.2997
18720W        W34854   3.730   4.450   1.212 -0.1385 -0.0765 -0.0278
18721W        W34855   8.696   6.152  12.105 -0.0835 -0.5575 -0.1562
18722W        W34856  11.710  18.152   4.953  0.1052 -0.1597  0.1362
18723W        W34857   7.261  11.198  14.610  0.0123 -0.1018  0.2287
18724W        W34858  16.691   5.288   0.993 -0.0211  0.3601  0.0768
18725W        W34859  12.023   3.178   1.476  0.0349 -0.0363  0.0376
18726W        W34860  17.174   8.830   1.669  0.1615 -0.2056 -0.0656
18727W        W34861  14.378   7.635  13.131  0.0124 -0.1043  0.1143
18728W        W34862   1.893   5.501   0.241  0.2430 -0.2685 -0.2788
18729W        W34863   7.884   1.776   2.335  0.1523 -0.3783 -0.0717
18730W        W34864  17.237   8.726   0.815 -0.0248  0.0158 -0.1958
18731W        W34865  15.657   1.494   2.841  0.1983 -0.0919 -0.0086
18732W        W34866   7.515   5.216   3.905 -0.1871  0.1468  0.1645
18733W        W34867  17.748  18.909  10.709  0.5154 -0.1214  0.0437
18734W        W34868   7.875   3.188   9.857  0.2271  0.3847  0.1353
18735W        W34869  15.178   2.244   0.475  0.0135 -0.0180  0.0160
18736W        W34870   3.894  15.288   2.286 -0.0776  0.0881  0.2791
18737W        W34871  12.246  14.740  14.063 -0.1314 -0.1763  0.3489
18738W        W34872  18.520   8.200   3.557  0.1152 -0.0419 -0.2404
18739W        W34873   3.712  17.575   2.191 -0.3105 -0.2617 -0.1665
18740W        W34874  16.663  18.858   4.480 -0.1858 -0.0352  0.0337
18741W        W34875  10.478   3.503  14.684 -0.0046 -0.0530  0.0680
18742W        W34876  17.382   1.310  13.525 -0.0014  0.1766 -0.2360
18743W        W34877   1.872  15.878   4.987  0.0043  0.1850 -0.2848
18744W        W34878  12.106   6.236   4.545  0.0809 -0.0828 -0.0156
18745W        W34879   3.010   8.482  14.704 -0.2776  0.1473  0.0476
18746W        W34880   6.539  12.468   4.618 -0.0964  0.1280 -0.0816
18747W        W34881  16.853   0.001   0.406 -0.0340  0.1441 -0.0928
18748W        W34882   3.741   8.292  12.121 -0.0532 -0.0870 -0.1039
18749W        W34883  11.910   6.552   4.019 -0.0103  0.2792  0.0333
18750W        W34884   9.914   7.756   4.314  0.0284  0.1082 -0.3982
18751W        W34885   3.800   2.340  12.852  0.4582  0.0421 -0.1968
18752W        W34886  17.481   4.195   1.688  0.1785  0.0908 -0.0029
18753W        W34887  14.225   0.852   4.835  0.2931 -0.2092  0.1122
18754W        W34888   6.142  18.355  12.119  0.2230  0.2172  0.0705
18755W        W34889  13.337   5.419  14.277  0.0410  0.0580 -0.0623
18756W        W34890   5.701   5.582   1.844 -0.0873 -0.1666  0.0103
18757W        W34891  10.225   6.484   1.913 -0.0208  0.2033 -0.3715
18758W        W34892   9.624   5.466   4.978  0.1342 -0.1643 -0.3502
18759W        W34893  15.350   5.047   2.174  0.0609 -0.0729  0.2811
18760W        W34894   7.910   4.946   2.567  0.1303 -0.0286 -0.0285
18761W        W34895   8.883   0.295  13.645 -0.0705 -0.0735 -0.2408
18762W        W34896  16.059   2.759  13.644 -0.0786  0.0380 -0.0079
18763W        W34897   1.839  14.973   4.897  0.0361 -0.0033 -0.1457
18764W        W34898  18.388  16.728  11.361  0.0186 -0.2838  0.0776
18765W        W34899   4.942   9.719   2.123 -0.0613  0.0279  0.0606
18766W        W34900   3.034  16.507   1.149 -0.0149 -0.0560  0.2155
18767W        W34901  10.382  16.470  12.338  0.1063  0.1485 -0.2306
18768W        W34902  10.329   0.282  14.600  0.2042 -0.0857 -0.0911
18769W        W34903  10.590   3.684  13.669 -0.0356 -0.0097 -0.2984
18770W        W34904   0.814   8.303  14.954 -0.4676 -0.0417 -0.0256
18771W        W34905   7.083   4.383  14.537  0.0786  0.2104  0.0826
18772W        W34906   3.469   6.345  12.772  0.3677  0.1094 -0.1912
18773W        W34907  12.330  12.548   0.213  0.3450  0.0406 -0.1434
18774W        W34908   0.414   7.914  12.270 -0.0437 -0.0689 -0.2478
18775W        W34909   3.757   8.668  14.150 -0.1106 -0.0384  0.0319
18776W        W34910  13.422   3.456  14.490  0.0088 -0.1294 -0.0346
18777W        W34911   6.809  18.527   5.248  0.0374  0.0944 -0.0609
18778W        W34912   6.703   4.898  13.370  0.1061 -0.3714 -0.4327
18779W        W34913  15.217   4.115  14.433  0.1057  0.0088 -0.0948
18780W        W34914  12.578  17.234  10.799  0.3540 -0.4071  0.1424
18781W        W34915   2.888  17.480  11.875 -0.3077 -0.1373 -0.0161
18782W        W34916   9.891  10.789   1.784 -0.3121  0.2452 -0.0516
18783W        W34917   1.227   5.006  14.594  0.1462 -0.1057 -0.0947
18784W        W34918   5.492   9.505  13.685 -0.0801  0.1793  0.0751
18785W        W34919   8.595  15.798   4.649  0.0437 -0.2222 -0.1593
18786W        W34920  18.750   4.394  12.371  0.2911  0.1282  0.1547
18787W        W34921   1.612   8.222   3.886 -0.4522  0.1521  0.0355
18788W        W34922   3.977   4.861  14.185  0.1670 -0.3559 -0.0580
18789W        W34923   2.347  19.021   0.370  0.0783 -0.0083  0.1360
18790W        W34924  18.440   6.132  12.994  0.1333  0.0508  0.0599
18791W        W34925  18.059  12.467  11.579 -0.2256  0.0478  0.0649
18792W        W34926   4.778   9.377  12.221  0.0904  0.1616  0.0260
18793W        W34927  10.332   2.767  10.541 -0.1908 -0.0517  0.0806
18794W        W34928  11.913  16.047   2.243 -0.2406 -0.0065 -0.0913
18795W        W34929   0.339  16.688  14.409 -0.0137 -0.1680 -0.0107
18796W        W34930  10.776  18.812   2.997  0.3855  0.0820 -0.1625
18797W        W34931   5.445  14.311   2.569 -0.0577 -0.1823  0.2484
18798W        W34932  14.806  17.384   4.111  0.2528 -0.1567  0.4508
18799W        W34933   7.963   1.910  14.215  0.1734  0.1286 -0.1914
18800W        W34934   5.174   2.490  12.720 -0.2810 -0.0868  0.1355
18801W        W34935   4.030  12.928  11.993  0.0612  0.1480  0.0638
18802W        W34936   5.444   2.685   3.691  0.0641 -0.0785  0.2262
18803W        W34937  11.236   3.074  11.462  0.0250 -0.0380 -0.1081
18804W        W34938   2.242  12.971   0.505 -0.0594  0.1021  0.0129
18805W        W34939   4.589   5.627  10.667 -0.4448  0.1069 -0.1118
18806W        W34940   4.921   5.305   3.555  0.1746  0.0689 -0.0296
18807W        W34941   0.651   6.799   1.012 -0.0090  0.1426 -0.1006
18808W        W34942   7.708  12.201  13.651 -0.0586 -0.3318  0.1213
18809W        W34943  16.016  10.996  11.520  0.0860 -0.2965 -0.1799
18810W        W34944   7.734  10.284   4.925  0.0764  0.1362 -0.0471
18811W        W34945  16.470  12.233  13.575 -0.0690  0.4595  0.2331
18812W        W34946  15.926   2.122  12.526  0.3726  0.0045  0.4110
18813W        W34947  16.995   1.397   2.287  0.3040 -0.1873 -0.2045
18814W        W34948   5.108  19.073  12.220 -0.1524 -0.0976  0.2390
18815W        W34949  10.429   5.529  11.013  0.2812  0.3161  0.1358
18816W        W34950  18.569   3.536  11.111 -0.0407  0.0787 -0.3232
18817W        W34951  17.262   6.175   4.449 -0.1161  0.0070 -0.1614
18818W        W34952  18.348  12.240  14.915 -0.1291 -0.0345  0.1127
18819W        W34953  14.454   0.978  14.763 -0.2127  0.0640 -0.1280
18820W        W34954   6.933  17.131  14.241 -0.1191  0.1546 -0.3522
18821W        W34955   8.466  14.710   2.760 -0.2619  0.1723  0.2461
18822W        W34956  15.273  12.027   1.321  0.1196 -0.0838 -0.0893
18823W        W34957   2.494  12.442   3.699 -0.1395 -0.0305 -0.0952
18824W        W34958   3.459   3.723   5.057 -0.0941 -0.0660 -0.3053
18825W        W34959   4.435  14.400  11.505 -0.1291 -0.0456 -0.1518
18826W        W34960   2.306  10.195  13.453  0.0262 -0.0753  0.1891
18827W        W34961  12.131   4.130  14.407 -0.2316 -0.2052  0.3513
18828W        W34962   9.878   8.891   3.973 -0.0827 -0.0697 -0.1343
18829W        W34963  11.391   9.257  11.743  0.1084  0.0148  0.2561
18830W        W34964   1.464  18.552   3.205 -0.0128  0.0092 -0.2990
18831W        W34965   7.764  12.425   1.773  0.4006 -0.0396  0.2216
18832W        W34966   8.964   3.325  11.030  0.3761  0.1914 -0.1565
18833W        W34967  16.608   2.621  12.841  0.0549 -0.1976  0.0348
18834W        W34968   6.205   3.254  12.279  0.1408  0.2764 -0.0419
18835W        W34969  18.988   4.864   4.562  0.1267 -0.0220  0.2860
18836W        W34970  14.048   0.657  13.737 -0.1489  0.0399 -0.2182
18837W        W34971  15.882  18.941   3.160  0.2495 -0.1694 -0.0951
18838W        W34972   7.135   8.923   1.746 -0.3011  0.1429  0.0193
18839W        W34973  17.606   7.962  10.777 -0.0968 -0.2323 -0.0683
18840W        W34974  12.914  14.793   0.909 -0.0867 -0.1304 -0.1747
18841W        W34975   7.638  19.016  11.896 -0.1516  0.1504  0.1511
18842W        W34976   2.319   7.438  12.374 -0.0967  0.1311  0.2488
18843W        W34977  18.357   7.114   1.344  0.0524  0.1226 -0.2628
18844W        W34978   8.673   6.233   1.507 -0.1501  0.0466  0.2933
18845W        W34979   4.556   7.511   2.879 -0.1809 -0.0242 -0.1218
18846W        W34980  15.358   4.797  15.037 -0.0389 -0.0377 -0.2025
18847W        W34981  15.917   9.866   3.619  0.1065 -0.1769 -0.2134
18848W        W34982  18.100   9.109  11.096 -0.0377  0.0687 -0.0265
18849W        W34983  16.683   1.085  13.220  0.1306 -0.0428  0.2817
18850W        W34984   0.762  14.521  10.642 -0.0668 -0.3004  0.2330
18851W        W34985   9.959   9.556   0.385 -0.1633  0.0729 -0.0874
18852W        W34986  12.872  13.564  12.288 -0.2631 -0.2752 -0.0675
18853W        W34987  19.002  18.700  13.805 -0.0106  0.1870  0.1173
18854W        W34988  14.913  13.693  10.868  0.0805 -0.1694  0.2462
18855W        W34989  12.624  11.551  11.002  0.1959 -0.2319 -0.0109
18856W        W34990  12.743   1.856  13.863 -0.3299  0.3373  0.2983
18857W        W34991   8.863  12.937  11.131  0.0078  0.2336 -0.1336
18858W        W34992  13.757   5.058  10.601  0.1894 -0.1063  0.1593
18859W        W34993  12.661   8.015  11.253  0.2372  0.1365 -0.0296
18860W        W34994   5.496   6.031   3.527  0.1361  0.1229  0.1321
18861W        W34995   4.691   4.604   1.088 -0.0017 -0.4087  0.0297
18862W        W34996  11.667   3.875  12.300 -0.1994  0.2772 -0.3457
18863W        W34997  10.152   3.120   1.983 -0.0331 -0.1061 -0.0065
18864W        W34998   7.700   5.756   4.104  0.4093 -0.0238  0.1024
18865W        W34999  19.100   6.654   9.203  0.0344  0.0854 -0.1966
18866W        W35000   5.876  17.685   4.950 -0.0077  0.1142  0.4145
18867W        W35001  16.227   7.197   9.425 -0.2065  0.2329 -0.0032
18868W        W35002  18.708  10.186   2.200 -0.0216  0.3155 -0.0798
18869W        W35003   7.598  12.632  14.730  0.0501 -0.1878 -0.2607
18870W        W35004  18.853   7.654   3.006 -0.1669  0.1668  0.0623
18871W        W35005  14.318  14.486   1.300  0.3139  0.2447 -0.1104
18872W        W35006   6.992  16.430  12.541 -0.1159 -0.0205 -0.0382
18873W        W35007  14.463   9.637   0.387  0.3591  0.1907  0.0622
18874W        W35008   7.275  18.775   3.951 -0.0378 -0.0984  0.1128
18875W        W35009  11.240  16.934  13.994  0.0350  0.0508  0.1968
18876W        W35010   5.205   3.547  12.974  0.0121 -0.1875  0.0638
18877W        W35011  10.519  15.602   2.132  0.0266 -0.0110  0.0770
18878W        W35012   9.292   4.064  13.257 -0.1395  0.0545  0.1361
18879W        W35013   2.253  14.266   0.065 -0.0549  0.1118  0.0020
18880W        W35014   0.682   2.033  11.429  0.0191 -0.2092 -0.0037
18881W        W35015   6.451  18.450  11.207 -0.1928 -0.1308  0.0955
18882W        W35016   2.480  13.178  11.468 -0.0716  0.2362 -0.2992
18883W        W35017  15.371   0.578  14.358 -0.0624  0.0278 -0.1122
18884W        W35018   0.402  10.061   2.429 -0.3254 -0.0805 -0.0668
18885W        W35019  17.883   4.054  12.211  0.1251 -0.5247 -0.1869
18886W        W35020   4.909   7.817   3.796  0.2216  0.3643 -0.0264
18887W        W35021  12.606   4.258  12.724  0.0595 -0.0476 -0.0758
18888W        W35022  18.220   4.146  11.804  0.0364  0.0380  0.0352
18889W        W35023  15.215   0.334  13.957 -0.0528 -0.2243 -0.0836
18890W        W35024  16.042   8.643   2.840  0.0495  0.0479  0.1150
18891W        W35025   7.105   8.484   3.026 -0.3502  0.2728  0.1856
18892W        W35026   2.707  13.240   9.643 -0.0935 -0.0952  0.0241
18893W        W35027   4.472   8.343  11.560 -0.0650 -0.1140  0.2522
18894W        W35028   5.941   0.405   3.695 -0.0769  0.3128  0.0451
18895W        W35029  18.360  16.610  13.335 -0.1723  0.1631 -0.1221
18896W        W35030  16.900   3.226   1.814  0.1986 -0.2152  0.0303
18897W        W35031  12.744   9.210  11.603 -0.0201  0.0987 -0.0559
18898W        W35032  11.607  13.169  11.401 -0.1259  0.0227  0.2508
18899W        W35033   0.217   9.326  11.685  0.0663  0.1878  0.0985
18900W        W35034  18.671   0.735  13.491  0.1556  0.1143  0.0270
18901W        W35035   0.504   5.434  14.629 -0.1481 -0.1798 -0.4445
18902W        W35036   9.804   4.427   2.350 -0.3816  0.0438  0.1897
18903W        W35037  16.624  18.856  15.069 -0.3161  0.0756 -0.1456
18904W        W35038   4.580   2.224  14.286  0.0951 -0.3867 -0.0114
18905W        W35039   5.213   9.116   2.746 -0.1211  0.0609 -0.0664
18906W        W35040   5.054   0.826  11.993  0.0833 -0.0082 -0.1380
18907W        W35041   6.405   0.766   2.632  0.2770 -0.0904 -0.0651
18908W        W35042   8.477   7.932   3.971  0.1468 -0.0349  0.1724
18909W        W35043  14.554   4.042   0.728  0.2169 -0.1988 -0.1250
18910W        W35044  10.569  10.825  11.502 -0.0163  0.1742 -0.2465
18911W        W35045  12.359  10.802   3.598 -0.1203 -0.1345 -0.2757
18912W        W35046  13.784   2.694   9.872 -0.2966  0.1165 -0.3694
18913W        W35047   7.413  10.485   2.316  0.3356  0.0058 -0.2645
18914W        W35048  17.576   1.493   3.208  0.3539  0.0964 -0.1296
18915W        W35049   9.304  14.201  10.683 -0.1924 -0.2567  0.1221
18916W        W35050  18.210   5.667  11.839  0.0603 -0.1470 -0.2145
18917W        W35051  11.399  18.935  11.245  0.0708  0.0588 -0.3052
18918W        W35052   1.682  17.083   2.568 -0.0512 -0.0172  0.1248
18919W        W35053   1.332   1.960   1.136  0.1734 -0.0155 -0.1926
18920W        W35054   7.077  14.303   0.595 -0.0190  0.1698 -0.0754
18921W        W35055   7.503   2.362   1.890 -0.1005  0.5131 -0.4096
18922W        W35056  13.441   3.420  13.299 -0.3046 -0.0647 -0.1981
18923W        W35057   8.319  12.492  11.689 -0.0723 -0.3087  0.3109
18924W        W35058   2.583   7.039   5.097  0.2349  0.0978 -0.0724
18925W        W35059   9.480   8.894   3.031  0.3944  0.0496  0.1825
18926W        W35060  12.908   2.469   2.544  0.2470  0.2794  0.2045
18927W        W35061   5.269   8.959   5.471  0.0199 -0.0141 -0.1892
18928W        W35062   4.447   2.897   2.696 -0.3735 -0.1971 -0.2162
18929W        W35063   7.860   3.733   3.843  0.1488  0.2288  0.0227
18930W        W35064  16.888   7.284   2.161 -0.1888  0.1462  0.0963
18931W        W35065  15.517   6.522  10.450 -0.3223  0.0494 -0.0359
18932W        W35066  11.116  16.189   3.233  0.0430  0.2353  0.0400
18933W        W35067  10.431  18.316  13.080 -0.0951 -0.1849 -0.1092
18934W        W35068  16.279  13.247   1.305  0.2090 -0.1070 -0.2136
18935W        W35069   5.102  17.830   1.558  0.0439  0.0925  0.4016
18936W        W35070   7.755   2.726  14.223 -0.2048  0.1177 -0.1145
18937W        W35071  16.075  15.751  14.477  0.1040 -0.1443  0.1409
18938W        W35072  14.815   4.754   2.362  0.0684 -0.4040  0.0795
18939W        W35073   7.484   4.209  11.562  0.0552 -0.2732 -0.3933
18940W        W35074   8.467   8.610   3.733  0.1607  0.3601 -0.2635
18941W        W35075  18.525  13.696   3.968 -0.1703  0.0768  0.3210
18942W        W35076  11.069   4.830  11.313  0.3417 -0.2336  0.2692
18943W        W35077   1.506  16.049  14.256 -0.0127  0.0834 -0.0719
18944W        W35078  18.982   3.214  11.207  0.3181  0.1039  0.1980
18945W        W35079   0.679   9.189  10.906  0.0503  0.0386  0.1475
18946W        W35080   7.938  13.801   2.671  0.1651 -0.3337 -0.0551
18947W        W35081   5.369  14.318   4.962 -0.1023 -0.1470  0.2600
18948W        W35082   8.755  12.355  11.979 -0.0415 -0.1439  0.2768
18949W        W35083   5.683  12.622  10.698 -0.1392  0.0041  0.0660
18950W        W35084   9.024   0.907  13.298  0.0645  0.0364 -0.2811
18951W        W35085   3.611   7.060  13.793  0.0872  0.1982  0.2352
18952W        W35086   1.085   3.783   0.013  0.0922 -0.1180 -0.1881
18953W        W35087   7.534   7.183  11.810  0.3340 -0.0686 -0.1613
18954W        W35088   8.614  10.639  14.535  0.2703 -0.3021 -0.1333
18955W        W35089  19.057  16.171  11.100 -0.2930 -0.1469  0.1450
18956W        W35090   8.970   5.539  10.799  0.2601 -0.0831  0.1758
18957W        W35091   2.584  10.883  12.570 -0.1776  0.0534  0.2538
18958W        W35092   3.288   8.924   1.743 -0.1247  0.0046 -0.1449
18959W        W35093   5.334  15.384   4.007  0.1703 -0.1353  0.1013
18960W        W35094   7.361   6.468   1.577  0.2480 -0.0248 -0.2120
18961W        W35095  15.817   6.459   2.301  0.0448 -0.2298  0.2661
18962W        W35096   5.244   9.147  10.645  0.0741 -0.0102 -0.0218
18963W        W35097   6.467   6.054  14.573 -0.3368  0.1636 -0.2977
18964W        W35098  11.569   6.472   0.686 -0.2945 -0.0678  0.1337
18965W        W35099   0.632   8.547  12.973 -0.1457 -0.0733  0.0234
18966W        W35100  12.968   3.770  10.727  0.0046 -0.2968 -0.1557
18967W        W35101   3.489   8.871   3.414 -0.0340 -0.1342 -0.2160
18968W        W35102   0.059  12.067  10.186  0.2639  0.2846  0.1836
18969W        W35103  14.916   7.314   3.124  0.1416  0.2551  0.0327
18970W        W35104   1.668  16.692  12.206 -0.1192  0.0959  0.2037
18971W        W35105   1.807  11.323   4.603  0.0199 -0.0676 -0.2091
18972W        W35106  18.101   5.940  13.504  0.3077 -0.0320 -0.0352
18973W        W35107   0.652   6.101   5.493 -0.0372 -0.1627  0.0508
18974W        W35108  17.699   1.974   3.107 -0.1161  0.1833 -0.1567
18975W        W35109  13.545   0.767  12.018  0.0815 -0.1020  0.3770
18976W        W35110   7.659   1.494   3.848 -0.3024 -0.0215  0.1102
18977W        W35111   2.377  14.847  11.970  0.0094 -0.1442  0.1965
18978W        W35112  16.292   1.824  13.851  0.2121 -0.0862  0.1874
18979W        W35113  16.943   1.196   0.869 -0.2310  0.4384 -0.1894
18980W        W35114   3.874   1.156  12.364 -0.0948  0.2587  0.6242
18981W        W35115   3.625   0.830  12.070  0.1474 -0.2707 -0.3141
18982W        W35116   8.647   7.566   4.297  0.1858  0.2625  0.0268
18983W        W35117  11.542  12.982   0.052 -0.5411 -0.0837  0.1188
18984W        W35118   7.958  12.682  13.308 -0.0973  0.2499 -0.2947
18985W        W35119  17.127  15.649   0.184  0.0963 -0.3712  0.1168
18986W        W35120   7.071   0.929   0.485  0.2276 -0.0025  0.0022
18987W        W35121   5.444  17.250   1.955  0.0803  0.2406 -0.1121
18988W        W35122  11.808   6.166   2.686  0.0680 -0.2688 -0.1261
18989W        W35123   7.603  19.143   5.323 -0.0290 -0.1071 -0.0127
18990W        W35124   4.350   5.345  12.688  0.1289  0.0083  0.3114
18991W        W35125  17.471   5.019   3.128 -0.2558 -0.1377  0.2293
18992W        W35126  12.730   0.508   3.535  0.0927  0.3149 -0.0981
18993W        W35127  13.814  17.260   3.945  0.2925 -0.0319  0.4155
18994W        W35128   1.326  18.072   3.490 -0.1163 -0.0491 -0.2867
18995W        W35129   0.117  18.278  11.480  0.1614 -0.2590 -0.0561
18996W        W35130   2.876   2.955   4.194 -0.1276 -0.1526  0.1622
18997W        W35131   3.496  13.925  11.360  0.2691 -0.1307 -0.1958
18998W        W35132  17.089   4.752  12.708 -0.1483  0.3365 -0.1800
18999W        W35133   1.312  14.208   1.342  0.1092  0.0735  0.0897
19000W        W35134  18.298   3.177  12.961  0.1550 -0.3732 -0.0229
19001W        W35135   1.715  18.716  14.169 -0.1425 -0.0401 -0.0957
19002W        W35136   4.077   6.232  12.994  0.1261  0.0109 -0.2114
19003W        W35137   9.363   4.461  14.788 -0.2389  0.0510  0.1178
19004W        W35138   5.878   6.508  11.871  0.2516  0.0635 -0.1192
19005W        W35139   4.496   1.586   4.241  0.0482  0.1833  0.0223
19006W        W35140   5.386   5.982   4.621 -0.0838  0.0002  0.1780
19007W        W35141  18.258   6.131   3.064 -0.1121  0.2322  0.1462
19008W        W35142   6.130  16.114  13.842  0.1862 -0.2539 -0.3297
19009W        W35143  15.967   0.269   0.098 -0.0878  0.2824  0.0251
19010W        W35144   6.850   2.323  14.699 -0.0593 -0.3214  0.0247
19011W        W35145  18.078  17.994   4.725 -0.1157 -0.0298 -0.0944
19012W        W35146  16.488   6.504  15.166 -0.0258 -0.2202  0.1208
19013W        W35147   3.721  12.262  10.325  0.0936 -0.0915 -0.1376
19014W        W35148  14.499   4.263  11.950  0.0431  0.0086  0.2637
19015W        W35149   3.785   4.702  13.752  0.0899 -0.1112  0.1066
19016W        W35150  15.178   0.157   0.921 -0.3565 -0.1900 -0.2363
19017W        W35151  16.820   1.416  11.547 -0.0703 -0.0342  0.0599
19018W        W35152  11.471   7.054  11.971 -0.0958 -0.0898  0.2095
19019W        W35153  17.593  17.476   3.644  0.0099  0.2153  0.4364
19020W        W35154   4.090  14.725   3.499 -0.0294  0.4452  0.1824
19021W        W35155   8.333  18.527   4.018  0.0490 -0.1237 -0.2111
19022W        W35156   9.086  16.641  14.804  0.0743  0.3978  0.0185
19023W        W35157  18.475   1.499   5.055  0.3369 -0.2771  0.2002
19024W        W35158  19.068  15.036   5.550 -0.3151  0.1735 -0.2143
19025W        W35159  11.588   0.040   4.449  0.0521  0.1307  0.1192
19026W        W35160   8.104  14.315   2.338 -0.3823  0.0958 -0.1376
19027W        W35161  14.377   8.243   3.489 -0.1372 -0.2945 -0.0481
19028W        W35162  12.907   7.371  10.596 -0.2254 -0.0142  0.3117
19029W        W35163   3.598  12.389   1.663 -0.1733  0.1331  0.0131
19030W        W35164  18.208  19.029   4.551  0.2114 -0.4536 -0.1046
19031W        W35165  10.369  15.663  13.647  0.0151  0.0325 -0.1050
19032W        W35166  15.757   7.710   3.545  0.1664 -0.1503 -0.1933
19033W        W35167   8.900   2.892  14.122  0.3408 -0.1287 -0.0841
19034W        W35168   6.173  13.053  11.202 -0.2130 -0.0479  0.1402
19035W        W35169  16.385   7.895  10.731 -0.0527  0.0248 -0.2645
19036W        W35170  11.630   7.906   1.309  0.1486 -0.0684  0.1526
19037W        W35171  15.622  13.622   1.829  0.0822 -0.0386  0.1733
19038W        W35172   0.879  18.588   2.202 -0.1727 -0.0939  0.1599
19039W        W35173   6.931  11.974   3.022  0.4564  0.1280  0.4249
19040W        W35174   2.401   8.232  10.877 -0.1074  0.0527  0.3200
19041W        W35175  13.979  15.600   1.434  0.0917 -0.2012  0.2206
19042W        W35176  12.398  16.761   0.447  0.2086  0.2018  0.0393
19043W        W35177   3.216  13.730  13.623 -0.1502 -0.2671  0.0401
19044W        W35178  13.472   3.759   3.880  0.2292  0.0022  0.0318
19045W        W35179   6.206  19.142  14.229  0.0157 -0.0586 -0.1422
19046W        W35180   0.245   8.947  14.742 -0.1099 -0.0546 -0.2893
19047W        W35181  16.939   1.682  10.480  0.0343 -0.1573  0.0847
19048W        W35182  16.440   0.959  12.256 -0.1095  0.1221  0.1128
19049W        W35183   6.550  12.969   4.638  0.1406  0.0344  0.2837
19050W        W35184   1.201  10.914   4.363 -0.1681 -0.1101  0.0342
19051W        W35185   4.007  11.553  11.854 -0.0715  0.0043 -0.0031
19052W        W35186  13.407   5.456  11.527 -0.1924 -0.1976  0.0607
19053W        W35187  11.975   0.653   5.353  0.2407 -0.1494  0.0002
19054W        W35188   0.170   4.566  14.822  0.0153  0.2326  0.0883
19055W        W35189  16.118  17.305   4.795 -0.1430 -0.0972  0.0715
19056W        W35190   3.990   0.801   4.679 -0.0209 -0.1562 -0.0893
19057W        W35191  17.153  19.084  10.787 -0.4593  0.2332  0.1837
19058W        W35192   3.457  15.588   2.076 -0.1481 -0.2335  0.1508
19059W        W35193  17.068  18.313   3.461 -0.0602  0.4205 -0.1358
19060W        W35194   0.680  18.178   5.581  0.0042 -0.1398 -0.0757
19061W        W35195   6.782   9.961   0.935  0.0603 -0.1869  0.1306
19062W        W35196   5.707   6.432   0.691 -0.0375 -0.1763  0.3309
19063W        W35197  11.180  18.557   1.000  0.0496  0.0396  0.4076
19064W        W35198  13.094  10.038  11.193  0.0413 -0.3484 -0.2512
19065W        W35199   5.270  19.141  13.302 -0.0274 -0.6106 -0.3202
19066W        W35200   2.327  15.860  13.114  0.0290 -0.2752  0.0555
19067W        W35201  15.774   1.889  12.102 -0.0679  0.1449 -0.1406
19068W        W35202   6.023   7.808  10.436  0.2784  0.0615 -0.1431
19069W        W35203   0.084  17.882  10.676 -0.0798  0.2099 -0.2696
19070W        W35204   3.562  14.434  13.558 -0.1137 -0.1335  0.2197
19071W        W35205  15.754  10.940   1.557 -0.1448 -0.3270  0.0625
19072W        W35206  19.006  14.564  11.457 -0.1197 -0.0922 -0.3155
19073W        W35207  18.287   8.490   2.174 -0.0773 -0.2069 -0.1236
19074W        W35208  14.013  10.399   1.430 -0.3186 -0.0398 -0.0187
19075W        W35209  16.852   3.389  14.426 -0.0200  0.0689 -0.1372
19076W        W35210  18.841   4.892   0.414  0.2130 -0.1288 -0.1929
19077W        W35211   5.360   5.343  12.929 -0.1469  0.2042  0.0072
19078W        W35212   0.803   1.383   3.507 -0.2186  0.6433 -0.0074
19079W        W35213   4.633  18.865   0.814  0.3385  0.0707 -0.1433
19080W        W35214  14.013  18.954  11.427 -0.1933  0.0481  0.3844
19081W        W35215   0.426   2.883  10.490 -0.1826 -0.0132 -0.0255
19082W        W35216   3.205   4.395  10.952  0.1194  0.2261  0.0968
19083W        W35217   7.382  15.542   1.219 -0.0335  0.0278  0.1034
19084W        W35218  17.210   8.813  13.364 -0.1709  0.0873  0.0636
19085W        W35219   3.564  13.564  10.858 -0.0626 -0.3302  0.1195
19086W        W35220   5.714  15.791   5.784  0.3753  0.2135 -0.1550
19087W        W35221   0.875   9.015  12.727 -0.2010 -0.1626  0.2058
19088W        W35222   9.849   7.929   1.998  0.0003  0.0374 -0.1273
19089W        W35223   6.029   1.071   1.398 -0.0215  0.3592  0.2518
19090W        W35224  14.908  15.584  10.659  0.1544 -0.0515  0.2642
19091W        W35225  16.875   3.552   4.178  0.1945  0.3605  0.2603
19092W        W35226   4.748  17.441  10.706 -0.0222 -0.0787  0.2123
19093W        W35227   1.626   6.136   0.841  0.0215  0.1830  0.0572
19094W        W35228   5.487   5.111   1.908 -0.2434  0.0173 -0.0054
19095W        W35229   3.564  11.246  12.041 -0.0179  0.2978 -0.1412
19096W        W35230  11.018   7.226  14.088 -0.0047 -0.3743 -0.0053
19097W        W35231   3.106   3.622   1.968 -0.1421  0.2350 -0.2234
19098W        W35232   4.684   7.799  13.060 -0.0506 -0.3826  0.1126
19099W        W35233   2.755   6.262  14.422  0.3308  0.1371  0.1283
19100W        W35234   9.322   4.340  10.923 -0.0924  0.0400 -0.0201
19101W        W35235  13.110   6.402   6.103 -0.1892  0.2756 -0.1593
19102W        W35236   7.159   2.901   3.415 -0.1532  0.0189 -0.3114
19103W        W35237  18.976  16.111  12.438  0.0146 -0.0160  0.0858
19104W        W35238   7.069  12.606   2.481 -0.0029 -0.2220 -0.2045
19105W        W35239   1.056  15.456  13.846 -0.1378  0.3354  0.1605
19106W        W35240   8.830   3.098   2.431 -0.1248 -0.2694  0.0444
19107W        W35241  12.953   7.364   0.977  0.2030  0.1969  0.2223
19108W        W35242  18.474  12.101  12.544 -0.1007 -0.1500  0.1022
19109W        W35243  11.150   1.053   4.870 -0.1126 -0.3601  0.1341
19110W        W35244   0.476  13.827   1.903  0.1715  0.1488 -0.2003
19111W        W35245   8.578  17.443   1.433  0.1857 -0.1237  0.0218
19112W        W35246  14.542   6.319   4.749  0.0546 -0.1931  0.3417
19113W        W35247  12.545   2.055  14.904  0.1856 -0.1133  0.0278
19114W        W35248   2.285  11.776  11.526  0.3456 -0.1816  0.1390
19115W        W35249   4.199   8.505  12.954 -0.1448 -0.0870 -0.1469
19116W        W35250   1.007   5.287  11.268  0.2329 -0.1113 -0.0219
19117W        W35251  11.492  14.800   4.954  0.1302  0.2997  0.0723
19118W        W35252  14.042  18.138  14.739 -0.3490 -0.1171 -0.1784
19119W        W35253  18.043   1.610   4.615 -0.3634  0.1388 -0.2131
19120W        W35254   9.069   2.713  12.007 -0.1540  0.0181  0.0041
19121W        W35255   9.595  14.875   1.317 -0.0295 -0.1844  0.2304
19122W        W35256  12.455   0.662  10.029 -0.0528  0.2094  0.1433
19123W        W35257   4.330   0.955   2.340 -0.0109 -0.1302 -0.1619
19124W        W35258   4.015  11.159  13.386 -0.0798 -0.2865  0.0536
19125W        W35259   7.673  13.198  12.816 -0.1134 -0.3352 -0.0167
19126W        W35260  12.948  13.657   1.662  0.1375 -0.3001  0.2882
19127W        W35261  12.577  18.236   3.012  0.1022 -0.0359 -0.0652
19128W        W35262   1.335  16.851   2.877  0.0452 -0.2522  0.2366
19129W        W35263  13.260  15.947  11.048  0.1524  0.1463 -0.0149
19130W        W35264   5.821  10.255  11.789  0.0252  0.0578 -0.1944
19131W        W35265   9.589  15.190   0.903 -0.0015  0.0443 -0.2897
19132W        W35266   0.675   6.361   1.247  0.4242  0.2891  0.1905
19133W        W35267   3.807   1.265  10.815  0.2295  0.2111  0.2645
19134W        W35268   9.337   9.713   3.933  0.3660  0.1704 -0.0369
19135W        W35269   3.321  14.426  11.315 -0.0147  0.0052 -0.0528
19136W        W35270  11.663   9.620   0.579 -0.1674  0.1949  0.3056
19137W        W35271   5.061  12.014  10.877 -0.0405  0.0013  0.0158
19138W        W35272   5.478  19.086  10.723 -0.0654 -0.0763 -0.0182
19139W        W35273  11.726   0.937  14.591  0.0394 -0.2149 -0.0599
19140W        W35274  12.567   7.840   1.191  0.0186  0.0191 -0.1953
19141W        W35275   2.950   1.047  11.034  0.1129  0.2376 -0.3713
19142W        W35276  17.035  15.169   0.010  0.1732 -0.2249  0.1360
19143W        W35277  18.306   6.054  12.114 -0.0537  0.0806 -0.0507
19144W        W35278  18.828   5.098  13.956 -0.4117  0.0876  0.0558
19145W        W35279   2.254  18.020   3.771 -0.0593  0.0395  0.1684
19146W        W35280   1.501   6.359  12.134  0.1145 -0.3631 -0.1652
19147W        W35281   7.751   2.298   2.495 -0.1847 -0.0514 -0.0801
19148W        W35282   1.737   1.714   0.063  0.0859  0.2194 -0.2989
19149W        W35283  11.461   0.801  10.153  0.0891 -0.2247  0.1137
19150W        W35284   8.018  19.092   3.409 -0.0933 -0.0486 -0.0160
19151W        W35285  11.658  13.270  14.227 -0.2653 -0.0736 -0.0944
19152W        W35286  15.013  16.106   4.023  0.1195  0.0076 -0.2432
19153W        W35287  18.053   2.168   4.495 -0.0992 -0.0621  0.3027
19154W        W35288   7.745   3.812  10.905 -0.3378 -0.0718  0.1817
19155W        W35289   5.744   9.032  13.611  0.0468 -0.2075  0.0045
19156W        W35290   0.068  10.890   1.408  0.1804  0.3004  0.4992
19157W        W35291   1.935  18.358  10.877  0.3087  0.0102  0.0540
19158W        W35292   9.712   8.231   4.326  0.2043  0.1125  0.2532
19159W        W35293   1.730   0.773  12.643 -0.0021  0.0556 -0.0032
19160W        W35294  12.194   5.770   4.279 -0.2493 -0.0631  0.1440
19161W        W35295  17.704  12.067   5.245 -0.3665 -0.2883  0.0929
19162W        W35296   1.431   4.378   2.456 -0.1925  0.0246  0.0629
19163W        W35297   5.394   1.748   1.269 -0.2218 -0.0250 -0.3154
19164W        W35298   2.594   2.629   9.870 -0.0188  0.2367 -0.0054
19165W        W35299   9.728   9.845   6.142 -0.2801  0.3257  0.4610
19166W        W35300   5.024  13.690  13.208  0.1127  0.0910 -0.1395
19167W        W35301  11.365   4.495   2.515  0.1387  0.3434  0.1173
19168W        W35302   3.739   0.054   0.574  0.0179  0.0410 -0.1625
19169W        W35303   0.849  11.779   4.297 -0.1661 -0.1113  0.1583
19170W        W35304  13.857   8.218   2.295 -0.2208 -0.0210  0.2487
19171W        W35305   9.443   1.811   9.664  0.0336  0.0160  0.2079
19172W        W35306  16.569  18.076  12.300  0.0390 -0.2228  0.0207
19173W        W35307  15.531  13.285  10.103  0.4757  0.0637 -0.2839
19174W        W35308   6.826   8.950   4.096  0.0354  0.3813  0.0401
19175W        W35309  11.161  12.553  10.753 -0.0764 -0.3488  0.2038
19176W        W35310  15.520   5.540   2.386  0.2075  0.3540 -0.1536
19177W        W35311   9.240  14.262   5.966  0.1093 -0.1295 -0.0531
19178W        W35312   4.418   5.442   4.857  0.0604 -0.0626  0.0967
19179W        W35313   9.900   1.697  11.131  0.1035  0.3459 -0.0649
19180W        W35314  18.086  17.392   2.047  0.1758 -0.3918 -0.0042
19181W        W35315  11.026  16.362   4.601 -0.1111  0.0050 -0.0713
19182W        W35316  12.691  16.811  13.480  0.1321  0.0359 -0.0482
19183W        W35317   4.280  11.823  13.700 -0.3198  0.1105 -0.0740
19184W        W35318   4.625   5.267   2.135 -0.2607  0.2010  0.1071
19185W        W35319   4.603  15.873   0.457  0.1694 -0.1665  0.0388
19186W        W35320  13.120  14.239  11.947  0.2147  0.2614  0.0044
19187W        W35321  14.649  11.491   2.722 -0.1931 -0.0261 -0.0465
19188W        W35322  12.841   6.332  14.616 -0.2876 -0.1966  0.1016
19189W        W35323  14.219   5.866   0.406  0.0459  0.2760 -0.2887
19190W        W35324   9.959   0.763   3.381  0.2752  0.1894 -0.1005
19191W        W35325  14.401  12.442   4.608  0.2801  0.0480  0.0384
19192W        W35326  13.299   4.038   2.532  0.0214  0.0514  0.2142
19193W        W35327  13.231   5.859  12.451 -0.1684  0.0796  0.2111
19194W        W35328   7.377   0.782  14.289  0.0604 -0.1206 -0.0424
19195W        W35329  11.403   1.699   0.685 -0.3766 -0.1381  0.4511
19196W        W35330   4.357  14.965   2.604 -0.5517 -0.2488 -0.4037
19197W        W35331  14.412   4.333   0.381 -0.1847 -0.1077 -0.0171
19198W        W35332   8.088  10.295   0.968 -0.3069 -0.0717 -0.2233
19199W        W35333  10.513  11.697  12.511 -0.1783  0.0809 -0.2074
19200W        W35334  10.780  18.655  12.174  0.2224  0.1294  0.0505
19201W        W35335   4.297   6.157   2.147  0.2778 -0.1212  0.0440
19202W        W35336  15.502  18.187  10.088  0.1535  0.1237  0.0183
19203W        W35337   1.835  14.606  11.928  0.2862  0.2195 -0.0077
19204W        W35338  11.530  11.282  14.840  0.0498  0.0426 -0.3082
19205W        W35339  13.806   5.427   1.392 -0.0737 -0.0031 -0.0291
19206W        W35340   7.410   2.086  14.179  0.1678 -0.0313  0.4180
19207W        W35341   1.323   3.877   2.238 -0.1486  0.2269 -0.0585
19208W        W35342   8.341   3.622   9.963  0.0094 -0.2829 -0.0885
19209W        W35343  12.344   0.190   0.970  0.0784  0.0891 -0.0347
19210W        W35344  10.016  17.392   1.179 -0.1124  0.0382 -0.1864
19211W        W35345  11.277  17.101   0.101 -0.2018 -0.2833  0.0788
19212W        W35346   8.828  14.931   4.388 -0.0205 -0.0844 -0.0929
19213W        W35347  12.165   6.560   0.137 -0.3001 -0.0410  0.0537
19214W        W35348   0.152   6.152  10.335  0.0011 -0.0178  0.1667
19215W        W35349  12.958   7.020  10.250 -0.0475  0.0737 -0.3525
19216W        W35350   4.503  17.286  12.848 -0.2523  0.1169  0.0604
19217W        W35351  10.588   2.497  14.892  0.0567  0.0820  0.0700
19218W        W35352   6.191  12.124   2.472  0.1437  0.1022  0.3847
19219W        W35353   3.940  13.723   0.809 -0.1763  0.0385 -0.1232
19220W        W35354  12.250  16.916  11.865  0.1755  0.0511 -0.0304
19221W        W35355   4.991  15.708   3.925  0.2852 -0.1499 -0.2586
19222W        W35356   9.427  16.701   1.709  0.1189  0.1708 -0.0014
19223W        W35357   4.675  10.439   0.781 -0.0568  0.0123  0.0088
19224W        W35358   7.277   6.270  10.542 -0.1272 -0.1089 -0.1867
19225W        W35359   0.251   8.367   4.918 -0.2388 -0.0177  0.3034
19226W        W35360   8.672  12.505  14.409 -0.2612  0.1103  0.1894
19227W        W35361  11.741   0.977  10.913 -0.1129 -0.2934 -0.3644
19228W        W35362  17.401   0.801   5.128  0.0717  0.2461  0.1092
19229W        W35363   0.026  18.736  12.132 -0.2841  0.3199 -0.0870
19230W        W35364  16.161  15.189  11.091 -0.2185  0.0907 -0.2754
19231W        W35365   1.854   7.084   5.551  0.0357  0.0303 -0.1111
19232W        W35366   9.243  17.913  13.533 -0.0101 -0.0012 -0.0704
19233W        W35367   9.774   0.567   2.763 -0.0045  0.2510 -0.0002
19234W        W35368  12.046   5.303   1.081 -0.0138 -0.2023 -0.0969
19235W        W35369   3.111   1.272   4.417  0.1635  0.0339 -0.0162
19236W        W35370   9.353  10.211   0.846  0.2832  0.0993 -0.0455
19237W        W35371   8.409   4.365   3.759  0.0021 -0.1441 -0.0786
19238W        W35372  11.580   5.605  12.892 -0.2677 -0.1750  0.2116
19239W        W35373   1.323   2.378  12.264 -0.0356 -0.3896  0.0919
19240W        W35374   6.270   7.833  12.694 -0.1424 -0.0892 -0.0559
19241W        W35375   8.688  16.736   4.656 -0.1723  0.1233 -0.1114
19242W        W35376   0.345  17.024   4.480  0.3770 -0.2911 -0.1388
19243W        W35377  13.614   5.535  10.766 -0.4010  0.0101  0.2126
19244W        W35378  16.426  10.932  13.982 -0.0587  0.0387  0.4355
19245W        W35379   6.096   8.148  14.769 -0.1127  0.1662  0.0820
19246W        W35380   5.421  17.751   2.027 -0.0448 -0.3745  0.0241
19247W        W35381  12.077  17.155   2.019  0.3659  0.1644  0.1373
19248W        W35382   7.601   1.562  14.053  0.1830 -0.0256  0.0399
19249W        W35383  16.095  18.474   3.378 -0.1987  0.1257  0.1510
19250W        W35384   1.565  17.624  11.956 -0.0535 -0.2791  0.0144
19251W        W35385   3.862  15.407   0.869 -0.1720  0.1128 -0.1215
19252W        W35386  15.119   2.920  11.240  0.1644 -0.1191 -0.3608
19253W        W35387  18.170  10.045  10.890  0.0792 -0.2331  0.4643
19254W        W35388   3.043  15.113  13.778 -0.0537 -0.0520  0.2780
19255W        W35389   4.176   6.764  11.878 -0.1239 -0.1506  0.0966
19256W        W35390   8.189  15.849   3.273  0.2064 -0.0015 -0.1964
19257W        W35391   2.947  12.035   3.954 -0.1507 -0.3031  0.3141
19258W        W35392  18.003  12.640  15.056 -0.0306 -0.0238  0.0294
19259W        W35393  12.178   3.685   1.316 -0.0883  0.2263 -0.3484
19260W        W35394  15.085  10.255   1.965 -0.2202 -0.0456 -0.2326
19261W        W35395   1.253   8.347  12.429  0.0581  0.0499  0.0330
19262W        W35396  14.163  13.640  11.787  0.2593  0.0635  0.0898
19263W        W35397   2.119   2.121  12.901 -0.1730 -0.2262 -0.1749
19264W        W35398   3.140  17.829   5.107  0.2056 -0.0214 -0.0406
19265W        W35399  10.969   3.480   5.215  0.1081  0.2860 -0.0944
19266W        W35400  19.006   4.513  10.220  0.0936  0.2194 -0.2228
19267W        W35401   9.618  10.862  12.257  0.0308 -0.2434 -0.0723
19268W        W35402   5.045  10.385  12.901 -0.2767  0.4515  0.1938
19269W        W35403   9.304   9.126  12.192  0.3109 -0.1202  0.1346
19270W        W35404  16.710  16.235  13.035 -0.1874 -0.5418 -0.1689
19271W        W35405  14.003  18.924   0.450  0.2095  0.1446  0.1646
19272W        W35406   1.060  13.657   4.545  0.3047 -0.1558  0.2681
19273W        W35407   5.071   4.124  13.495  0.1947 -0.3429  0.3761
19274W        W35408   2.766   2.936  13.842 -0.1319  0.1547  0.2859
19275W        W35409   0.856  10.008  13.370 -0.1864 -0.1881  0.1188
19276W        W35410  13.739   6.611  11.692 -0.1638  0.0851 -0.1207
19277W        W35411  19.048   5.169  14.752 -0.0848 -0.1832  0.2375
19278W        W35412  15.836  11.257   4.271 -0.0090  0.0339  0.0611
19279W        W35413   6.883  15.225   0.065  0.0467  0.0610  0.3244
19280W        W35414  10.285   7.745   3.521 -0.0425 -0.0031 -0.2026
19281W        W35415   3.437   7.745  13.324 -0.3127 -0.2951  0.3961
19282W        W35416  13.755   2.899  14.463  0.2513  0.3000 -0.0412
19283W        W35417  14.603   6.450   2.213  0.1306 -0.2194  0.0328
19284W        W35418   5.967   7.420  10.820 -0.0611  0.1971  0.0923
19285W        W35419   5.786  10.832   4.943 -0.2327  0.3545  0.0498
19286W        W35420  15.222  15.811   1.118 -0.0860  0.0489 -0.2203
19287W        W35421   8.513   3.933  14.090 -0.1378  0.0938  0.1292
19288W        W35422  17.607  18.755  14.035 -0.2749 -0.1325 -0.2985
19289W        W35423   5.810  17.171  14.740 -0.0359  0.1231  0.1081
19290W        W35424   3.930   9.101  12.174  0.2278  0.1745  0.2216
19291W        W35425   0.072  18.290   0.407 -0.1976 -0.0720  0.0958
19292W        W35426   3.102   3.749  11.795 -0.0565 -0.2057 -0.0840
19293W        W35427  12.816   9.435   0.642 -0.3540  0.1519 -0.2976
19294W        W35428  10.684  14.041  12.986  0.2188 -0.1185 -0.1362
19295W        W35429   3.583   2.975   3.461 -0.2497 -0.1853  0.1528
19296W        W35430   0.785  11.110  10.970 -0.3247 -0.0624 -0.1064
19297W        W35431   5.175   7.865  11.589  0.2367  0.1623 -0.1456
19298W        W35432   0.227   7.922  10.764  0.0063  0.2192 -0.2673
19299W        W35433   0.533  15.700   9.525 -0.0092  0.2398 -0.1672
19300W        W35434  14.920   6.835   5.498 -0.3477 -0.0011 -0.0529
19301W        W35435   1.191   0.121   3.910 -0.1938  0.1865  0.0628
19302W        W35436  17.278   7.153   1.300 -0.0476 -0.1407  0.2214
19303W        W35437   4.947   1.088  14.939  0.3318 -0.1458  0.4976
19304W        W35438  11.157   6.962  13.168  0.2147  0.2704 -0.2089
19305W        W35439  16.467   6.222  13.449  0.0485 -0.1307  0.0321
19306W        W35440  14.596  11.336  12.896 -0.0808  0.0205  0.3382
19307W        W35441  16.789  12.098   0.671 -0.2777 -0.1377 -0.1728
19308W        W35442  10.838  11.491   5.089 -0.1212 -0.0403  0.1323
19309W        W35443   0.745   3.582   3.912 -0.0374  0.3909  0.1680
19310W        W35444   5.156   9.923   5.344 -0.0651  0.0645 -0.0903
19311W        W35445   2.079   2.560  12.633 -0.0643 -0.0658  0.1481
19312W        W35446   4.383   4.103   2.989 -0.0700  0.0512  0.0631
19313W        W35447  17.260  16.084   0.476  0.3094  0.0394  0.0414
19314W        W35448  16.161  14.940  10.678  0.1480 -0.0821 -0.2266
19315W        W35449   9.638   3.808   1.018  0.0848  0.3632  0.0168
19316W        W35450   2.018   9.985   3.440 -0.0783  0.1902 -0.1144
19317W        W35451   4.187  17.557  13.711  0.3873 -0.1274 -0.2476
19318W        W35452  12.051   3.314   0.021  0.2742 -0.0501 -0.0341
19319W        W35453  12.259   8.800  11.391 -0.1473 -0.0914 -0.0279
19320W        W35454   2.076   4.999  13.389 -0.1502 -0.1365 -0.3364
19321W        W35455  16.741   9.195   3.462  0.1673  0.3223 -0.2822
19322W        W35456   4.120  13.558  13.124 -0.0927  0.0030  0.1860
19323W        W35457   9.916  17.239  14.950 -0.2713 -0.1694  0.1057
19324W        W35458  17.232  16.334  13.832  0.2498 -0.0118 -0.2591
19325W        W35459   1.478   5.719   2.481  0.4466  0.0651  0.0580
19326W        W35460  16.708   5.950   9.380  0.3946  0.1401  0.1907
19327W        W35461   7.147  15.456  13.567  0.2003 -0.2085 -0.1175
19328W        W35462   1.979  18.462   2.472  0.3427  0.1130  0.2637
19329W        W35463   0.504   7.210   3.207 -0.0990 -0.1974 -0.0512
19330W        W35464   9.243  10.920  12.585 -0.2760 -0.0568 -0.0006
19331W        W35465   8.724  11.264  11.947  0.1437 -0.1097 -0.1053
19332W        W35466   3.224  15.756   1.468  0.1430 -0.1923 -0.2168
19333W        W35467   2.342   3.015   2.795  0.0780 -0.2193 -0.0747
19334W        W35468   9.093  17.190  14.822 -0.0446  0.6000 -0.1806
19335W        W35469  15.756  16.903  15.168 -0.2129  0.0115  0.0802
19336W        W35470   9.948   1.289  10.280 -0.1667 -0.0633 -0.1674
19337W        W35471  18.059   6.166   1.823  0.0460  0.1873  0.1631
19338W        W35472  17.465   0.151   3.135  0.1641  0.1104  0.1028
19339W        W35473   1.250   0.351  12.169 -0.0147 -0.2094  0.2009
19340W        W35474   0.694  11.318   4.459 -0.0527  0.3664 -0.2463
19341W        W35475  16.955   3.233  13.006  0.0470 -0.2174 -0.2322
19342W        W35476  16.481   7.912  14.096  0.1262 -0.1754  0.2387
19343W        W35477   1.077   7.454   1.718 -0.0545 -0.2248 -0.1310
19344W        W35478   3.341  16.014   4.651 -0.0260 -0.1176 -0.3219
19345W        W35479  15.011  11.919   0.259 -0.0661  0.3477  0.1027
19346W        W35480   1.548   2.710   0.966  0.1621  0.2971  0.3227
19347W        W35481  18.871  10.441  14.059  0.3350  0.0243 -0.0841
19348W        W35482   3.282   0.067   0.685 -0.1932  0.0289 -0.1796
19349W        W35483   7.220  14.222   5.647 -0.0475 -0.2367  0.0713
19350W        W35484  11.729   8.334  12.101  0.4528  0.0829 -0.1550
19351W        W35485   3.317  19.138  10.584 -0.0132  0.1080  0.1253
19352W        W35486  10.687   2.109  12.450  0.1557 -0.4288  0.2695
19353W        W35487  12.160   2.198   2.232 -0.2968 -0.0984  0.1343
19354W        W35488  10.984  18.545   0.114  0.1481  0.3839 -0.1289
19355W        W35489  11.437   7.437   0.675  0.1363 -0.1867 -0.5219
19356W        W35490   7.461   9.348   5.818  0.1536 -0.2532  0.0012
19357W        W35491   9.890  18.111  11.751  0.2560 -0.0031  0.2205
19358W        W35492  11.959   3.695   3.584  0.0119  0.2198  0.1394
19359W        W35493   1.583   5.057   5.700 -0.0456 -0.0251 -0.1835
19360W        W35494  12.269  18.581  13.010 -0.1298  0.1519  0.2989
19361W        W35495   3.134  14.864  10.553  0.2337  0.2365  0.2827
19362W        W35496  15.707  10.795  14.945 -0.1805 -0.0094  0.2089
19363W        W35497   4.915   9.416  12.693  0.1085  0.0355  0.2532
19364W        W35498   3.832   1.320   3.239  0.0155 -0.0859 -0.0701
19365W        W35499   6.237   5.680   4.364 -0.3191  0.1040  0.2167
19366W        W35500   0.291  10.448  10.397  0.1916 -0.0948 -0.2949
19367W        W35501   6.213   2.156  10.590 -0.3627 -0.1765  0.0224
19368W        W35502   8.586   4.158  11.220  0.1912 -0.0445  0.1835
19369W        W35503   4.428   5.932   5.068  0.0740  0.3544 -0.0161
19370W        W35504   3.630  17.621   4.076 -0.2841  0.0211  0.0439
19371W        W35505  15.730  14.075   0.949 -0.1099  0.0938 -0.1612
19372W        W35506  16.228  18.179   2.978 -0.0713 -0.1034 -0.2781
19373W        W35507   5.790  16.777   9.788 -0.2057  0.2311  0.5255
19374W        W35508  13.614   7.677  12.537  0.0227  0.0623 -0.4279
19375W        W35509   5.842   2.589   2.391  0.0619  0.1208  0.1077
19376W        W35510   9.596   1.632   0.314  0.4647 -0.0642  0.0476
19377W        W35511  10.998   4.860   4.486  0.0486  0.2591  0.4993
19378W        W35512   3.458  14.088  10.046 -0.0063  0.2262  0.1006
19379W        W35513  17.752   5.083   2.336 -0.0643 -0.0216  0.3105
19380W        W35514  14.378   6.586   4.249 -0.1186  0.1354  0.1583
19381W        W35515   9.382  10.133   3.238  0.1765  0.0145 -0.2079
19382W        W35516   0.992  18.892  10.460  0.1466 -0.2313  0.3231
19383W        W35517   6.135  10.446   1.746 -0.3011 -0.2392 -0.1316
19384W        W35518  18.612   0.268  10.928  0.3050 -0.3521  0.0531
19385W        W35519   3.034   0.629   0.687 -0.3202  0.1342  0.4188
19386W        W35520   0.534  16.730   0.580 -0.1468  0.1069 -0.1944
19387W        W35521  15.210   9.307  14.057  0.0239 -0.1658 -0.0474
19388W        W35522   9.987   1.897  13.618 -0.1485  0.1374  0.4389
19389W        W35523   2.648   0.439  14.666 -0.1284  0.4866 -0.5354
19390W        W35524   7.264  19.000  11.522  0.1306  0.0442 -0.2801
19391W        W35525  15.798   4.583  11.828 -0.1384  0.0233 -0.1113
19392W        W35526  11.916  14.854   2.307  0.1363  0.3349  0.5076
19393W        W35527  14.802  13.294   0.467 -0.1602  0.1252 -0.2193
19394W        W35528   2.431   1.735  10.908 -0.1310 -0.1096 -0.0592
19395W        W35529   1.187  15.202   3.704  0.2352 -0.1254  0.3266
19396W        W35530  13.385   6.840  14.189  0.0032 -0.2245 -0.6211
19397W        W35531   1.907  17.898  13.942 -0.1501  0.0462  0.2319
19398W        W35532  16.688   1.394  12.589  0.2800 -0.1292  0.1156
19399W        W35533  15.427  17.745   2.407  0.0477 -0.0935  0.4006
19400W        W35534   2.714  18.112  15.149  0.3465  0.2275 -0.0650
19401W        W35535   0.201   1.676  12.630 -0.1100  0.0214 -0.1231
19402W        W35536  11.526  13.626  11.612  0.3599  0.1056 -0.1679
19403W        W35537  15.021  12.483   9.123 -0.1128  0.0626  0.0112
19404W        W35538  11.837  10.184   4.939  0.1057 -0.1451  0.0368
19405W        W35539   1.432   0.557  13.489 -0.0855 -0.2776  0.1369
19406W        W35540  16.073   2.005   2.199 -0.0987  0.0600 -0.0354
19407W        W35541  11.976   7.201  11.887 -0.2396  0.2180  0.0015
19408W        W35542   1.066   8.203   1.158 -0.2515 -0.2366 -0.0600
19409W        W35543   6.074  13.415  14.519  0.2317 -0.4457 -0.0293
19410W        W35544  12.355   7.291  12.753  0.3262 -0.0228 -0.1735
19411W        W35545  18.924  10.481   2.561  0.2007 -0.1323 -0.3998
19412W        W35546   8.493   2.360   0.210 -0.1545  0.0152 -0.0710
19413W        W35547   9.253   2.673   1.633  0.0859 -0.0696 -0.0805
19414W        W35548  13.661   1.762  11.967 -0.2079  0.0997  0.0280
19415W        W35549   5.685  18.969   1.853  0.4768 -0.2239 -0.3183
19416W        W35550   5.801  18.732   3.357  0.1587  0.3059  0.2075
19417W        W35551   7.567   9.897   3.047  0.2212 -0.3678 -0.1908
19418W        W35552  16.449  10.022   3.399  0.1609  0.0207  0.0555
19419W        W35553   3.579  10.313  12.641 -0.1403 -0.0108 -0.3317
19420W        W35554  15.419  16.629   3.138 -0.1094 -0.2003  0.0140
19421W        W35555  18.754   4.097  14.118 -0.2504 -0.2151  0.1712
19422W        W35556  17.862  16.591   4.326 -0.1037  0.0064 -0.3078
19423W        W35557   6.343  10.778  10.582  0.1870 -0.0505  0.0782
19424W        W35558  19.108   9.362   2.674 -0.1021  0.1990  0.2920
19425W        W35559  15.949  16.605  11.126 -0.0522  0.3384 -0.0004
19426W        W35560   4.029   1.326  14.059 -0.1011  0.0169  0.1430
19427W        W35561   8.422  13.328   3.112 -0.0381 -0.1636  0.0405
19428W        W35562   6.961  11.357  12.510 -0.1323  0.2289 -0.1622
19429W        W35563   8.798  13.880   0.323 -0.3154  0.1489  0.1232
19430W        W35564   2.628  17.198   3.485 -0.2723  0.2451 -0.0249
19431W        W35565   1.774   9.788  11.619  0.3314 -0.0843 -0.2098
19432W        W35566   8.709   8.624   3.245  0.3475  0.1043 -0.1100
19433W        W35567  13.610  13.332  12.988  0.0386  0.0321 -0.0636
19434W        W35568   3.017  18.061   2.395 -0.2807 -0.1227  0.4775
19435W        W35569  14.755   9.575   3.157  0.0001  0.1382  0.0705
19436W        W35570   1.236  15.408   1.727 -0.2717  0.0472 -0.4418
19437W        W35571  16.340  10.174  10.802 -0.2060 -0.1880  0.0021
19438W        W35572  11.556  12.233  13.140  0.4388 -0.0837 -0.2185
19439W        W35573   3.716  15.656  13.243 -0.0853 -0.0623 -0.4207
19440W        W35574  18.826   0.671  11.136  0.1265 -0.2890  0.0120
19441W        W35575  13.425   7.313   3.106 -0.1362 -0.2484 -0.1826
19442W        W35576  16.179  17.950   0.648  0.3148  0.0736 -0.1233
19443W        W35577   9.224  11.459  13.653  0.4724  0.0829  0.0337
19444W        W35578  18.885  12.640   4.647  0.0000  0.3557 -0.4643
19445W        W35579   6.055   4.256  11.943 -0.0209  0.0494 -0.3365
19446W        W35580   2.104   2.704   0.060 -0.0106 -0.2232  0.1476
19447W        W35581   6.423   1.409   1.596  0.0072  0.2140  0.0070
19448W        W35582  14.895  17.621  14.306  0.2181 -0.0069  0.0257
19449W        W35583  10.463   9.173   1.502  0.2268  0.1365 -0.0464
19450W        W35584   6.881  18.995  14.935 -0.0090 -0.0637  0.1461
19451W        W35585   1.315   1.323  13.151 -0.2434 -0.1569 -0.3094
19452W        W35586   2.168  10.928  14.687  0.0873 -0.0345 -0.0993
19453W        W35587   7.285  12.392  12.705  0.0071 -0.0832 -0.2687
19454W        W35588  11.426   2.570  12.782 -0.1460 -0.0808  0.0580
19455W        W35589   8.888   9.239   1.033  0.0062 -0.3303 -0.0451
19456W        W35590  11.789  15.066   4.508 -0.1762 -0.0762  0.1033
19457W        W35591   8.315   3.215   2.789  0.1484  0.2244 -0.1206
19458W        W35592   8.116  16.383   2.451 -0.0364 -0.0117 -0.2146
19459W        W35593   8.624  11.951   5.339 -0.1692  0.0059 -0.0519
19460W        W35594  11.641   2.526   3.424 -0.0907  0.4066 -0.1255
19461W        W35595  18.550   9.944   3.882 -0.2061 -0.0147 -0.0906
19462W        W35596   8.613  16.499   1.260  0.2752 -0.1275  0.1783
19463W        W35597   8.154  11.497  14.712  0.0572  0.2263 -0.4047
19464W        W35598   5.903   2.446   2.997 -0.0374  0.1341  0.3622
19465W        W35599  10.388  13.134   3.131  0.0812 -0.3185  0.0327
19466W        W35600  13.939  16.455   5.435  0.0514 -0.2706 -0.0176
19467W        W35601  16.493  12.297  15.203 -0.0946 -0.1205 -0.0921
19468W        W35602  14.710   5.156   2.720 -0.3702 -0.1687 -0.4383
19469W        W35603   0.654  11.595   0.238  0.0115  0.0242  0.0735
19470W        W35604   6.883  15.367   1.393 -0.0951 -0.1450 -0.0041
19471W        W35605  15.439   0.523   4.303  0.1977 -0.1209  0.0920
19472W        W35606   7.666  13.760   3.753 -0.4673  0.0531 -0.3568
19473W        W35607   7.129  14.612  14.698  0.0391  0.3412  0.0193
19474W        W35608   4.458   5.680  14.312 -0.2584  0.0494  0.0276
19475W        W35609   8.759   8.765   5.157 -0.0709  0.0099  0.3529
19476W        W35610  10.812   5.174   1.980 -0.1778  0.1524  0.0730
19477W        W35611  11.225   4.389   4.225 -0.1282  0.0807 -0.1583
19478W        W35612   9.084  17.386   0.873 -0.0024 -0.2069 -0.1070
19479W        W35613  11.745  11.111   4.417  0.1444 -0.3189 -0.1448
19480W        W35614  11.897  12.896   5.120 -0.0234 -0.5290 -0.0587
19481W        W35615  11.685   8.443   4.094  0.0923 -0.3036  0.0611
19482W        W35616   0.496   5.817   1.288 -0.0717  0.2462  0.1400
19483W        W35617   7.320   9.802  14.796  0.0586 -0.1051 -0.1754
19484W        W35618  14.010  18.595   3.521  0.2184 -0.0684  0.2122
19485W        W35619  16.796  14.512   0.834  0.0166 -0.0794 -0.1227
19486W        W35620  17.500  16.425  12.574  0.2773 -0.2639 -0.0222
19487W        W35621   2.728  16.032   0.513  0.0786 -0.0751 -0.3029
19488W        W35622   2.820   8.914  14.948 -0.0307  0.0010 -0.1855
19489W        W35623  11.775  17.867  13.488  0.0091 -0.1016 -0.0314
19490W        W35624   2.200  11.203  12.420  0.0547  0.1170 -0.1259
19491W        W35625   2.125   2.813  13.437 -0.2783 -0.0625 -0.2177
19492W        W35626   8.764   7.703   5.328 -0.2037  0.1071  0.0608
19493W        W35627  15.706   4.645  10.914 -0.3436  0.3387 -0.1773
19494W        W35628  14.431   9.332  13.718 -0.1862 -0.2237 -0.1314
19495W        W35629   2.388   6.028  13.358  0.3795 -0.1907  0.1626
19496W        W35630  16.139  12.274   1.514  0.3804  0.1035  0.1242
19497W        W35631   2.941   9.184   2.974 -0.0305 -0.0351 -0.3073
19498W        W35632   4.009  18.141  10.858  0.1043  0.2237  0.0824
19499W        W35633  17.102  14.247  14.668 -0.2452 -0.0881 -0.0829
19500W        W35634  18.746  18.486   0.351 -0.1758 -0.0196  0.0038
19501W        W35635   2.267  10.269   0.485 -0.0694  0.2464 -0.1829
19502W        W35636   2.684   0.464  10.272 -0.3004  0.0432  0.0649
19503W        W35637   5.433   7.451  15.073  0.1369  0.1462  0.1148
19504W        W35638  16.747  18.032  10.956 -0.0300 -0.0433 -0.0337
19505W        W35639  15.114  12.499   2.478 -0.1796  0.2425 -0.4800
19506W        W35640   7.609  16.520  13.865 -0.0139 -0.0320 -0.2489
19507W        W35641   5.037  18.078   0.713  0.3408  0.2752 -0.0403
19508W        W35642  16.742  11.728   4.302 -0.2416  0.0402 -0.3534
19509W        W35643  12.652   5.688   4.093  0.1030 -0.2044  0.0269
19510W        W35644   3.909   1.939   1.582  0.0228 -0.1877  0.4470
19511W        W35645   1.312  15.408   5.289 -0.0437  0.2501  0.2542
19512W        W35646   1.404   4.600  12.903 -0.0961 -0.2330  0.0614
19513W        W35647   8.777  11.602  13.351 -0.1236  0.0240 -0.0444
19514W        W35648   4.228  16.671   1.156  0.0120  0.4172  0.2739
19515W        W35649   9.061  13.353  14.554  0.5735 -0.3195  0.1019
19516W        W35650  16.736   7.690  14.797 -0.2039 -0.0992 -0.1393
19517W        W35651  19.142   7.957   1.171  0.2411 -0.1560  0.1651
19518W        W35652   0.435   0.304  15.052  0.0474  0.1980 -0.2994
19519W        W35653  15.598   8.923   3.242 -0.2566  0.2487  0.0235
19520W        W35654   6.446  16.060  11.550  0.1740 -0.2349 -0.2118
19521W        W35655  18.527  16.401   0.634 -0.2195 -0.0640 -0.0855
19522W        W35656  15.291   1.735  11.779  0.2633  0.0567 -0.2518
19523W        W35657  18.171   1.375   3.012 -0.1892 -0.1593 -0.2464
19524W        W35658   4.458   3.885   4.722  0.4358  0.1982  0.3307
19525W        W35659  18.619  11.005   1.764 -0.0128  0.0370  0.0899
19526W        W35660   8.864  13.638   0.871 -0.1251  0.2694 -0.0596
19527W        W35661  17.400  14.271   0.632  0.0588  0.0078  0.2128
19528W        W35662  10.021   2.921   0.998 -0.0955 -0.1275 -0.2020
19529W        W35663   8.005  10.191   1.695  0.0894  0.1346 -0.1836
19530W        W35664  18.821  12.677   1.992 -0.0797  0.0108 -0.1479
19531W        W35665   4.207   7.575   0.667 -0.2791 -0.2696  0.0954
19532W        W35666   9.189   8.819  11.814  0.4170 -0.1070 -0.0492
19533W        W35667  12.372   9.779  14.564  0.1283 -0.2034 -0.0003
19534W        W35668   2.776   7.536   1.423  0.3134  0.3031 -0.3649
19535W        W35669   2.988   2.890   5.357  0.1146  0.0857 -0.2372
19536W        W35670  15.574   6.428   0.406  0.0669 -0.0276  0.1660
19537W        W35671  14.005   5.075  12.652  0.0957 -0.0451 -0.0518
19538W        W35672  16.018   6.938  11.897 -0.0209 -0.1797  0.0377
19539W        W35673  10.565  15.545   1.171  0.0129  0.0664  0.3887
19540W        W35674   7.735   9.826   1.860 -0.0815  0.1483  0.0095
19541W        W35675  10.301   6.476  13.521  0.3060 -0.1414  0.2754
19542W        W35676   4.971  16.809  14.517 -0.0431  0.1087 -0.1756
19543W        W35677   3.203  13.606   2.981 -0.4945  0.2104  0.0361
19544W        W35678  11.237  11.736  14.846  0.1008 -0.1262  0.1601
19545W        W35679   3.118   7.213   2.602  0.2530 -0.4729 -0.1051
19546W        W35680   7.752  15.625   0.839 -0.0351  0.0835  0.2253
19547W        W35681   1.499   5.533   3.286  0.1601 -0.1970  0.0392
19548W        W35682  15.408   1.731   4.651 -0.1272 -0.0173 -0.1035
19549W        W35683  18.943  16.131   0.702  0.2175  0.0918 -0.2527
19550W        W35684  18.941   9.021  10.464 -0.1007 -0.4058  0.1763
19551W        W35685  18.763   2.543  13.498 -0.0621  0.1195  0.1353
19552W        W35686  13.020  10.764   0.322 -0.1210 -0.0925 -0.0636
19553W        W35687  17.117   7.008   0.315  0.1951 -0.1104 -0.0813
19554W        W35688   6.566   8.587   3.668 -0.1906 -0.2606  0.0212
19555W        W35689  10.238   6.245   4.900 -0.0592 -0.0645 -0.0074
19556W        W35690   0.948   8.722  14.561 -0.2898  0.0190  0.0475
19557W        W35691   4.198   3.332   0.652  0.1119 -0.1591 -0.2962
19558W        W35692  17.603   7.400   1.588 -0.1687 -0.2376  0.0261
19559W        W35693   1.217   2.187   3.989 -0.0373 -0.2017 -0.1007
19560W        W35694  12.109   5.294  11.955  0.1388 -0.5046 -0.0226
19561W        W35695   8.753  16.541  12.418 -0.2062 -0.2559  0.1442
19562W        W35696   4.676  17.478  10.055  0.0958 -0.1073  0.2311
19563W        W35697   2.339   0.867  11.150  0.2739 -0.1939  0.1424
19564W        W35698  17.651   2.471   0.350 -0.5346  0.0242 -0.5662
19565W        W35699   6.639  16.758   0.147  0.0497  0.1230 -0.4128
19566W        W35700   5.726   9.295   2.433 -0.3309 -0.6625 -0.0574
19567W        W35701   8.626   8.694  14.247 -0.2011  0.2595  0.2898
19568W        W35702   7.746   0.577   0.922  0.3985 -0.1740  0.1455
19569W        W35703  12.605   8.972  14.098  0.1591 -0.2973 -0.0517
19570W        W35704  11.625   3.754  11.140 -0.1023  0.0998 -0.1931
19571W        W35705  19.132   1.307   2.951  0.0492 -0.4339 -0.0568
19572W        W35706  18.421   9.376  13.577  0.0890  0.0564  0.0438
19573W        W35707   2.165   1.893   0.288  0.1093  0.0272  0.0708
19574W        W35708   8.522  13.022   1.928  0.0173  0.0755 -0.0673
19575W        W35709   3.419  18.835   4.606 -0.0019  0.0773 -0.0944
19576W        W35710  17.838  11.206  13.916  0.2176  0.4245 -0.0608
19577W        W35711   2.841   3.635   2.456 -0.1282  0.1909  0.0447
19578W        W35712  14.238   8.149   2.635  0.0536 -0.2380 -0.0346
19579W        W35713   0.950   7.171   0.742  0.1170 -0.0628  0.1360
19580W        W35714  11.667   9.082   1.714  0.1588 -0.2140 -0.0795
19581W        W35715  12.772  12.324   4.281  0.0636  0.1279 -0.0920
19582W        W35716   2.569   7.459  13.053  0.0306  0.2586  0.2280
19583W        W35717   9.206   8.472   1.693  0.0549  0.2305 -0.1282
19584W        W35718   3.611   9.295   1.487 -0.0828  0.1653  0.0935
19585W        W35719  11.373   0.557   4.735 -0.0449  0.4101 -0.0079
19586W        W35720  14.188  12.137  14.815  0.0826  0.1460 -0.1625
19587W        W35721   1.407   4.905  13.861 -0.3358  0.0594 -0.1359
19588W        W35722   4.513   9.447   3.378 -0.1911  0.0803 -0.1359
19589W        W35723   9.575   3.760   0.419  0.0197  0.1634  0.3053
19590W        W35724   4.127   7.332   5.621 -0.2519 -0.1198  0.3929
19591W        W35725  18.456  18.051  10.521 -0.1065  0.1512 -0.1712
19592W        W35726   2.340  12.497   1.391  0.0359  0.0088 -0.1340
19593W        W35727   9.163   3.116   1.516 -0.2720  0.1563  0.0068
19594W        W35728   5.768  12.528   0.635  0.2028 -0.1955  0.1957
19595W        W35729   8.769   1.296   0.440  0.0394  0.0510 -0.2047
19596W        W35730   1.352   5.204   2.175 -0.2607 -0.1575 -0.3182
19597W        W35731   8.433  12.558  12.283 -0.2890  0.0915  0.1022
19598W        W35732  18.757  12.815   2.523 -0.1076 -0.1240 -0.0778
19599W        W35733   9.376   3.901   2.962  0.3448 -0.0044  0.0731
19600W        W35734   4.361   9.428   4.487  0.1330  0.2421 -0.0698
19601W        W35735  14.423   5.414   5.387 -0.1660  0.2372 -0.0833
19602W        W35736  12.046  16.525   4.508 -0.1467 -0.0003 -0.2713
19603W        W35737  13.636   6.720   0.500  0.0807  0.3878 -0.0068
19604W        W35738   7.306   0.207   2.773  0.2633 -0.2070  0.0963
19605W        W35739  14.755   4.109  14.669 -0.2022  0.0725 -0.2163
19606W        W35740   8.107   8.074  11.837 -0.4894  0.1238 -0.3358
19607W        W35741  12.517  18.521  10.989  0.1444 -0.4070  0.0045
19608W        W35742   9.115   2.954  13.673 -0.0753  0.3230  0.2554
19609W        W35743  11.840   1.092   5.089  0.1376 -0.1228 -0.0727
19610W        W35744   1.131   1.702   3.254  0.0519  0.3324 -0.0722
19611W        W35745   3.976   3.734  14.237 -0.3090  0.1999 -0.0533
19612W        W35746   9.808   2.749  11.940  0.0228  0.1494 -0.0913
19613W        W35747   5.026   7.732  10.607 -0.0789  0.0310  0.1118
19614W        W35748  18.092  14.183  13.500  0.2157  0.0360  0.1882
19615W        W35749  13.383  17.994   0.320  0.2506  0.2410  0.0119
19616W        W35750   6.124  17.913   2.204 -0.2631  0.3277 -0.0344
19617W        W35751   0.421  10.426  12.680  0.0021  0.3593  0.0841
19618W        W35752  12.098   2.716  14.111  0.0635 -0.1011  0.1075
19619W        W35753  16.560   6.657   1.720 -0.0938  0.1451  0.0867
19620W        W35754  13.500   7.281   4.835 -0.1977  0.1363  0.1839
19621W        W35755   2.852  12.895   1.359 -0.0293  0.0952 -0.0308
19622W        W35756  13.125  18.049   0.767  0.2009 -0.3298 -0.1827
19623W        W35757  13.367  13.833   3.456  0.0326 -0.1504 -0.1812
19624W        W35758  12.779  11.678   4.243  0.3461  0.0419 -0.0962
19625W        W35759   2.430  13.182  14.666 -0.0613 -0.0212  0.1735
19626W        W35760   8.535  12.834  14.000 -0.1490  0.0517 -0.1503
19627W        W35761  17.850   8.952   4.412 -0.1432  0.1912 -0.0029
19628W        W35762   2.882   9.667   9.910  0.0464 -0.1217 -0.0002
19629W        W35763  15.241  11.051   5.335 -0.1309 -0.0920 -0.1628
19630W        W35764  17.511  17.870  12.879 -0.2330  0.2908  0.0694
19631W        W35765  13.011   4.929   5.269  0.2552 -0.2138  0.3389
19632W        W35766   6.452  13.831  12.781 -0.4173  0.1252  0.0976
19633W        W35767   7.897   3.785  11.710 -0.2919 -0.0804  0.0784
19634W        W35768   4.772  15.223   4.105 -0.2405  0.1393  0.1639
19635W        W35769  16.229  13.531  14.347 -0.0191  0.1730  0.1060
19636W        W35770   5.863   7.671   1.369 -0.0474 -0.0615 -0.2576
19637W        W35771   5.657  17.617   0.913  0.0991 -0.1541  0.0926
19638W        W35772   5.930   4.528   0.589  0.1314 -0.0367 -0.0605
19639W        W35773  12.807  11.886  12.006 -0.1651 -0.2334 -0.0080
19640W        W35774  15.957  15.541  11.920 -0.0544 -0.1571 -0.2522
19641W        W35775  15.325   3.512   2.381  0.1543  0.7262 -0.3356
19642W        W35776   7.161   8.117  12.257  0.0369 -0.0239  0.0464
19643W        W35777   0.181  10.136   1.045  0.0032 -0.2573  0.0154
19644W        W35778  13.168   4.512   2.106  0.4428  0.0420  0.0443
19645W        W35779   9.490  16.451   4.932 -0.0188 -0.2238 -0.0003
19646W        W35780   3.132  15.245  14.625 -0.6550  0.2739 -0.2927
19647W        W35781  14.871  17.252  11.526  0.2857 -0.3019 -0.1940
19648W        W35782  19.099   4.910  12.578 -0.0593  0.1706 -0.0965
19649W        W35783  17.927  10.774   0.458 -0.0968  0.2438  0.3278
19650W        W35784  17.307   3.419   4.447 -0.0800 -0.0760  0.2441
19651W        W35785  14.983  15.845   0.643  0.1148 -0.2482 -0.0446
19652W        W35786  12.697  14.120  11.232 -0.1953 -0.0317  0.0577
19653W        W35787  15.322  15.235   0.452 -0.0406 -0.2163  0.0468
19654W        W35788   1.830  17.058  10.470 -0.3088 -0.0670 -0.2171
19655W        W35789  14.764  15.895   0.152 -0.6269 -0.2847  0.2957
19656W        W35790  15.101   4.084   4.078 -0.0120  0.3505  0.1763
19657W        W35791   2.176   1.310  12.160  0.2034  0.1164 -0.1442
19658W        W35792   6.157   1.162  12.866 -0.0081  0.0729  0.1281
19659W        W35793  15.325  17.145   3.254  0.0131 -0.0383 -0.1758
19660W        W35794  15.767   9.459   1.234  0.1936 -0.0255 -0.3580
19661W        W35795  13.950  16.076  15.044 -0.4805  0.0834  0.0800
19662W        W35796  18.619   3.474   0.888 -0.1459 -0.2835  0.1024
19663W        W35797  17.424  10.620  13.221  0.0420  0.0699  0.1098
19664W        W35798   8.667   0.395   1.208 -0.2574 -0.3553  0.1202
19665W        W35799  10.952   7.463  14.861  0.1607 -0.2222  0.0807
19666W        W35800  18.878   4.303   2.970 -0.1007 -0.0731 -0.0672
19667W        W35801   4.717  15.195  13.922  0.3002 -0.1220 -0.1839
19668W        W35802  15.678   2.304  14.920  0.1235 -0.0662  0.0229
19669W        W35803  13.733   8.480   4.246  0.0805 -0.0080  0.0297
19670W        W35804   1.573  18.585   4.884 -0.2634  0.1796 -0.2667
19671W        W35805  14.857   1.435  11.864  0.0592 -0.1299 -0.1261
19672W        W35806  10.452   8.643  10.491 -0.1768  0.1594  0.1564
19673W        W35807   8.395  11.052  14.657  0.1417 -0.1078  0.5464
19674W        W35808   3.396  18.049   2.689 -0.0271 -0.3047  0.0636
19675W        W35809   7.003  18.299   0.363 -0.0861  0.0471  0.0695
19676W        W35810  16.214  13.134  15.173 -0.2522  0.0406  0.2134
19677W        W35811   0.865  14.166   4.818 -0.0308  0.3255 -0.1401
19678W        W35812   1.704   2.174  13.259 -0.0710  0.0709  0.1528
19679W        W35813  14.841   2.454   5.127  0.1758 -0.1389 -0.2022
19680W        W35814  12.362  17.529  12.464 -0.0612  0.2388 -0.3578
19681W        W35815  18.610  16.443   3.457 -0.0416 -0.0101  0.1402
19682W        W35816  16.270   4.831  10.870  0.1972  0.0571  0.1447
19683W        W35817  10.162  10.376   2.772 -0.0646 -0.1062 -0.1841
19684W        W35818   8.188  17.372  13.556 -0.3042  0.1347  0.3509
19685W        W35819   5.811  15.967   0.651 -0.2241 -0.0275 -0.1059
19686W        W35820   8.033   9.884   4.571 -0.1269 -0.0872  0.0307
19687W        W35821  14.484   3.216  14.438  0.0545 -0.2669  0.0852
19688W        W35822   2.409   5.048  10.246  0.1892 -0.1142 -0.1669
19689W        W35823   5.786  16.942  13.416  0.2749 -0.2909  0.1459
19690W        W35824  12.086  18.977   0.754 -0.1997  0.3382 -0.0538
19691W        W35825  16.168  15.125   1.027 -0.0116 -0.3063  0.0598
19692W        W35826  12.480   0.153  13.000 -0.2459  0.2567 -0.2266
19693W        W35827   3.025  15.367  11.925 -0.0758  0.3706 -0.0507
19694W        W35828   0.109   2.617  12.111 -0.0987 -0.1431  0.1120
19695W        W35829  10.123   4.058  10.538  0.0436  0.1623 -0.0192
19696W        W35830   4.319  17.412  12.067  0.3376  0.2031  0.1452
19697W        W35831   6.617   0.252  13.221  0.0092  0.0677 -0.2132
19698W        W35832  10.784  10.341  12.554 -0.2282 -0.1100 -0.2445
19699W        W35833   2.497   3.192  12.500  0.0769  0.1590  0.1510
19700W        W35834  11.743   7.333  14.441  0.2330  0.1512 -0.2321
19701W        W35835  10.456  12.105  10.834 -0.0116  0.0737  0.1247
19702W        W35836   7.337  18.524  12.956  0.1746  0.1765 -0.0470
19703W        W35837   8.055  11.193   3.715 -0.3459 -0.2655  0.1530
19704W        W35838  10.919   7.625   4.203 -0.2959  0.1865 -0.1323
19705W        W35839  17.907   5.184   2.833 -0.1668  0.2622  0.0972
19706W        W35840  16.197  16.618  14.989 -0.0838 -0.2010 -0.0075
19707W        W35841   4.136   5.598   0.127  0.1912  0.0896 -0.0327
19708W        W35842  11.167  12.359  13.523 -0.1277 -0.1072 -0.2454
19709W        W35843   1.380  13.832  14.255  0.1016  0.0193  0.1286
19710W        W35844  18.045   8.825   2.503 -0.0358 -0.3671  0.0637
19711W        W35845   9.619   1.065  14.807  0.4117  0.4323  0.2125
19712W        W35846  13.780  10.492  12.380 -0.0082  0.3606  0.0943
19713W        W35847  17.920   7.625  13.441  0.2195  0.0459 -0.4690
19714W        W35848  15.377   5.863   3.226  0.0405 -0.1454 -0.1590
19715W        W35849  16.553  11.178   0.974  0.1999 -0.5159 -0.0093
19716W        W35850   9.750   9.084  10.113  0.0559  0.0340 -0.0257
19717W        W35851   7.560  13.116   3.236  0.0048 -0.0371  0.2426
19718W        W35852  11.032   6.650   2.536 -0.1023  0.0132 -0.1242
19719W        W35853   8.929  12.208  14.766 -0.0442  0.2863 -0.0403
19720W        W35854  14.696  13.064   0.008 -0.0302  0.0177 -0.0530
19721W        W35855  11.029   5.431   9.878  0.2127 -0.0862 -0.2953
19722W        W35856  11.400  10.384   2.421 -0.0297  0.3777  0.0802
19723W        W35857   3.677  19.111   1.597 -0.2641  0.1348  0.0956
19724W        W35858  10.034   8.466   1.260  0.3797 -0.0147  0.0371
19725W        W35859   5.539   6.043  10.364 -0.0208  0.1339 -0.0919
19726W        W35860  14.891  12.640  13.313  0.1173 -0.2764  0.1267
19727W        W35861   8.545   6.434  12.980 -0.1446  0.4987 -0.1924
19728W        W35862  10.546   1.502  14.090 -0.0191  0.1140 -0.0113
19729W        W35863  16.190  16.167  11.331  0.0912 -0.0033  0.2377
19730W        W35864   7.691   0.340  12.075  0.3070  0.0176  0.3520
19731W        W35865  13.394  17.221  11.333 -0.1945 -0.2252  0.0097
19732W        W35866  10.000  10.200  10.732  0.2131  0.0936  0.0328
19733W        W35867  10.091  15.108   5.256 -0.2336 -0.1572  0.0747
19734W        W35868   2.003   1.302   0.282  0.3696 -0.0202  0.1147
19735W        W35869   3.540   2.444   2.822 -0.1439 -0.1844 -0.0164
19736W        W35870   0.319  12.722   1.424 -0.0878 -0.4100 -0.0135
19737W        W35871   0.634  10.911   1.336 -0.1266  0.0046  0.1665
19738W        W35872  12.843   0.805   2.015  0.1887 -0.1897  0.0206
19739W        W35873  15.213   4.636  14.026  0.2898  0.0833 -0.2390
19740W        W35874  15.298   8.161   1.379  0.1155  0.2630  0.0669
19741W        W35875   4.340   8.606  11.102 -0.2139  0.2343 -0.0265
19742W        W35876  10.692  13.158   4.370 -0.0103  0.0116 -0.1250
19743W        W35877  17.537   7.544  14.257  0.3439 -0.3215  0.1749
19744W        W35878   2.456  16.019  12.380 -0.2046 -0.0455 -0.2277
19745W        W35879  11.837   0.777  12.570  0.0051 -0.1924 -0.0563
19746W        W35880  10.143   5.557   1.584  0.3352 -0.1904  0.0414
19747W        W35881   5.967  17.337  13.178 -0.0923 -0.0572 -0.2796
19748W        W35882  12.028  11.349   0.002 -0.1330 -0.0578 -0.3939
19749W        W35883   1.925  15.945   4.490  0.0082 -0.2623  0.1642
19750W        W35884   6.620  14.729  14.459 -0.2079  0.1898  0.2847
19751W        W35885  10.217   0.902   2.483 -0.1970  0.1183 -0.3476
19752W        W35886   1.293   7.182  14.896  0.0298  0.2922  0.0596
19753W        W35887  15.439   7.052   2.284  0.1102 -0.0940  0.0851
19754W        W35888   8.056   2.491  11.074  0.2490 -0.0278 -0.2890
19755W        W35889   4.594  11.624   3.743 -0.0951  0.2557 -0.0939
19756W        W35890   7.079   6.323  13.337  0.0543  0.1126  0.2243
19757W        W35891   0.275   7.032   4.231  0.0549 -0.0716 -0.2803
19758W        W35892  15.906  16.513   5.713 -0.4233  0.0264  0.3406
19759W        W35893   5.979   4.704   2.780 -0.1142 -0.1212  0.0310
19760W        W35894   6.890  12.506   3.899 -0.1864 -0.3224  0.0817
19761W        W35895  18.080  13.392   0.152 -0.0879  0.0503 -0.0909
19762W        W35896  11.174  10.770   3.520  0.0500 -0.4359  0.1366
19763W        W35897  11.859   6.809  10.946 -0.2287 -0.0025 -0.3451
19764W        W35898  14.769  10.858  12.768 -0.0697 -0.0391  0.1669
19765W        W35899   9.522   6.648   2.355  0.1076  0.0979  0.0971
19766W        W35900   2.815  11.144   4.510  0.1016 -0.1643 -0.0764
19767W        W35901   4.380  11.347   0.743  0.3645 -0.1143  0.2291
19768W        W35902  17.086  18.312   0.807  0.1467  0.0657  0.0349
19769W        W35903  17.833   1.639   2.639  0.0614  0.1255  0.0285
19770W        W35904  11.714   3.881   2.103  0.2898  0.4574  0.2291
19771W        W35905   5.807  18.894   4.219  0.1801  0.1705  0.1493
19772W        W35906   1.925   0.777   4.918  0.0214 -0.1756  0.0958
19773W        W35907   4.387  10.917  12.358 -0.4138  0.0437 -0.0141
19774W        W35908  10.568  17.989  13.950 -0.0740  0.0374  0.0639
19775W        W35909   1.799  17.758  14.423  0.2082 -0.0476  0.0561
19776W        W35910   9.403  11.007  14.298 -0.0745 -0.0553  0.2187
19777W        W35911  12.979  16.856  15.157  0.4961  0.1582 -0.1002
19778W        W35912   3.474  16.516  12.063 -0.1060  0.0729  0.2157
19779W        W35913   3.490   3.224  10.672  0.0886  0.2095 -0.1294
19780W        W35914  17.643  10.445  11.832 -0.0507  0.2216 -0.2133
19781W        W35915   0.595  15.976   1.277  0.2065 -0.0933  0.1695
19782W        W35916  12.607  17.580  13.555 -0.1230 -0.1968 -0.1638
19783W        W35917  16.940  17.801   2.549 -0.1463 -0.2896 -0.3587
19784W        W35918  16.341   7.649   2.845 -0.3028  0.0755 -0.0844
19785W        W35919  12.616  18.082  13.789  0.3059  0.0398  0.1207
19786W        W35920   5.908  12.060  11.937  0.1881 -0.0449 -0.3373
19787W        W35921   4.535   4.375   0.541  0.1706 -0.2746 -0.3120
19788W        W35922   8.233   2.044   5.645 -0.1878  0.0591  0.2099
19789W        W35923  11.954  14.711   1.812 -0.0334 -0.1585  0.3234
19790W        W35924   7.670  17.308  12.342 -0.0554 -0.0136 -0.0437
19791W        W35925  15.520   2.991   2.437 -0.0307 -0.0909 -0.2830
19792W        W35926  15.410   6.893  14.100  0.1551 -0.1962 -0.0256
19793W        W35927   7.957  12.609   6.255 -0.1114  0.2386  0.0982
19794W        W35928   3.080   1.943   2.078 -0.3836 -0.0307 -0.0474
19795W        W35929  15.840  15.376  13.319  0.1459  0.4177  0.5739
19796W        W35930  12.211  14.569   3.447 -0.2742 -0.1248 -0.0340
19797W        W35931   9.610   7.390  13.200 -0.2269 -0.3596  0.1046
19798W        W35932  18.090  13.531   3.746 -0.0176  0.1679  0.0392
19799W        W35933   1.002  16.120  11.713 -0.3017  0.2279  0.0258
19800W        W35934   0.258  11.233   1.053  0.1280  0.1211 -0.1714
19801W        W35935   4.563   6.563   2.123  0.3582  0.0881 -0.0188
19802W        W35936   7.530   3.664   1.796 -0.0177 -0.0725  0.0189
19803W        W35937  15.558  18.289   4.268 -0.1959 -0.3574 -0.1920
19804W        W35938   3.702  15.486   3.995 -0.1149 -0.0582  0.1069
19805W        W35939  12.289   3.199   3.473 -0.0087 -0.3320 -0.0993
19806W        W35940   6.783   4.814   0.742 -0.0748 -0.2603 -0.4786
19807W        W35941   7.432  13.977   0.405  0.2394 -0.0605  0.0282
19808W        W35942   3.056  10.211  12.666 -0.0403 -0.1285 -0.1673
19809W        W35943   3.009   9.910   2.466  0.0567 -0.1776 -0.1499
19810W        W35944   1.044   1.509  10.491  0.0198 -0.1656  0.1180
19811W        W35945   1.459  11.464  13.118 -0.1477 -0.1208 -0.3037
19812W        W35946  14.310   4.933  14.906 -0.3545 -0.2991  0.0331
19813W        W35947  18.330  16.690  14.904 -0.3819 -0.0234  0.2122
19814W        W35948  16.834  13.340  10.603  0.2575 -0.2364  0.0625
19815W        W35949  10.808  17.685   1.230  0.0159 -0.1410  0.2876
19816W        W35950  14.744  17.800   0.055 -0.0455 -0.0946 -0.2966
19817W        W35951   8.647   1.081  12.730  0.3342  0.1548 -0.1080
19818W        W35952  14.458  14.044   2.176  0.3015  0.0191 -0.4798
19819W        W35953  15.524   0.328  14.775  0.2614 -0.2255 -0.0847
19820W        W35954  18.380  19.098  11.874 -0.1579  0.0822  0.2932
19821W        W35955   3.423  14.175   1.237 -0.0786 -0.0977 -0.3247
19822W        W35956   5.598  14.821  12.788 -0.0478  0.1964 -0.0113
19823W        W35957  14.105  12.950  14.718 -0.0405 -0.0363  0.0816
19824W        W35958   0.779  17.747   1.948  0.2179 -0.0206  0.2338
19825W        W35959   9.704   8.694  13.940  0.3245 -0.0499 -0.0014
19826W        W35960   1.768   7.441  11.898 -0.1322 -0.1800  0.0812
19827W        W35961   1.520   7.322  10.539 -0.2220 -0.1705 -0.1254
19828W        W35962  16.849  15.086  13.056 -0.4043  0.0004  0.0688
19829W        W35963  18.058  12.976  12.145  0.0215  0.1706  0.0733
19830W        W35964  17.456   6.426   4.092  0.1084  0.0892 -0.0836
19831W        W35965  15.112   8.593  15.104  0.4947  0.3943  0.0948
19832W        W35966   8.286  12.736  11.263  0.1425  0.0654 -0.1280
19833W        W35967   3.238  12.023   1.647 -0.1610 -0.1119 -0.0904
19834W        W35968  13.549  12.039  12.508 -0.1321  0.2797  0.1773
19835W        W35969   2.838   1.615   0.692 -0.1123  0.3689 -0.0330
19836W        W35970   0.909   3.545  11.531  0.1808  0.0755 -0.1881
19837W        W35971   9.159  19.133   2.705  0.1710 -0.1833  0.0249
19838W        W35972   4.039   2.858   2.278 -0.0137  0.0948 -0.0854
19839W        W35973  14.672   4.879  13.977 -0.1869  0.0735 -0.2149
19840W        W35974   6.670  14.567   0.587  0.0630  0.1233 -0.2302
19841W        W35975   6.673   0.945  12.086 -0.1415  0.1827  0.4999
19842W        W35976  15.268   4.691   2.715 -0.1060 -0.0163  0.2087
19843W        W35977   6.826   4.529  13.080  0.1370  0.0259 -0.0136
19844W        W35978  17.590  12.655  11.822  0.0191  0.2156 -0.2332
19845W        W35979  17.205   8.624  11.504 -0.1547 -0.3442 -0.1849
19846W        W35980   4.689  14.606  13.812 -0.0572 -0.0823 -0.2238
19847W        W35981  16.616  10.963   4.679  0.2634 -0.1557 -0.0813
19848W        W35982  14.180  18.426   4.643  0.1115 -0.0365  0.0876
19849W        W35983   3.262  13.075  14.374  0.0537  0.3982  0.2252
19850W        W35984  15.562   1.375  12.353  0.1108  0.0334  0.0632
19851W        W35985  18.495  17.809  11.550 -0.1788 -0.2688 -0.1836
19852W        W35986  12.384   6.067   0.062  0.0937  0.2517 -0.0358
19853W        W35987   1.589   2.427  11.157 -0.0369  0.2363  0.2277
19854W        W35988   4.606   8.906   4.761 -0.1093 -0.0395 -0.0110
19855W        W35989   4.968   4.155   2.703  0.0289 -0.1274 -0.0509
19856W        W35990   3.661  10.866  12.894 -0.2071 -0.1825 -0.1177
19857W        W35991  11.992   2.188   4.746  0.0617 -0.0477  0.0922
19858W        W35992  16.071  17.073  11.087 -0.1768 -0.0033 -0.0866
19859W        W35993   0.801  18.197   5.026 -0.0342  0.0179  0.0856
19860W        W35994   3.725   7.526   3.341 -0.1291 -0.2340 -0.0596
19861W        W35995   3.978   0.804  11.456  0.1217  0.0437  0.2436
19862W        W35996   9.453   7.738   0.290  0.0475 -0.0292  0.3485
19863W        W35997   3.693   5.053   2.362 -0.0633 -0.0900  0.0747
19864W        W35998  19.031   1.775  12.175 -0.2569  0.2140 -0.1186
19865W        W35999   0.672   8.364   0.228 -0.0911  0.3124  0.3112
19866W        W36000  17.026  11.054  13.148 -0.0642  0.1627 -0.1245
19867W        W36001  16.805   9.706   3.171 -0.2520 -0.2089  0.4865
19868W        W36002   1.324   8.520   4.650 -0.2055 -0.2827 -0.1608
19869W        W36003   7.148   0.239  13.606 -0.0393 -0.1578 -0.0922
19870W        W36004   3.430   8.354  10.357 -0.0917 -0.0794  0.1800
19871W        W36005  17.540   8.971  13.681  0.4769 -0.2195  0.1011
19872W        W36006   2.993   7.413  10.745 -0.0824 -0.1331  0.2749
19873W        W36007  17.863  12.985  11.470  0.1588 -0.0865  0.0173
19874W        W36008   2.776   4.549   2.103 -0.1677 -0.0512  0.0127
19875W        W36009   6.960   0.748  14.741  0.1164  0.2676 -0.0375
19876W        W36010  11.711   1.291   3.236 -0.2883 -0.0669 -0.2931
19877W        W36011  12.309  10.563  12.346  0.2473 -0.1300  0.0748
19878W        W36012   1.087  13.445  14.435  0.0665  0.3022  0.3881
19879W        W36013   8.715  11.523   5.609  0.3783  0.0896  0.0038
19880W        W36014  11.257  14.936   1.005 -0.0541 -0.1929  0.0705
19881W        W36015   6.351   3.799  10.500 -0.0410 -0.3436 -0.1997
19882W        W36016  17.509   7.954   0.208 -0.0902 -0.0862  0.5307
19883W        W36017   4.924  11.328   0.013  0.2144  0.2029  0.2661
19884W        W36018   4.847  10.639  13.240  0.0173 -0.0688 -0.0379
19885W        W36019   4.092  10.655   3.647 -0.2306  0.0179 -0.3145
19886W        W36020  13.192   3.558  12.552 -0.4426  0.1531 -0.2528
19887W        W36021   3.340  18.225  11.798 -0.3803  0.0412 -0.0621
19888W        W36022  10.124   4.208   4.135 -0.0948 -0.2197  0.2533
19889W        W36023   7.251   2.037  11.329 -0.2233  0.1754  0.1527
19890W        W36024   6.825   2.403  10.613 -0.1306  0.1777 -0.1970
19891W        W36025   0.853   2.634   1.670  0.2354 -0.0017  0.0689
19892W        W36026  10.115  10.273  13.793 -0.1982  0.2597  0.2160
19893W        W36027   9.550   2.728  13.689 -0.3358 -0.1340 -0.0594
19894W        W36028  17.405   7.441  13.240  0.1282 -0.0790 -0.0343
19895W        W36029  16.966  17.312   2.434 -0.2061 -0.2105 -0.2785
19896W        W36030  12.313   3.551   4.997 -0.1474 -0.0694 -0.0731
19897W        W36031   4.137   7.016  14.669  0.2739 -0.2150 -0.1130
19898W        W36032  12.395   2.908   3.053 -0.3468 -0.1030  0.3207
19899W        W36033   4.224  18.228  14.840  0.1555 -0.0282  0.2348
19900W        W36034  15.335  13.499  13.803 -0.0780  0.0551 -0.1140
19901W        W36035  15.854   4.422   0.822 -0.1246  0.0202  0.2726
19902W        W36036  12.100  11.819  14.301  0.0130 -0.0509  0.0219
19903W        W36037   6.275  16.037   3.363  0.0582  0.4742  0.3289
19904W        W36038  10.299   5.959   1.974 -0.4415  0.0795  0.1193
19905W        W36039   5.662  12.407   4.049  0.1824  0.0811  0.0453
19906W        W36040  17.975  16.791  11.791 -0.0371  0.0633 -0.2175
19907W        W36041   7.489  18.817   2.653  0.1600  0.1200  0.0736
19908W        W36042   2.187   7.144  11.882  0.2493 -0.0932 -0.2718
19909W        W36043  12.347  15.456  12.867 -0.2327 -0.4152 -0.1738
19910W        W36044   3.252   8.979  13.157 -0.0851 -0.1722 -0.0614
19911W        W36045   8.589  12.845   4.938 -0.1525 -0.1743 -0.1952
19912W        W36046  13.989  11.628   4.903  0.0788 -0.0009  0.1293
19913W        W36047  10.129   1.449  12.889 -0.1156  0.3605 -0.3246
19914W        W36048   0.987   2.820  13.392  0.0497 -0.1189 -0.2235
19915W        W36049   2.279   9.013  11.590  0.1570 -0.1735 -0.1738
19916W        W36050   1.499   6.173  14.687 -0.2674 -0.1627 -0.0326
19917W        W36051  12.883  17.472   5.206 -0.0046  0.2403 -0.1949
19918W        W36052  12.895  17.431   2.969  0.2581  0.2547  0.2476
19919W        W36053  15.597   4.879   4.560 -0.1124 -0.3180 -0.0207
19920W        W36054  15.419   8.299   3.987 -0.0670  0.1187  0.2522
19921W        W36055   7.939   3.479  14.880 -0.0488 -0.0587  0.3601
19922W        W36056  18.247   8.462   0.903  0.1868  0.0671 -0.0665
19923W        W36057   8.297  10.419   0.157 -0.2362  0.2313 -0.1241
19924W        W36058  16.092   4.124   2.651  0.2369  0.2830 -0.0709
19925W        W36059  14.196   8.227  14.379 -0.2849 -0.2220  0.0673
19926W        W36060  12.498   5.118   2.765 -0.2713  0.2056  0.1677
19927W        W36061   0.524   2.849  12.443 -0.1708 -0.0260 -0.1400
19928W        W36062  13.005   5.015   2.612 -0.0123 -0.2371  0.5290
19929W        W36063  10.156   5.812   2.526  0.0609  0.1416 -0.1463
19930W        W36064  17.494  10.803   2.085  0.1496  0.0310 -0.0521
19931W        W36065  10.832   4.138   5.830  0.0607  0.1407 -0.0880
19932W        W36066  15.943  10.550  11.849  0.1662  0.2222  0.1318
19933W        W36067  10.080   1.608   3.451 -0.0525 -0.0545 -0.2454
19934W        W36068  12.087  16.420   3.941 -0.2547  0.2112 -0.2263
19935W        W36069   7.005  11.441   5.053 -0.3043 -0.1172  0.0123
19936W        W36070   8.581  11.809   4.823 -0.1112  0.0407  0.1815
19937W        W36071   8.225   5.208  14.271  0.1257  0.1654  0.3896
19938W        W36072   5.104   1.332   4.929 -0.1839  0.4052  0.3073
19939W        W36073  10.469  14.757  10.726  0.1297 -0.3916 -0.1777
19940W        W36074   8.869  19.108  10.969  0.0750 -0.0032  0.0510
19941W        W36075  11.879  18.856  15.063  0.1922 -0.2477 -0.2492
19942W        W36076   6.465   8.572  14.359 -0.0223 -0.0524 -0.1231
19943W        W36077   4.989  15.241  11.289 -0.2488  0.0109 -0.0945
19944W        W36078  13.256   4.947   3.911 -0.2597 -0.1292  0.3209
19945W        W36079   4.685   8.249   4.011  0.0554  0.0512  0.3205
19946W        W36080  10.534   5.492   2.239  0.2553  0.2344 -0.1526
19947W        W36081  12.265  19.030  14.021 -0.0733  0.0028  0.1982
19948W        W36082  15.383  12.211  11.486 -0.0631 -0.3073 -0.1897
19949W        W36083  16.700  12.399  12.756 -0.1608  0.0534 -0.1773
19950W        W36084   8.296  11.827   3.135  0.0310 -0.0001  0.1443
19951W        W36085   0.138  13.354   9.737  0.0102 -0.2004  0.1741
19952W        W36086  12.389  17.256   3.008 -0.0230  0.0726  0.0767
19953W        W36087  11.351   6.247   3.825 -0.0314  0.1465 -0.0555
19954W        W36088  17.154   1.989   4.848  0.0046 -0.0667  0.0444
19955W        W36089  16.881   5.385  13.958 -0.1257 -0.0378 -0.5024
19956W        W36090   7.526  10.218  12.762 -0.2748 -0.3104  0.2033
19957W        W36091  12.292  15.655   2.700 -0.2615 -0.0697 -0.0923
19958W        W36092   8.789   7.126  13.877  0.2093 -0.1022  0.0737
19959W        W36093   4.290   3.610  11.138  0.0494  0.2216 -0.1056
19960W        W36094  12.523   9.982   5.213 -0.2629 -0.0098  0.0803
19961W        W36095   4.054  10.078  11.305  0.0649 -0.2721 -0.0843
19962W        W36096   9.607   4.099  14.494  0.2131  0.1154 -0.2955
19963W        W36097  19.109   9.970  13.300 -0.3772 -0.1115  0.0331
19964W        W36098   6.543  16.210  12.458  0.0622  0.1363 -0.1878
19965W        W36099   1.987  15.517   5.705  0.1068 -0.0220 -0.1071
19966W        W36100   4.546   6.556  10.113  0.2068 -0.5508 -0.4119
19967W        W36101  17.697  10.321   2.137  0.0735 -0.3800  0.0012
19968W        W36102   7.652   9.686   5.477 -0.2971 -0.0402  0.4876
19969W        W36103   4.603   2.073   2.162  0.0395 -0.1198 -0.1581
19970W        W36104  18.006  13.417   2.636 -0.1531  0.2789  0.0330
19971W        W36105  12.963  11.967   0.924 -0.1715 -0.1495  0.0218
19972W        W36106  17.866   1.080   2.485 -0.0397 -0.1060  0.1950
19973W        W36107   7.997  15.044  10.515  0.2699 -0.0731  0.2167
19974W        W36108  14.355   2.247   1.540  0.0464 -0.2493  0.0299
19975W        W36109   0.198   4.347  12.608 -0.0393 -0.1109  0.1926
19976W        W36110  17.363  10.569   1.665  0.2573 -0.1731 -0.2162
19977W        W36111   2.215   7.053   2.987 -0.1667 -0.4337  0.2400
19978W        W36112   6.539  12.652   5.121  0.2712 -0.0358 -0.2850
19979W        W36113   6.339  13.233   0.210 -0.2954 -0.2794  0.2664
19980W        W36114  19.132  18.316   3.201  0.2021 -0.2384 -0.0401
19981W        W36115  13.790   3.573  11.266 -0.1955  0.0790 -0.1289
19982W        W36116   8.060   0.197  14.259  0.0489 -0.1159 -0.1920
19983W        W36117   7.006   4.689   3.282  0.0806 -0.0755 -0.0852
19984W        W36118  12.312  18.980   5.457  0.2334  0.2319 -0.0260
19985W        W36119  10.269  13.918  13.489  0.1293 -0.1104  0.2011
19986W        W36120  15.279  15.663  14.341 -0.0387 -0.1318  0.2148
19987W        W36121   5.175  10.630   4.135 -0.0439 -0.1016 -0.0549
19988W        W36122  14.453   7.151   3.407 -0.3331 -0.1209  0.3085
19989W        W36123   5.806  13.763   0.871  0.0002 -0.3137  0.0261
19990W        W36124  10.934   9.085   2.349 -0.2391  0.3575 -0.2368
19991W        W36125  15.621   9.522   0.768  0.0063  0.0146 -0.3050
19992W        W36126   1.226   3.794  10.313 -0.1763 -0.0736  0.1176
19993W        W36127  17.359  14.179   1.407 -0.0056 -0.0424  0.0634
19994W        W36128  17.688   7.680   0.560 -0.0009  0.0564  0.2949
19995W        W36129   1.606  16.248   3.735 -0.0046  0.2473 -0.0732
19996W        W36130   5.618   8.348  13.656 -0.0408  0.0265 -0.2085
19997W        W36131   9.595  14.276   0.001 -0.2135 -0.2155  0.2608
19998W        W36132  13.841   7.705   2.175  0.0556  0.2498 -0.1738
19999W        W36133   2.774   7.601   3.639 -0.0168  0.0602  0.0648
20000W        W36134  15.669  16.909   1.551 -0.3509 -0.3151 -0.0559
20001W        W36135  12.699   3.744   2.467  0.0862 -0.1896 -0.0174
20002W        W36136   1.222  17.299  14.738 -0.1474 -0.0338  0.0845
20003W        W36137  14.565  14.466   4.076  0.1065 -0.2336  0.1459
20004W        W36138   8.852  17.108   1.219 -0.1417 -0.1196  0.1593
20005W        W36139  14.522  11.921   3.536  0.0341  0.2048  0.2673
20006W        W36140   2.639   3.566   5.248  0.0818  0.0120  0.1501
20007W        W36141   1.901   6.456  13.470 -0.0552  0.1410  0.4234
20008W        W36142  10.863  11.901   1.425  0.1319  0.4053  0.0083
20009W        W36143   2.349  15.643  15.003  0.0254 -0.0182 -0.1684
20010W        W36144   5.397  12.401  12.840 -0.1622 -0.1148 -0.3669
20011W        W36145  18.293  19.146   1.669 -0.0736  0.0585 -0.1883
20012W        W36146  14.019  11.024  11.076 -0.1406  0.0670  0.2625
20013W        W36147   1.713  15.643   1.128 -0.1167 -0.0818  0.0552
20014W        W36148   5.641   3.838  11.046  0.1254  0.1323  0.1791
20015W        W36149   4.331   1.599   5.560 -0.2611  0.0946  0.0804
20016W        W36150   8.585   5.562  10.446 -0.3356  0.0326 -0.1474
20017W        W36151  15.425  10.861  11.512  0.0373  0.2374  0.0678
20018W        W36152   4.842   9.466   0.710 -0.2391 -0.1604  0.0010
20019W        W36153  14.123  14.702  11.560 -0.5825  0.1659 -0.0578
20020W        W36154   0.944  13.663  11.288 -0.2720 -0.0739 -0.1883
20021W        W36155  16.503  12.298  10.298 -0.1632 -0.2533  0.1301
20022W        W36156   5.992  18.918  12.666  0.1859 -0.1986  0.1942
20023W        W36157   9.254  12.633  11.887 -0.1429 -0.1626 -0.2866
20024W        W36158   0.026   4.256  12.126  0.2145 -0.2453 -0.1636
20025W        W36159   5.436   4.268   4.607 -0.2911  0.3436 -0.1320
20026W        W36160   9.560   9.786   3.501 -0.1342  0.0211 -0.0257
20027W        W36161   4.272  11.695  10.884 -0.4101 -0.3192  0.0542
20028W        W36162  15.498   0.334   0.527 -0.0358  0.2305  0.1679
20029W        W36163   0.638  10.190   0.506 -0.0398  0.1200  0.1977
20030W        W36164   9.917   7.382   5.735 -0.2199  0.1050  0.2336
20031W        W36165   5.661   0.453   0.012  0.1212 -0.1510  0.2121
20032W        W36166   2.786  17.989   3.760 -0.0190  0.0577 -0.3370
20033W        W36167   6.138   5.072  15.149  0.1676  0.4131  0.4781
20034W        W36168   3.186   5.422  10.433  0.2805 -0.2962  0.0604
20035W        W36169  17.622  16.029  12.893  0.1428 -0.1816  0.3252
20036W        W36170  14.363   1.349   4.668  0.0012  0.3571 -0.0029
20037W        W36171  12.409   9.841  13.443 -0.1630  0.2782  0.0543
20038W        W36172   3.983   0.590   2.239 -0.0167  0.0357 -0.1194
20039W        W36173   6.173  17.437  11.969 -0.1593  0.0449 -0.0403
20040W        W36174   0.738  16.483  12.749  0.1054 -0.0649 -0.0949
20041W        W36175  10.128   6.620  10.869  0.1516  0.0236 -0.2280
20042W        W36176   0.645   0.007  12.987 -0.1500 -0.0077  0.0426
20043W        W36177  13.429   0.692  11.476 -0.0894  0.0398 -0.2785
20044W        W36178  16.026   3.332  14.107 -0.0228 -0.2488  0.1485
20045W        W36179   9.024   1.460  12.559  0.0911  0.4537  0.1056
20046W        W36180  10.002  15.020  10.702  0.1205  0.3893 -0.2211
20047W        W36181   4.504  13.520   5.125  0.2545 -0.1830  0.0273
20048W        W36182  11.116  11.065   1.890  0.0496  0.2281  0.1674
20049W        W36183  10.217   6.562   0.299 -0.1164 -0.0155 -0.3429
20050W        W36184  16.760  14.589  13.240 -0.2860 -0.3938 -0.0590
20051W        W36185   3.115  17.465   2.136 -0.1302  0.1890  0.1536
20052W        W36186  11.337   9.225   1.321 -0.1081 -0.2305 -0.0177
20053W        W36187   0.923   8.834  11.233  0.2380 -0.1406 -0.2644
20054W        W36188   2.374  17.988  13.831  0.1326  0.0594 -0.0572
20055W        W36189   1.017   8.480  13.939  0.1855 -0.2270 -0.3340
20056W        W36190   5.443  18.113  13.365  0.1251  0.3473 -0.1629
20057W        W36191  14.083   0.178   2.754 -0.1526 -0.3596  0.1184
20058W        W36192   4.226  14.056  12.875  0.1557 -0.1225  0.2270
20059W        W36193   3.994  10.865   1.505  0.2600  0.1513  0.1476
20060W        W36194  13.946   8.550   3.435  0.1820 -0.0046 -0.1754
20061W        W36195   4.258  18.461  12.117 -0.2223  0.2585 -0.2610
20062W        W36196  12.017  18.540  14.042 -0.0450 -0.3331  0.1335
20063W        W36197  12.724  17.156   0.264 -0.2026 -0.3665  0.1804
20064W        W36198   7.029  11.730  12.014  0.0559 -0.0687  0.0278
20065W        W36199   6.318   9.454  12.294  0.2636 -0.0563 -0.2152
20066W        W36200  14.541  16.728  13.272 -0.1204 -0.0171 -0.0330
20067W        W36201   0.130  10.116  12.341  0.1331 -0.2876  0.2683
20068W        W36202  17.723  18.744   9.507  0.0177 -0.0226 -0.0558
20069W        W36203  10.141  11.190  13.497 -0.3280 -0.0760 -0.2560
20070W        W36204   9.453  15.503   2.639 -0.3101 -0.2782  0.0136
20071W        W36205   9.094  16.073  13.196  0.0204 -0.0840  0.2159
20072W        W36206  13.726   2.998   1.417 -0.1494 -0.1544  0.1781
20073W        W36207   9.824  16.890   1.234 -0.1035 -0.2462 -0.2251
20074W        W36208   7.788  14.364   0.580 -0.2631 -0.0805 -0.2192
20075W        W36209  10.520   2.908  13.929  0.1786 -0.2681 -0.0363
20076W        W36210   1.727   7.786  14.258 -0.1004 -0.0413  0.1751
20077W        W36211   6.800   7.576   5.126 -0.3451 -0.3649 -0.0823
20078W        W36212  14.457   4.358   3.179 -0.2436 -0.1519 -0.1466
20079W        W36213   1.522   8.675  12.081  0.1058  0.0252 -0.2209
20080W        W36214  16.811   0.948   2.163 -0.3006  0.1161 -0.1966
20081W        W36215  17.588  18.842  11.583 -0.1230  0.0468  0.0600
20082W        W36216   0.836  10.646   1.767 -0.1379 -0.0994  0.1254
20083W        W36217   6.424  11.525  12.410 -0.1902 -0.0518 -0.3458
20084W        W36218   1.113  12.211   4.295 -0.0068 -0.3154  0.0250
20085W        W36219   8.616   7.121  15.187  0.1292  0.5124 -0.1030
20086W        W36220   1.956   8.739  12.403  0.4274  0.1306  0.1132
20087W        W36221  12.310  15.907  13.199 -0.1873 -0.0614 -0.0303
20088W        W36222   7.100   7.036   2.382  0.0332 -0.1277 -0.3425
20089W        W36223  11.222  19.120   1.394 -0.1041  0.0417 -0.2804
20090W        W36224  12.910  17.231  11.651 -0.2849 -0.0379  0.3577
20091W        W36225   1.129   0.268   4.794 -0.2135  0.1183  0.2008
20092W        W36226   7.829   7.302   3.514  0.1941  0.0093  0.1340
20093W        W36227   3.364  17.279  12.248 -0.0393 -0.2061 -0.2307
20094W        W36228  14.544  14.854  12.082 -0.0150  0.2900 -0.1238
20095W        W36229  17.293  10.989  12.519  0.0928  0.0306  0.2201
20096W        W36230   7.768   7.380   5.125 -0.1070  0.0308  0.3555
20097W        W36231   8.643   0.736   1.560  0.2285  0.1480 -0.3821
20098W        W36232   8.774  18.223   1.893 -0.0139  0.3709  0.0618
20099W        W36233   9.439  17.882   9.752 -0.1121 -0.0264 -0.2044
20100W        W36234   3.005  14.348   4.183  0.0775 -0.0851  0.3612
20101W        W36235  10.575  10.801  11.995 -0.1881 -0.1081  0.2514
20102W        W36236   2.436   1.269   2.716 -0.0322 -0.1818 -0.0438
20103W        W36237  13.603   4.992  13.292 -0.2558  0.0352 -0.2933
20104W        W36238   3.415   2.978   2.922  0.1457  0.2175 -0.2953
20105W        W36239  14.231   2.146   4.259  0.2112  0.0338  0.1502
20106W        W36240  12.942   9.137   3.001 -0.0091  0.0622  0.0651
20107W        W36241  17.258   4.351  12.468 -0.2356 -0.1789 -0.1600
20108W        W36242   3.042  10.802   0.592 -0.2600  0.1904  0.2236
20109W        W36243  11.723   6.721   2.006 -0.0551  0.1465  0.1473
20110W        W36244   5.102  13.345  12.872  0.0398 -0.2001  0.0365
20111W        W36245  15.302   3.569   0.498 -0.3483 -0.2641 -0.1707
20112W        W36246   6.567   5.588  11.682 -0.1179 -0.0706  0.0850
20113W        W36247  15.603  15.706  14.733 -0.0452 -0.4214 -0.5773
20114W        W36248   9.153  17.258  12.728 -0.5556 -0.0834  0.0017
20115W        W36249   6.641   2.133   3.024 -0.1969  0.0803 -0.0088
20116W        W36250   1.116   7.647   0.319  0.0450 -0.1715 -0.1272
20117W        W36251   7.416   2.906  12.666  0.2916  0.3775  0.1501
20118W        W36252  13.510   0.897   4.221  0.1983 -0.0463 -0.2188
20119W        W36253   0.881   9.325  11.432 -0.0958 -0.0856  0.1692
20120W        W36254   7.932  12.365  15.082 -0.4026  0.0509  0.1119
20121W        W36255  14.890  12.419   3.354 -0.0106 -0.3181  0.0999
20122W        W36256   9.987  16.652  11.307 -0.0953 -0.1785 -0.0624
20123W        W36257   8.268  11.775   1.508 -0.0952  0.2821  0.0948
20124W        W36258   9.934  13.904   4.833  0.2335 -0.3532 -0.0481
20125W        W36259  17.596  18.212   4.132  0.1493  0.1483  0.0431
20126W        W36260  16.865   9.003  11.614  0.0565 -0.0085  0.1922
20127W        W36261   4.628  12.575   4.031 -0.2884  0.3304  0.1073
20128W        W36262   5.982   6.522  12.581 -0.2520 -0.2957 -0.0321
20129W        W36263   6.748   8.252   5.221 -0.3114 -0.1374 -0.1332
20130W        W36264   5.228  16.853  14.080  0.0764 -0.0315 -0.0199
20131W        W36265   7.261  18.311  12.434 -0.0812  0.0694  0.1613
20132W        W36266   8.927   0.031  10.368 -0.3629 -0.2424  0.1606
20133W        W36267  18.124  11.389  14.357  0.0117  0.1374  0.2214
20134W        W36268  16.771   8.344  13.623 -0.0331  0.0765  0.1405
20135W        W36269  13.706   2.402  13.821  0.0436  0.4392  0.1489
20136W        W36270  15.213   9.034  12.727 -0.2716 -0.0840  0.1359
20137W        W36271  14.310   8.294  13.421  0.4863  0.2627  0.0525
20138W        W36272   1.729   1.370  11.779 -0.2317 -0.0184 -0.0920
20139W        W36273   4.485   6.365  12.639  0.1929  0.2995  0.2125
20140W        W36274   9.799  12.631   5.247  0.2059 -0.0979 -0.0570
20141W        W36275   2.831   9.771   0.747  0.0377 -0.0572 -0.4289
20142W        W36276   9.363  18.276   3.240  0.0220 -0.5750  0.0756
20143W        W36277  13.177  12.440  13.003  0.1477  0.2888  0.1250
20144W        W36278   1.573  10.043   3.757 -0.1170 -0.1450 -0.2838
20145W        W36279  11.021   0.757  14.003  0.2367 -0.1275  0.3057
20146W        W36280   4.548   2.202   3.998  0.2452  0.0516  0.0878
20147W        W36281  15.307  16.320   4.327  0.4366  0.3239 -0.1284
20148W        W36282  16.557   4.122   5.264  0.0539  0.2255 -0.1076
20149W        W36283   6.407   9.274   5.409  0.0530  0.0080  0.2445
20150W        W36284   8.707   9.242  13.327 -0.0096 -0.0654 -0.1671
20151W        W36285   0.314   9.534   3.054 -0.2281 -0.1329 -0.2066
20152W        W36286   4.034   7.491  14.947 -0.1321  0.1242  0.0746
20153W        W36287  11.441  16.727  11.176  0.1149  0.3392 -0.1571
20154W        W36288  10.278  11.308   0.942  0.3353  0.0990  0.2676
20155W        W36289   9.353  15.837  14.437 -0.1783 -0.1024 -0.1476
20156W        W36290   7.987   1.037   0.888 -0.0617 -0.1458  0.1125
20157W        W36291  14.308   4.937  10.459 -0.2214  0.0761 -0.0763
20158W        W36292   4.954   9.343   3.176  0.0383 -0.1368 -0.0382
20159W        W36293   6.923  17.225   4.687  0.2084 -0.1451  0.1270
20160W        W36294  15.545   5.988   2.224  0.3252  0.2922 -0.3401
20161W        W36295   9.710   8.389   3.092  0.1680  0.2711  0.1400
20162W        W36296   8.127  18.701  13.024  0.0263  0.2178  0.6080
20163W        W36297   2.502   3.743   3.788  0.2949  0.3392 -0.0260
20164W        W36298   4.755   4.407   1.571  0.1562  0.0462 -0.2230
20165W        W36299   5.157  18.724  10.730 -0.2605 -0.3518 -0.1555
20166W        W36300   1.408  16.882  13.999 -0.2227 -0.1088 -0.0092
20167W        W36301   0.035   9.567   9.780  0.2300  0.0795 -0.0496
20168W        W36302  15.904  17.633  14.912  0.0037  0.1388  0.4667
20169W        W36303   5.194   3.072  14.145  0.0415 -0.1523 -0.2367
20170W        W36304   4.879   3.574   1.310 -0.1136 -0.2545 -0.0127
20171W        W36305  10.670   4.643  14.040  0.2562 -0.1972 -0.3076
20172W        W36306   4.364  14.454  13.445  0.1452  0.0089  0.0244
20173W        W36307  12.152  16.159  12.217  0.0312  0.1015 -0.0358
20174W        W36308  10.052  11.966   3.829 -0.0961 -0.1100 -0.0468
20175W        W36309   6.255   1.101   2.300 -0.1152 -0.1061  0.3599
20176W        W36310   4.546  16.455  14.430 -0.0717 -0.1067  0.1593
20177W        W36311  13.271  19.035   9.904  0.0321 -0.2958  0.0173
20178W        W36312  15.435  16.857   4.358 -0.0118 -0.0154 -0.0394
20179W        W36313  12.925   0.539  11.578 -0.2802 -0.1064 -0.0256
20180W        W36314  14.337  16.442  10.655 -0.0143  0.1585  0.0833
20181W        W36315  11.256  13.531  12.399 -0.1417  0.0420  0.3326
20182W        W36316  14.442  15.170   2.020  0.0925  0.1572  0.0771
20183W        W36317   2.400  12.951   4.454 -0.0131 -0.1478 -0.2847
20184W        W36318   4.911   4.752   0.621  0.0106 -0.1511 -0.0598
20185W        W36319   6.601  11.887   2.579  0.0347 -0.3510  0.0672
20186W        W36320   1.178   3.065   1.800 -0.0342  0.0289 -0.0283
20187W        W36321  10.155  10.036   1.509  0.0775  0.0104  0.2970
20188W        W36322   3.646  16.266  11.609  0.2577 -0.0621  0.0500
20189W        W36323  17.830   7.586  11.166 -0.4711 -0.2380 -0.1829
20190W        W36324   5.718  11.348   5.093  0.2228  0.2897 -0.1379
20191W        W36325   0.254   7.809   3.654  0.0987 -0.0821  0.0781
20192W        W36326   4.030   8.677   1.255  0.3947  0.2640 -0.1332
20193W        W36327  15.283   8.913  13.273 -0.3077 -0.0769  0.3317
20194W        W36328  18.199  10.993   4.958  0.1004 -0.0289 -0.0977
20195W        W36329   7.204  10.482  13.239 -0.0516  0.0972 -0.0010
20196W        W36330   2.728  14.504  11.727  0.0379 -0.0918 -0.0435
20197W        W36331  14.002   1.417   2.367  0.2195  0.0157  0.1632
20198W        W36332  10.702  14.956   1.863 -0.2644 -0.1898  0.0570
20199W        W36333   0.728   4.184   0.184 -0.1611 -0.0908  0.0640
20200W        W36334  17.177  10.182   1.338 -0.2608 -0.0756 -0.1925
20201W        W36335   2.991  12.187   2.969  0.3502  0.0959  0.0361
20202W        W36336   6.695   7.488  11.431 -0.1605  0.1860  0.1858
20203W        W36337   8.973   2.269  12.008  0.0429 -0.0535  0.0745
20204W        W36338  15.852   0.370  11.103  0.0404  0.1392 -0.0896
20205W        W36339  18.623  16.171  11.390 -0.2431 -0.1131  0.1103
20206W        W36340   2.121   9.981   1.830  0.0208 -0.1754  0.0762
20207W        W36341   8.947   7.536   5.875  0.1312  0.1347 -0.0723
20208W        W36342  16.692   8.092  14.490  0.1058  0.0392 -0.0325
20209W        W36343   6.526   2.273  10.201  0.0218 -0.0180 -0.0269
20210W        W36344  17.565  18.438   3.641  0.7439  0.0607  0.0324
20211W        W36345  17.613   5.649  12.723  0.3017 -0.1039  0.1758
20212W        W36346   8.675  16.326   0.773  0.2030 -0.0097  0.1414
20213W        W36347  16.648  14.277  11.842 -0.2248  0.1865  0.1475
20214W        W36348  15.417   8.278   1.848  0.0583  0.3910 -0.3421
20215W        W36349  17.729  18.286  12.223  0.0789  0.1072  0.0933
20216W        W36350   4.256  13.180   2.397 -0.1161 -0.2233 -0.1589
20217W        W36351  15.299   6.295  10.834  0.1787 -0.0596  0.3106
20218W        W36352  13.201   9.933   1.778  0.0127  0.3965 -0.1415
20219W        W36353  12.613   4.362   4.561 -0.0376  0.3375  0.1591
20220W        W36354  13.638  13.062  10.471  0.2363  0.3156 -0.0580
20221W        W36355   3.044  16.867  11.871 -0.3172  0.2271 -0.0063
20222W        W36356  11.530  16.271   1.168 -0.1165 -0.1708 -0.1834
20223W        W36357  11.228   8.544   5.101  0.0605 -0.1238 -0.0212
20224W        W36358   4.981  17.220   2.608  0.1727  0.1946 -0.0543
20225W        W36359  11.530   0.825   2.412 -0.1163 -0.2857 -0.2654
20226W        W36360   8.926  14.298  14.008  0.0548 -0.3393  0.1961
20227W        W36361   7.309   5.967  12.500  0.0390 -0.0560  0.3056
20228W        W36362   9.868   1.851   4.774  0.2649  0.0270 -0.1732
20229W        W36363   3.543   3.940  12.228 -0.0834 -0.1424  0.1164
20230W        W36364  18.513   3.658  12.834 -0.1432 -0.1250  0.0266
20231W        W36365   6.992  14.959   3.884  0.1522  0.0672  0.0870
20232W        W36366   7.381   6.649   2.503  0.0308  0.0923  0.0113
20233W        W36367   9.269   2.897   2.125 -0.2277  0.0920  0.0537
20234W        W36368  17.294   7.065  11.993  0.4228 -0.0191  0.2410
20235W        W36369   8.103  10.528  11.127  0.2390 -0.0293 -0.0180
20236W        W36370   2.071   7.369   2.661  0.1277  0.1957 -0.0186
20237W        W36371   1.433   5.567  10.692  0.1901 -0.1046 -0.1255
20238W        W36372  15.451   4.676  11.338 -0.1077 -0.0781  0.0354
20239W        W36373  15.608   7.348  14.934  0.2525 -0.1328 -0.0027
20240W        W36374  16.470  13.744   1.295  0.3492  0.1594 -0.1398
20241W        W36375   9.496  10.404   0.361 -0.1638  0.0120  0.1901
20242W        W36376   0.177   9.175  13.852 -0.1731  0.0425  0.0435
20243W        W36377   3.340   6.306  14.436  0.1993  0.3053  0.0573
20244W        W36378   0.058  15.786  14.537  0.2666  0.0380 -0.0981
20245W        W36379  13.167  11.581  13.451 -0.3012 -0.1143  0.1809
20246W        W36380   1.294   8.210  11.950 -0.3926  0.0307 -0.0016
20247W        W36381   2.283  16.769   3.316 -0.0687  0.0367 -0.1580
20248W        W36382   9.129   2.533  12.482 -0.2239  0.0677  0.0127
20249W        W36383  17.338  12.165   0.798  0.2657  0.0071  0.0522
20250W        W36384   3.953  17.742  14.109  0.1906 -0.2776  0.0628
20251W        W36385   3.934   3.408  12.868  0.0944  0.0094  0.2244
20252W        W36386   7.672   7.805   1.891 -0.1790  0.4360 -0.0513
20253W        W36387  13.033  12.038  10.748  0.1977  0.1443 -0.2508
20254W        W36388  14.667   9.922  15.084  0.0541 -0.0272  0.3917
20255W        W36389  18.644   7.849   4.775 -0.0645  0.3595  0.1033
20256W        W36390   1.907  11.876  14.651  0.1480 -0.3321  0.0666
20257W        W36391   2.214   3.805  11.134 -0.0014 -0.3607 -0.2086
20258W        W36392   1.197   6.619  11.833  0.2688  0.1429  0.3761
20259W        W36393   2.850  14.883  12.101  0.1984  0.2458 -0.1921
20260W        W36394  13.404   1.966  13.785 -0.1167  0.3276  0.1419
20261W        W36395  11.664  10.563   4.348  0.1957 -0.2422  0.0296
20262W        W36396   8.991   9.434  12.486  0.2441  0.2006 -0.0364
20263W        W36397  10.690   9.048  13.751 -0.1256  0.0129  0.0467
20264W        W36398  15.477   0.719   2.280 -0.0486  0.0881 -0.0494
20265W        W36399  18.015  14.048   1.209 -0.0086  0.1707 -0.0640
20266W        W36400   5.862  12.040  10.498  0.1030 -0.0777  0.0067
20267W        W36401  12.694  10.534   5.240  0.0358 -0.2421 -0.0631
20268W        W36402   0.643   1.074  13.859  0.0943 -0.1421 -0.0603
20269W        W36403  14.628   6.918   4.878  0.0104  0.0319 -0.1276
20270W        W36404   0.962  13.462   2.809  0.0470  0.3911 -0.0158
20271W        W36405   6.582  16.792   9.755 -0.3358 -0.0897  0.1032
20272W        W36406  10.962  12.227  11.747  0.2965 -0.5370 -0.2266
20273W        W36407   8.018   9.127  12.186 -0.0550  0.2234 -0.0244
20274W        W36408   4.072   7.656  12.296 -0.2908  0.1553 -0.0743
20275W        W36409   2.359   0.201   5.996  0.1630  0.0475  0.2767
20276W        W36410  12.128  15.166   0.288  0.0174 -0.2025 -0.3858
20277W        W36411  13.947   9.707  10.660 -0.1487  0.4891  0.0308
20278W        W36412  18.576   7.674  11.167  0.1177  0.0046  0.0778
20279W        W36413  14.062  11.789   3.173  0.2421 -0.1337 -0.0096
20280W        W36414  17.008   7.933  11.986  0.2380 -0.0344  0.2738
20281W        W36415   2.944  16.658  13.666  0.1713 -0.0620  0.1075
20282W        W36416  11.231   8.775   0.353  0.2874  0.2416  0.1367
20283W        W36417  17.112   5.290   4.856 -0.0597  0.2346 -0.3225
20284W        W36418   2.889  18.860   1.604  0.2337  0.0860  0.1431
20285W        W36419   5.286   4.231  13.899  0.0732 -0.1068  0.0108
20286W        W36420   1.687  10.024   2.122 -0.0349  0.2132 -0.3449
20287W        W36421   2.297   7.534   1.376 -0.3961  0.2404  0.1082
20288W        W36422  14.262  18.015  12.466  0.0650 -0.1156  0.2262
20289W        W36423   0.456  10.358   5.382 -0.1648 -0.1743 -0.0965
20290W        W36424   7.533  12.077   0.336  0.0815  0.2463 -0.0452
20291W        W36425   9.037   4.149   5.624 -0.2584 -0.0072 -0.1052
20292W        W36426  14.403   4.663  11.519 -0.2119 -0.0892  0.0569
20293W        W36427  13.673  13.702  10.349 -0.0979 -0.0522  0.0922
20294W        W36428   7.212  12.798  15.129 -0.3063  0.0263 -0.2159
20295W        W36429  15.639   1.433   5.481  0.0283 -0.2917 -0.0232
20296W        W36430   9.493   3.222  10.204  0.0085 -0.2058 -0.2585
20297W        W36431   8.948   7.145   5.198 -0.3902  0.2019 -0.1271
20298W        W36432   8.316  16.381   4.747  0.1039 -0.0431  0.2078
20299W        W36433  10.115   4.473   3.415 -0.3145 -0.0245  0.3340
20300W        W36434   4.597   1.872  10.492 -0.0467  0.2345 -0.2902
20301W        W36435   4.072   1.962  12.838 -0.3909 -0.0403 -0.2272
20302W        W36436   6.433  14.251  13.229 -0.1608  0.2220  0.1447
20303W        W36437  16.564   4.460  12.061 -0.0307 -0.2505  0.3163
20304W        W36438   1.393   5.048   0.394 -0.0770 -0.0140  0.2418
20305W        W36439   8.681  18.896  12.309  0.1486  0.3876 -0.3841
20306W        W36440  12.808  10.697  11.524 -0.0557 -0.1967  0.2121
20307W        W36441  16.901  10.237  11.866  0.2752 -0.3433  0.3174
20308W        W36442   0.983   5.389  14.792  0.1074 -0.2196 -0.0312
20309W        W36443  18.890   8.028  10.966  0.0603  0.1683  0.1418
20310W        W36444   8.295   8.733   2.970  0.0302 -0.0703 -0.2886
20311W        W36445  13.126   9.150   1.631  0.0435  0.1896  0.3270
20312W        W36446  11.755  10.746  12.479 -0.0367 -0.1252  0.0080
20313W        W36447  18.848  18.235   1.300 -0.2354 -0.3809  0.0398
20314W        W36448  11.166   1.512  10.749 -0.2454 -0.2251 -0.1405
20315W        W36449   5.670   1.864  13.453  0.0685 -0.0447  0.1236
20316W        W36450  17.484  11.555  10.830  0.0088 -0.0353 -0.0511
20317W        W36451   6.996  18.890   4.687  0.0763 -0.2358 -0.2604
20318W        W36452  11.619   1.477  14.309 -0.1140  0.2591  0.2386
20319W        W36453   0.335  14.884   4.089 -0.0839 -0.0827  0.2299
20320W        W36454   0.193  10.418   0.536  0.0934 -0.0082  0.1252
20321W        W36455   7.293  12.254  15.131 -0.1712  0.2426  0.2398
20322W        W36456   0.128   4.648   2.465 -0.1469  0.1524  0.0855
20323W        W36457   6.948  18.711  12.386 -0.0861 -0.0842  0.0055
20324W        W36458   4.666  14.818  11.167 -0.1632 -0.1351 -0.0596
20325W        W36459   1.404  17.714  13.920 -0.0996 -0.0489  0.1152
20326W        W36460   4.951   6.446  11.556 -0.0867 -0.1781  0.0319
20327W        W36461   5.376   3.772   4.678 -0.1426  0.0679  0.1407
20328W        W36462   0.566  13.396  14.946 -0.3935  0.4321  0.2404
20329W        W36463   0.013  16.324   2.346  0.0157  0.0687 -0.3533
20330W        W36464  14.972   8.868  12.254  0.0550 -0.4158  0.2094
20331W        W36465   7.951  10.627   1.423  0.0391 -0.0299  0.2581
20332W        W36466  10.655  14.210  11.189  0.1462  0.4164 -0.1394
20333W        W36467   9.758   1.451  11.680 -0.0354  0.2029  0.0861
20334W        W36468   5.241  10.669  11.593  0.1951  0.0245 -0.0250
20335W        W36469   8.271  11.506  13.245 -0.4001  0.2316 -0.2933
20336W        W36470   6.774   6.669   3.823 -0.3153 -0.0537  0.0869
20337W        W36471   5.504  14.906   0.656  0.3201  0.0616  0.0695
20338W        W36472   3.622   9.756   3.783  0.1345 -0.1684  0.1611
20339W        W36473   8.090   1.123  10.003  0.2137  0.2130  0.1289
20340W        W36474   4.350  13.627  14.880 -0.0740 -0.0483 -0.1110
20341W        W36475  13.494  16.841  12.398  0.0047 -0.0029 -0.2007
20342W        W36476   3.220   1.174   0.738  0.0416  0.0301 -0.0969
20343W        W36477   0.228   5.695   2.947 -0.1909 -0.1057 -0.0399
20344W        W36478   0.838   2.116  13.736 -0.0963  0.0709  0.2160
20345W        W36479   9.350   4.957   0.401 -0.3463  0.1386 -0.0463
20346W        W36480  15.028   3.402  11.411 -0.0149  0.2133 -0.2225
20347W        W36481   9.421   3.065  11.804  0.0497 -0.2257  0.0103
20348W        W36482   7.803  15.453  13.794 -0.0589  0.1218 -0.0584
20349W        W36483   5.444  14.258  15.113 -0.1558 -0.0539 -0.3201
20350W        W36484   6.204   1.522   2.916  0.0023  0.1086 -0.3446
20351W        W36485   0.950  17.928  11.777 -0.1926  0.1175  0.2780
20352W        W36486  18.452  12.924   3.475  0.0771  0.3405  0.3801
20353W        W36487   4.223  16.124   1.689  0.1701 -0.2543  0.0411
20354W        W36488  15.351   9.592   1.670  0.1027 -0.0926 -0.2364
20355W        W36489  10.860   2.975   0.184 -0.0871  0.2027 -0.0624
20356W        W36490  17.345   2.740   0.686 -0.2276  0.3127  0.3598
20357W        W36491  10.606   7.474   3.240 -0.1366  0.2310 -0.5255
20358W        W36492  16.423   7.315  11.710 -0.0213 -0.0287 -0.1067
20359W        W36493   4.953  14.191   2.720 -0.0451 -0.0783 -0.0073
20360W        W36494   1.803   6.390  15.106 -0.1555  0.7389 -0.1738
20361W        W36495  10.654   4.479  11.197 -0.0663  0.0039 -0.2274
20362W        W36496  13.644   7.185  12.433 -0.1051  0.0270  0.0685
20363W        W36497   8.125  14.837  13.683 -0.1648 -0.2178 -0.1384
20364W        W36498   5.630   8.865  10.813  0.0802  0.0285  0.0306
20365W        W36499  15.901   2.667  12.349 -0.1122 -0.0461  0.0027
20366W        W36500  10.027  18.423  10.684  0.2029 -0.0552 -0.1747
20367W        W36501   6.032  16.448   4.709 -0.1041 -0.1296 -0.2517
20368W        W36502  15.335  14.288  14.664  0.0038 -0.3954 -0.2255
20369W        W36503   0.482   2.558   4.272  0.0049 -0.0095  0.2919
20370W        W36504   4.803  17.730  11.180  0.0425 -0.4202 -0.0959
20371W        W36505  15.127  15.062   1.392  0.2565 -0.3110 -0.0501
20372W        W36506   5.038  14.112  10.584  0.0700  0.1971  0.3088
20373W        W36507   5.025   2.190   0.607  0.1161  0.0350 -0.0634
20374W        W36508  13.176  16.303   3.614 -0.2621  0.1488 -0.1299
20375W        W36509  14.153   5.339  10.774 -0.1945  0.0196 -0.0555
20376W        W36510  17.790   2.523   4.600 -0.1207  0.0089 -0.0543
20377W        W36511  12.927  15.148   2.379 -0.3723 -0.1270  0.0851
20378W        W36512   1.639  14.688   1.196  0.1815 -0.3417 -0.3851
20379W        W36513  12.789   2.944   0.723 -0.1486  0.6153  0.1197
20380W        W36514   2.527  16.779  11.117 -0.1437  0.0678 -0.1023
20381W        W36515   1.404  12.803  13.334  0.0265  0.1257  0.0352
20382W        W36516   2.028  13.352  11.243  0.1050  0.0761  0.1695
20383W        W36517  16.725   5.625  11.005 -0.2219  0.2380  0.0665
20384W        W36518  18.023   2.060  11.422 -0.0298  0.0258 -0.2358
20385W        W36519   4.591   3.714   2.543 -0.0660 -0.0500 -0.2193
20386W        W36520   2.336  14.441   3.005  0.2102  0.0147 -0.0981
20387W        W36521  13.618   0.420   2.011  0.0740  0.0709 -0.3121
20388W        W36522  12.334  18.673  14.967 -0.0310 -0.1892 -0.0257
20389W        W36523   8.035  14.648   5.545  0.1558 -0.2554  0.0848
20390W        W36524   9.912  13.746  11.879  0.0303 -0.0329 -0.1934
20391W        W36525  12.837   7.799  14.282 -0.0589  0.1971 -0.0163
20392W        W36526  14.121  17.582   3.082  0.0340  0.1506  0.1205
20393W        W36527  12.629   8.281   2.057  0.1119 -0.1920  0.1551
20394W        W36528   1.960  16.269  11.799 -0.1608  0.1629 -0.1089
20395W        W36529  15.178   6.123   4.064  0.0464 -0.3476 -0.1250
20396W        W36530  19.105  15.659   4.806 -0.0821 -0.1169  0.1363
20397W        W36531  16.597   4.917  15.095  0.0487 -0.0256 -0.0379
20398W        W36532  11.596   8.345  12.691 -0.1450 -0.2409  0.0630
20399W        W36533   6.162  15.260  11.614  0.1072  0.2239 -0.0229
20400W        W36534  14.585   7.089  11.573 -0.0275  0.1740  0.3216
20401W        W36535   0.311   8.013   4.055 -0.0728 -0.0217 -0.2291
20402W        W36536  15.483   9.725   3.294 -0.0355  0.0760  0.1993
20403W        W36537  15.050  14.683   0.557 -0.0891  0.0452 -0.0600
20404W        W36538   0.091  16.217  11.978  0.0833 -0.1006 -0.1094
20405W        W36539  10.354  15.119   1.457  0.0833  0.2342  0.1681
20406W        W36540   5.610  13.417  10.997  0.2952  0.1056 -0.0009
20407W        W36541   5.536  13.786  13.410  0.3053 -0.1281 -0.0227
20408W        W36542   7.654   4.761   2.949  0.0322  0.1779 -0.3407
20409W        W36543   5.746  16.090   4.911 -0.1130  0.0092 -0.3343
20410W        W36544   8.451   4.928  13.243 -0.0965  0.1110  0.0922
20411W        W36545   6.012   6.689  11.421  0.1896 -0.1270  0.0463
20412W        W36546   9.820   4.971  11.873 -0.0413 -0.0991  0.0295
20413W        W36547   8.069  12.200   9.658  0.0714  0.0713  0.0456
20414W        W36548   5.349   2.200  14.611 -0.0754  0.1223 -0.1475
20415W        W36549   0.533  13.449  12.340 -0.1293  0.0230  0.0238
20416W        W36550  10.725   0.720  13.492  0.1004 -0.0508  0.1498
20417W        W36551  13.887   7.999   4.116  0.0162 -0.1691  0.0565
20418W        W36552  13.491  17.902  13.643  0.2749 -0.0681 -0.1472
20419W        W36553   4.194  16.059   5.285 -0.0156  0.2014  0.1259
20420W        W36554  11.827   8.418   6.009 -0.4206 -0.2090  0.1469
20421W        W36555   6.234  18.139  12.609  0.5273  0.1062  0.1492
20422W        W36556   0.349  11.340   3.192 -0.2762 -0.0818  0.1446
20423W        W36557   5.807  18.110  12.961  0.1199  0.2125  0.1653
20424W        W36558   2.162   5.901  14.959  0.1306 -0.1003  0.0506
20425W        W36559  16.384  15.470   3.061 -0.1535  0.0807  0.2207
20426W        W36560   5.810   4.411   3.130  0.2318  0.1464  0.2912
20427W        W36561  19.054  18.686  14.309 -0.2279 -0.0820 -0.2210
20428W        W36562  18.983  13.518   0.475  0.1557 -0.2692 -0.2462
20429W        W36563   4.787   5.089  11.477 -0.1262 -0.2238  0.1315
20430W        W36564   8.663   0.645   0.307  0.2768  0.0461  0.2804
20431W        W36565   4.775  11.662   0.581 -0.2223  0.2113  0.1684
20432W        W36566  10.146  13.373   5.498  0.2346  0.1349 -0.0322
20433W        W36567   7.543  12.941  13.286 -0.1366 -0.1005  0.1016
20434W        W36568  10.889  18.719  14.445 -0.3077 -0.0192  0.0247
20435W        W36569  18.840  13.017   3.033  0.2766  0.2926 -0.0972
20436W        W36570  12.562  13.956  14.883 -0.2782 -0.0282 -0.0072
20437W        W36571   9.027   9.012   3.243 -0.1526 -0.0433 -0.1164
20438W        W36572   5.573   6.705  11.151 -0.1789  0.3340 -0.0037
20439W        W36573   8.979  17.749   2.045  0.3540  0.0473  0.1092
20440W        W36574  16.728   8.910   1.748  0.0613  0.0386 -0.1786
20441W        W36575   5.027   8.343   4.894 -0.2370 -0.1384  0.0018
20442W        W36576   8.897  16.643   9.500  0.1040  0.4601 -0.1237
20443W        W36577  10.720  12.640  10.976  0.1076 -0.2540 -0.1369
20444W        W36578  18.098  18.553  11.918  0.0417  0.3487  0.0563
20445W        W36579  15.526   9.006  12.153  0.2112  0.1185 -0.1474
20446W        W36580   6.120   0.358   5.104 -0.0173  0.1656  0.2176
20447W        W36581  11.297   6.888   2.907 -0.1385  0.1361 -0.1881
20448W        W36582  11.762   5.981   3.640  0.0367  0.0836 -0.1101
20449W        W36583  19.114   3.727   0.660  0.0932 -0.1591 -0.0304
20450W        W36584   5.460  15.222   5.943  0.0209 -0.2216 -0.0081
20451W        W36585  15.906  12.610  13.471 -0.2202  0.0244 -0.0206
20452W        W36586   2.616   5.777  14.700 -0.1407  0.0683  0.2394
20453W        W36587   0.618   3.733  13.119  0.2050 -0.1345 -0.0804
20454W        W36588   9.089  18.715  10.801 -0.0556  0.0291  0.1686
20455W        W36589  13.784   5.664   3.908  0.0051  0.1164 -0.1649
20456W        W36590   4.208   7.005  12.621 -0.0440  0.3963 -0.1885
20457W        W36591  15.703  12.657  10.726  0.0001  0.0547  0.1674
20458W        W36592  16.660   3.996  11.819 -0.2198  0.3051  0.0372
20459W        W36593   0.193   5.182  12.209  0.1103  0.3185 -0.2688
20460W        W36594  10.528   3.950   0.772  0.2739  0.0104  0.2181
20461W        W36595  10.521   7.480  14.544 -0.1857 -0.0514  0.1631
20462W        W36596  17.306  14.054   2.949  0.1911  0.1514  0.0967
20463W        W36597  12.951   7.535   4.733 -0.2721  0.3064 -0.5214
20464W        W36598   5.067   5.682   3.278  0.0548 -0.1985  0.3272
20465W        W36599  10.008  12.188   3.334  0.4392 -0.3352  0.0153
20466W        W36600   3.729   6.915  13.328 -0.1439 -0.1914  0.2542
20467W        W36601  15.582   2.722   1.802 -0.1081  0.1935 -0.0454
20468W        W36602   1.521  10.614  12.983 -0.1022 -0.1944  0.2963
20469W        W36603   6.378  13.093   5.797  0.1018 -0.0632  0.1395
20470W        W36604  15.558   3.502  12.606 -0.4169  0.2030  0.1070
20471W        W36605   7.209  13.327  12.643  0.0150 -0.1389 -0.0124
20472W        W36606  10.495   0.793  14.854  0.1461 -0.0744 -0.0947
20473W        W36607   7.721  18.737   3.101 -0.3874  0.5707  0.2863
20474W        W36608   8.826  14.525   3.663 -0.2969  0.2567  0.1165
20475W        W36609  12.951  16.345  13.997  0.0286 -0.2274  0.0225
20476W        W36610  17.843  11.812   0.472 -0.2053 -0.0823 -0.4024
20477W        W36611   1.278  10.013   2.539 -0.2425 -0.2283 -0.2420
20478W        W36612  12.688   8.205  13.524  0.3031  0.0715 -0.0788
20479W        W36613  15.144   1.390  11.437 -0.1131  0.1686  0.2177
20480W        W36614   5.901  11.565   0.812  0.1450 -0.1938 -0.0392
20481W        W36615  18.403  15.516  11.424 -0.1151 -0.2790 -0.0604
20482W        W36616  16.837  15.962  12.043 -0.0625  0.4091 -0.2678
20483W        W36617   5.028   8.673  12.898  0.0835 -0.2709 -0.2492
20484W        W36618   5.044  15.064   1.477  0.0694 -0.2203 -0.1408
20485W        W36619   0.391   4.630   4.570  0.2517 -0.3921  0.2415
20486W        W36620  13.279   0.457  11.021 -0.0868  0.1174  0.0690
20487W        W36621  11.240  13.367  11.924 -0.0696 -0.2813 -0.1833
20488W        W36622   5.779   3.489   1.700 -0.1432 -0.4057  0.0381
20489W        W36623   4.297   6.067   3.125  0.1214  0.0108 -0.3514
20490W        W36624   0.313  17.151  13.616  0.0791  0.2140  0.1121
20491W        W36625   7.986   6.532  12.719  0.1746 -0.1043 -0.0610
20492W        W36626  14.420   8.398   1.597 -0.0922  0.2215 -0.1542
20493W        W36627   8.290  16.823   3.721  0.3308  0.0868 -0.0967
20494W        W36628  11.374  14.335   3.355 -0.3169 -0.0756 -0.0272
20495W        W36629   9.630   3.948  14.031 -0.1631  0.0770  0.0562
20496W        W36630  17.493  14.663  10.320 -0.3426 -0.0248  0.2488
20497W        W36631   1.256  14.633  10.366 -0.0997  0.0596 -0.1199
20498W        W36632   1.295   7.238   2.217 -0.0597 -0.2453  0.0919
20499W        W36633   8.099  11.632   4.733 -0.1684  0.1179 -0.1890
20500W        W36634   9.903   2.987   3.671  0.0042  0.1072 -0.1125
20501W        W36635  19.072   2.590  10.482 -0.1145 -0.0612 -0.1119
20502W        W36636   0.661  18.171   1.633  0.1883  0.2655  0.0201
20503W        W36637   7.672   0.791   0.059  0.1318  0.1306  0.3066
20504W        W36638   2.349  18.021  10.767 -0.0214 -0.1754 -0.2612
20505W        W36639   7.421  16.389   2.812  0.0128  0.0893 -0.0553
20506W        W36640   8.790  18.636   3.817 -0.0918 -0.2516 -0.1437
20507W        W36641   6.839   7.263  10.578 -0.0083 -0.1772  0.2502
20508W        W36642  16.391   0.862  11.735 -0.3692 -0.1584  0.1515
20509W        W36643  10.298  17.062   2.063 -0.0168 -0.1346 -0.2581
20510W        W36644  12.825  12.465  14.425 -0.4491 -0.3278  0.2729
20511W        W36645  19.043  16.613   3.166  0.2216 -0.2409 -0.1766
20512W        W36646  16.556  13.385  12.780  0.0330  0.0305 -0.0191
20513W        W36647  17.780   4.430   1.174 -0.1190  0.0803 -0.0808
20514W        W36648  17.358   8.373  10.603 -0.1441  0.2725  0.0342
20515W        W36649   8.365  14.457  13.492  0.0392  0.0582  0.0658
20516W        W36650  14.719  18.256  12.149 -0.1052  0.0302 -0.1935
20517W        W36651   2.559  15.496   0.434  0.2115  0.0545  0.3347
20518W        W36652  11.458   5.505  11.869 -0.0186 -0.0639 -0.0819
20519W        W36653   0.192   5.430   1.084  0.2609 -0.1723 -0.0430
20520W        W36654   6.106   0.394  11.485  0.3794 -0.0632 -0.0686
20521W        W36655   8.662   2.390  14.968  0.0826 -0.4273  0.0173
20522W        W36656   8.445  10.532  13.559  0.0366  0.1265 -0.0291
20523W        W36657  13.170   7.564  11.552 -0.3067 -0.1755  0.3124
20524W        W36658  12.906   6.907   2.187  0.0475  0.0694  0.0495
20525W        W36659   3.909  12.126   4.891  0.2155  0.1456  0.1009
20526W        W36660   3.623   0.998  14.118 -0.2484  0.1313 -0.0241
20527W        W36661  17.383  11.556  12.752  0.1949 -0.0963  0.1075
20528W        W36662  10.596  17.613  11.416  0.2065  0.2675 -0.1954
20529W        W36663  10.350   4.694   3.830 -0.1003 -0.3947  0.1067
20530W        W36664  19.013   1.054   3.358  0.0139 -0.2260 -0.1486
20531W        W36665  11.243  16.191  12.296  0.1158  0.2060 -0.1720
20532W        W36666   3.345  11.604   1.176 -0.0425 -0.0369 -0.2117
20533W        W36667   9.145   9.589   3.141  0.1152  0.2680  0.2137
20534W        W36668   0.542   3.497  10.150 -0.0500  0.3437 -0.1822
20535W        W36669  13.991  18.032   5.029  0.0487 -0.0477  0.2040
20536W        W36670  16.884   2.345   4.977  0.0894 -0.0321 -0.2183
20537W        W36671   5.618  15.667   3.723 -0.0196 -0.1746  0.0126
20538W        W36672   0.587  18.150   0.308 -0.0311  0.2496 -0.0844
20539W        W36673  15.481  16.569  12.990  0.1454 -0.1981  0.0380
20540W        W36674   0.586   0.841  13.427 -0.3833 -0.3975  0.5783
20541W        W36675   3.779  17.873   1.054 -0.1456  0.2464 -0.0685
20542W        W36676   4.195  11.123  10.189 -0.2654  0.3189 -0.1248
20543W        W36677  12.361  11.773   3.572  0.1277 -0.0743  0.0679
20544W        W36678   2.477  16.504   1.050 -0.1757  0.1591  0.1158
20545W        W36679   1.272   1.868  14.643 -0.1636 -0.0409 -0.0822
20546W        W36680  17.637  10.116   0.975 -0.1935  0.0763 -0.3533
20547W        W36681  10.367  17.198   3.939 -0.2508 -0.1752  0.0478
20548W        W36682   3.022   0.812   1.191 -0.1636 -0.1532 -0.2112
20549W        W36683  14.808   7.702   3.472 -0.1376  0.0097  0.0206
20550W        W36684   5.266  12.303   5.389  0.0282  0.3386 -0.1717
20551W        W36685   5.623  14.488   3.558 -0.2019  0.1515  0.0089
20552W        W36686  17.156  10.385   2.120 -0.0934  0.0919  0.1123
20553W        W36687   9.263  14.546  13.584  0.0105 -0.2182  0.1821
20554W        W36688   9.294  11.734  11.955 -0.1363  0.1748  0.0343
20555W        W36689   6.140   5.261  14.465  0.1173 -0.0539  0.0165
20556W        W36690  13.728  12.215  12.923  0.4566 -0.3435  0.3021
20557W        W36691   1.111  11.139   2.705 -0.2579  0.1131 -0.1383
20558W        W36692  14.592   4.288  13.276 -0.2088 -0.1798  0.3371
20559W        W36693  16.237   9.651  13.234 -0.3290 -0.0797  0.2165
20560W        W36694  18.678  17.216  14.140 -0.1291 -0.1118  0.3458
20561W        W36695   1.565  14.208  13.165  0.0012 -0.2050 -0.1190
20562W        W36696  14.424   8.742   3.657 -0.2224 -0.3122 -0.1005
20563W        W36697  16.175   5.922   2.921 -0.0865  0.1366 -0.2743
20564W        W36698  13.289  16.176   0.696  0.1718 -0.1070 -0.0440
20565W        W36699   8.381  13.664   0.689 -0.1920  0.0761  0.0642
20566W        W36700   1.217   5.551   2.817  0.0998  0.1010 -0.0133
20567W        W36701  11.872   9.756  13.395 -0.0361 -0.1219  0.0397
20568W        W36702  13.013  13.795   1.121  0.0057  0.1969  0.1705
20569W        W36703   6.428   7.321  14.505 -0.0626 -0.1387  0.0515
20570W        W36704   6.195  15.909  12.909 -0.0949  0.4079  0.1071
20571W        W36705   2.379   6.100   1.402  0.0574  0.1398  0.0549
20572W        W36706   0.490  15.720   0.788  0.1114 -0.0221 -0.1648
20573W        W36707  11.448  16.085   2.557 -0.1113 -0.3253 -0.0673
20574W        W36708   1.285  12.160  12.608 -0.1883 -0.1063  0.0622
20575W        W36709   5.898   5.075   0.462 -0.0675 -0.3351 -0.0608
20576W        W36710   6.046   7.385   4.777 -0.1874 -0.0975 -0.2838
20577W        W36711   9.977  11.475   2.637  0.0505 -0.0678 -0.0696
20578W        W36712   3.213  11.540  14.508 -0.2649 -0.0855 -0.1851
20579W        W36713   8.124   9.443   9.454 -0.0545  0.1789 -0.1056
20580W        W36714   1.575  10.972  10.153  0.0716  0.1179 -0.0526
20581W        W36715  15.887  14.442   2.975  0.1717  0.1815  0.1804
20582W        W36716   6.696   3.603   1.942 -0.1676 -0.0226 -0.1923
20583W        W36717  11.575  16.447   2.175  0.1388  0.0854 -0.3244
20584W        W36718   2.868   3.401   1.008 -0.0920 -0.1637 -0.1325
20585W        W36719   9.596   4.621   4.910 -0.3613 -0.1124 -0.1112
20586W        W36720   0.734  11.469  13.822 -0.1465  0.1686  0.0191
20587W        W36721  15.616   7.741   2.432  0.1588  0.1702  0.0373
20588W        W36722   3.165  13.627  11.142 -0.0585 -0.3062  0.0692
20589W        W36723   0.212  14.276   5.541 -0.2357 -0.1258 -0.1401
20590W        W36724  13.880   9.520   0.309  0.1542 -0.0500  0.2779
20591W        W36725  15.142  14.993   2.599  0.0580 -0.1963 -0.0092
20592W        W36726  15.999   1.186  13.826 -0.0500  0.1446  0.0512
20593W        W36727  11.109  12.642   1.892 -0.0402 -0.0280  0.2388
20594W        W36728   7.884  17.703   2.091 -0.1473  0.1520 -0.0299
20595W        W36729   9.223  13.737   0.135  0.0699  0.1335  0.2301
20596W        W36730  17.133  13.062  10.355 -0.2338 -0.1262  0.1739
20597W        W36731  12.962  13.130  12.097 -0.0185 -0.2318 -0.3000
20598W        W36732   3.059   9.549  10.911  0.0082  0.0274 -0.0844
20599W        W36733   7.467   5.493   4.936  0.0955  0.3643  0.0105
20600W        W36734  16.887   5.314  12.005 -0.2962 -0.2105  0.1155
20601W        W36735  18.812  14.263   3.830 -0.3937 -0.1873  0.0515
20602W        W36736  15.083  15.492   4.508  0.1512 -0.5006  0.0814
20603W        W36737  13.541  11.561   0.368 -0.0905 -0.4235 -0.0077
20604W        W36738   9.365  10.577  13.417 -0.4356  0.1281  0.0458
20605W        W36739   4.567   8.731   2.243 -0.2583  0.1197  0.1609
20606W        W36740   8.713   2.285  10.085 -0.2040 -0.1036  0.2841
20607W        W36741  17.272   1.850   2.892 -0.1843  0.4102 -0.1542
20608W        W36742  11.971  17.879   5.334  0.0407  0.1092  0.0762
20609W        W36743   0.841   6.804   9.397  0.0884 -0.0103  0.0353
20610W        W36744   9.073  10.274  12.773  0.3038  0.2703 -0.1602
20611W        W36745   8.361  16.650  12.108 -0.2208 -0.1010 -0.2901
20612W        W36746   8.381  14.424  10.621 -0.1200  0.1183 -0.1962
20613W        W36747   2.573   7.964   1.138 -0.4107 -0.1012  0.0555
20614W        W36748  16.103  12.714   1.231  0.0851 -0.1553  0.1897
20615W        W36749   4.888  16.014  12.332  0.1728 -0.0962 -0.0516
20616W        W36750  15.543   5.145  12.091  0.0531 -0.1036 -0.2906
20617W        W36751   4.398  18.603   2.665 -0.1163 -0.1164  0.0426
20618W        W36752  17.633   9.022   2.244  0.0244  0.0390 -0.0439
20619W        W36753   7.856  15.211  14.239  0.0874 -0.1762 -0.2910
20620W        W36754   5.324   9.576   4.568  0.1325 -0.1181 -0.1525
20621W        W36755   8.228  16.849   3.160 -0.0334 -0.2907 -0.3444
20622W        W36756  10.440   5.005   2.438 -0.1275  0.4289  0.0966
20623W        W36757  17.285   4.404   0.912 -0.2509  0.1702 -0.1480
20624W        W36758  16.428  17.690   4.735  0.1313  0.0103  0.3742
20625W        W36759  14.692  11.700  14.199 -0.0676  0.0999 -0.1135
20626W        W36760  17.275   3.487  14.591 -0.1385 -0.2209 -0.2701
20627W        W36761   5.303  12.774  11.951  0.0922  0.2916 -0.1515
20628W        W36762   7.235   3.485   4.022  0.1843  0.0290 -0.0105
20629W        W36763   0.954   8.978  11.739  0.0996  0.0689 -0.1471
20630W        W36764   5.328  12.740   0.916  0.2050 -0.0328  0.1019
20631W        W36765  10.460  15.133  13.606  0.1362 -0.4455 -0.3587
20632W        W36766   3.608  17.892  12.239  0.2602  0.3622  0.1923
20633W        W36767  11.604  10.136  11.752  0.1284  0.0467 -0.1933
20634W        W36768  14.731   9.926   4.617  0.1994 -0.0479  0.1403
20635W        W36769   2.993   5.395   1.764  0.1407  0.0423  0.2123
20636W        W36770  10.806  17.217   4.188  0.2157 -0.1359  0.0896
20637W        W36771  11.950  14.550  11.710 -0.0760 -0.2345 -0.0265
20638W        W36772   9.306  18.053  11.659  0.1808 -0.5227  0.1248
20639W        W36773   7.704   1.120   4.164 -0.2497  0.0560 -0.1043
20640W        W36774  12.532   7.861   3.934 -0.2458 -0.0446  0.1038
20641W        W36775   9.304   6.469   4.809 -0.1269 -0.1527 -0.1080
20642W        W36776   1.733  12.470  13.627  0.3831 -0.2430 -0.1831
20643W        W36777   5.509   4.229  12.767 -0.0064  0.1593 -0.3477
20644W        W36778   0.518  18.478   3.466  0.0094  0.2149 -0.0281
20645W        W36779   5.889  16.210  11.576 -0.2651  0.0713 -0.0945
20646W        W36780  11.581  16.417  10.111  0.1308  0.1165 -0.0261
20647W        W36781   5.628  15.696   4.666  0.0454  0.0321  0.1609
20648W        W36782  16.537   7.751   2.386  0.0815  0.0885 -0.2350
20649W        W36783   5.332   0.664   1.355  0.0446  0.1752  0.0274
20650W        W36784   3.514   1.603  10.538  0.1053  0.1443  0.1910
20651W        W36785  10.447   9.281   0.289 -0.0125 -0.0232 -0.0919
20652W        W36786   9.832  18.573   3.818  0.2262 -0.1082  0.1329
20653W        W36787  13.169  15.722  11.519  0.0305 -0.0153  0.0336
20654W        W36788   4.804   4.568  13.458  0.3969 -0.0524  0.0580
20655W        W36789   2.053   8.467   2.383  0.2552  0.1586  0.1359
20656W        W36790  18.648  17.734  12.170 -0.1106 -0.2700 -0.1406
20657W        W36791   4.977   9.970   0.615 -0.4184  0.0734 -0.1258
20658W        W36792   5.377   2.383  13.150  0.0486  0.0881  0.1911
20659W        W36793   3.542  18.845   0.933 -0.0806  0.0995  0.4128
20660W        W36794  11.666  16.611   4.080 -0.0258  0.1567  0.0935
20661W        W36795   3.403   5.997  10.590 -0.0472 -0.2729 -0.0010
20662W        W36796  17.140  12.942  11.919 -0.0992 -0.1421  0.1351
20663W        W36797  16.572  12.729  13.642 -0.3928 -0.1441  0.1276
20664W        W36798   3.510  10.776  15.067  0.1677 -0.2065 -0.0485
20665W        W36799   2.255  10.140   4.696  0.2677 -0.3044 -0.1256
20666W        W36800  17.702   8.735   1.827  0.0019 -0.3805 -0.0442
20667W        W36801  12.604   5.863   4.624 -0.0833 -0.2089  0.2102
20668W        W36802   4.738  13.472   0.298  0.1618 -0.0621  0.0440
20669W        W36803   3.996   2.203   2.878  0.5113  0.1860  0.0577
20670W        W36804  17.674  13.840   0.519 -0.1122 -0.0076  0.2343
20671W        W36805   7.906   4.042  12.674 -0.0168 -0.0716  0.0587
20672W        W36806   5.428  14.395  14.156  0.0983  0.2398 -0.0155
20673W        W36807  17.549   7.085  12.424  0.2685  0.2342  0.0034
20674W        W36808  18.433   0.442   2.905 -0.1033 -0.0348  0.3514
20675W        W36809   5.687   2.561   4.998  0.0581  0.1345 -0.0877
20676W        W36810   0.169   4.922   5.256  0.0304  0.0400 -0.1744
20677W        W36811  15.145  16.222  12.760  0.1277 -0.1509  0.0080
20678W        W36812  16.320  16.887   5.008  0.0268 -0.2112  0.3894
20679W        W36813  14.740   8.925  14.919 -0.0714 -0.1842 -0.2811
20680W        W36814  11.430  16.973   3.119 -0.0589 -0.2668  0.0981
20681W        W36815  10.490   1.128  14.488  0.3194  0.1167  0.1736
20682W        W36816   5.704   7.221  14.710 -0.0178  0.1579 -0.1436
20683W        W36817  14.342   9.237  13.207 -0.2324 -0.0374  0.1823
20684W        W36818  13.604  11.383   1.623 -0.5498  0.0400  0.0214
20685W        W36819  10.500   9.269  11.653 -0.1213  0.2503 -0.4939
20686W        W36820   0.267  14.382  10.619 -0.0870 -0.1565  0.2475
20687W        W36821  13.151  11.316  10.826  0.1258 -0.1660  0.2846
20688W        W36822   6.828  13.114  13.404  0.2556  0.0726  0.0278
20689W        W36823   0.052  10.799   2.269 -0.1500  0.0147 -0.0807
20690W        W36824  14.421  10.123   1.459  0.1960  0.1157 -0.1789
20691W        W36825  15.568   1.452   1.674  0.1912 -0.2894 -0.4009
20692W        W36826   7.788   9.836  14.828 -0.1439 -0.0514  0.0233
20693W        W36827   6.734   3.521  10.932 -0.3747 -0.0923  0.0281
20694W        W36828  14.624  15.969   3.085 -0.2081  0.1542 -0.5967
20695W        W36829   1.995   1.153  15.025 -0.0438  0.0485 -0.2726
20696W        W36830  17.549   4.860   0.768 -0.1315 -0.0052 -0.1537
20697W        W36831  11.740  15.599   2.047 -0.3488 -0.3147 -0.2791
20698W        W36832   5.854  17.137   5.229  0.0511 -0.3316  0.0621
20699W        W36833  14.261  14.825   1.653 -0.0634  0.3917 -0.0624
20700W        W36834  10.144   0.393  15.019  0.0479 -0.1064 -0.0047
20701W        W36835  11.459  17.912  11.877  0.0366  0.2168 -0.1426
20702W        W36836  13.523  10.891   1.926  0.2652  0.0037  0.3576
20703W        W36837   4.526   3.667   2.077  0.2356  0.0699 -0.1456
20704W        W36838  15.166   5.176   2.593 -0.2490 -0.0091  0.1858
20705W        W36839   4.990   0.273  14.479 -0.0106 -0.0800 -0.1917
20706W        W36840  15.753   9.644   2.123  0.2367  0.1924 -0.0020
20707W        W36841  17.622   3.116   1.209  0.0520 -0.0070  0.2884
20708W        W36842   4.404   7.043   2.408 -0.0211  0.0331  0.1710
20709W        W36843   5.411   6.482  10.043 -0.0420  0.0367  0.0892
20710W        W36844   4.005  10.984  14.266 -0.6226  0.0205 -0.0653
20711W        W36845  13.657   2.255   3.358 -0.1562 -0.2537 -0.3962
20712W        W36846   5.221   7.397   1.374  0.1147 -0.0778 -0.0197
20713W        W36847   6.603  11.717  11.581  0.0273  0.0663 -0.3796
20714W        W36848   3.532   8.340  12.584 -0.0378 -0.2231 -0.1883
20715W        W36849  12.271  10.827   1.379  0.0169 -0.2148 -0.0703
20716W        W36850   3.875   4.346  13.093  0.2144  0.0760 -0.1092
20717W        W36851  18.009  15.367  15.109  0.0360  0.0615  0.1253
20718W        W36852   4.470   2.102  13.423  0.0948 -0.0423  0.1042
20719W        W36853   7.911  18.031   1.469 -0.3800 -0.2374  0.1810
20720W        W36854   3.709   7.389  14.564  0.1533 -0.0018  0.1031
20721W        W36855   7.586  15.449   4.843  0.3575  0.0967 -0.2948
20722W        W36856  18.037   4.558  12.041  0.1734 -0.2218 -0.3001
20723W        W36857   5.964  13.998  13.247 -0.0221  0.1870  0.3801
20724W        W36858   3.622  10.572   1.641 -0.0261  0.4161  0.0484
20725W        W36859   9.307  10.577  11.819 -0.2463  0.0474  0.1368
20726W        W36860   4.955  13.633   1.224 -0.0164  0.0418  0.1525
20727W        W36861  13.324   6.163  10.877  0.0389 -0.2615 -0.0123
20728W        W36862  11.174   0.789   2.869 -0.0720  0.4970  0.1157
20729W        W36863  11.201   5.594   1.436 -0.2968  0.0305  0.2489
20730W        W36864   3.541  14.732   0.554  0.1257  0.1516 -0.2975
20731W        W36865   9.240   5.339   2.513  0.1359 -0.1320 -0.0009
20732W        W36866  16.009  14.012   1.761 -0.1180 -0.1365  0.0798
20733W        W36867  10.617  10.047   3.477 -0.1923  0.4262  0.0484
20734W        W36868   8.985  14.557   1.366  0.2057 -0.2103  0.0528
20735W        W36869  11.083  12.987   4.571  0.3088  0.3198  0.2129
20736W        W36870  17.285   1.643  10.842 -0.4389 -0.0880 -0.0222
20737W        W36871  19.046  15.585   4.318  0.1989 -0.0946  0.1163
20738W        W36872  18.797   8.806   0.286  0.2858  0.0702 -0.2358
20739W        W36873   8.600  14.775  11.077 -0.0428  0.0342 -0.3856
20740W        W36874  12.144   0.867  11.210  0.1324 -0.1662 -0.0939
20741W        W36875  13.119   1.134  14.705 -0.0079  0.2998  0.0224
20742W        W36876  12.218  12.002  14.842 -0.2753  0.4075  0.0144
20743W        W36877   0.090   7.917  11.891  0.1283 -0.0099 -0.1681
20744W        W36878  18.285   6.260  11.658  0.0856  0.1480  0.3259
20745W        W36879  15.609  13.039  12.053 -0.2142 -0.0321 -0.0272
20746W        W36880   4.780  15.272   1.888 -0.0872  0.1482 -0.1080
20747W        W36881   6.237   1.779   1.907 -0.1609  0.0051 -0.0085
20748W        W36882   7.078  13.341   0.879  0.0179 -0.2996 -0.0834
20749W        W36883   6.581  16.756  14.146  0.1414  0.1288  0.1688
20750W        W36884   5.930  13.902  14.923 -0.0582 -0.3064  0.1878
20751W        W36885   9.294   4.991  13.053  0.1320 -0.0469  0.0865
20752W        W36886  10.749  16.307  12.775  0.0438  0.3071  0.0491
20753W        W36887   3.234   7.798   3.248  0.0927  0.0019  0.2134
20754W        W36888   1.213   5.312   4.442  0.1479  0.1749 -0.3894
20755W        W36889   3.743   8.689   4.356  0.1107  0.1425 -0.0166
20756W        W36890   7.578   8.614   3.255 -0.0053  0.0758 -0.1390
20757W        W36891   4.298  13.068  14.337  0.2074  0.0808  0.0119
20758W        W36892  13.414  12.156   9.756 -0.1109  0.0143 -0.2754
20759W        W36893   0.333  16.006   4.857  0.0772  0.0512  0.0871
20760W        W36894   9.979   6.194  14.533  0.3104 -0.0886 -0.2387
20761W        W36895   9.194   9.858   5.796 -0.0275 -0.0096 -0.1894
20762W        W36896  18.257   4.443  12.499 -0.0889 -0.1085 -0.1044
20763W        W36897  17.805   7.681   1.987 -0.2526 -0.1935 -0.0318
20764W        W36898   3.162   2.774  11.720 -0.0639 -0.3051  0.0381
20765W        W36899  16.972  11.011   0.058 -0.1277  0.1306 -0.0446
20766W        W36900   2.722  10.233   4.552 -0.0499  0.0416 -0.0731
20767W        W36901  16.757   2.082  11.207 -0.1181 -0.1974 -0.2887
20768W        W36902  14.236   3.142   0.604 -0.1665  0.3629 -0.3525
20769W        W36903  19.109   7.927  12.604 -0.3258 -0.0305  0.0189
20770W        W36904   7.569   2.360   4.848 -0.4668  0.1548 -0.1766
20771W        W36905  11.985   6.958   9.980  0.1334 -0.0041  0.1703
20772W        W36906  18.184   7.052   3.333  0.0700  0.2701  0.4184
20773W        W36907  17.807  10.632   1.212  0.1115 -0.0265  0.0650
20774W        W36908   6.313  12.396  13.754 -0.0752 -0.0126  0.0086
20775W        W36909   2.783  13.433   3.720 -0.1840  0.0916 -0.3211
20776W        W36910  13.444   6.262  12.674 -0.0383 -0.0713 -0.2100
20777W        W36911   4.464   6.749  12.303 -0.1214  0.0600 -0.0516
20778W        W36912   6.934   5.135   6.020  0.2537  0.0089  0.0427
20779W        W36913   3.516   7.016   0.226  0.0769 -0.5029 -0.1060
20780W        W36914  12.337  16.901  11.016  0.3100 -0.4058  0.3452
20781W        W36915  11.496   3.682   4.210  0.1025 -0.3786 -0.1185
20782W        W36916   7.989  16.558  11.175 -0.0212  0.1335 -0.2247
20783W        W36917   1.371  11.534   2.483 -0.0191 -0.1123 -0.2763
20784W        W36918   0.934  11.375  10.402 -0.1927 -0.0232 -0.0933
20785W        W36919   2.527   8.795   3.049  0.5769 -0.0059  0.3455
20786W        W36920   0.145  13.061   4.678  0.1437  0.2385  0.0826
20787W        W36921  10.299  18.524   3.057 -0.0676 -0.0423 -0.0742
20788W        W36922   6.302  14.096   3.895  0.1017 -0.4893  0.0811
20789W        W36923  18.051   3.553  11.427 -0.2651  0.1432  0.2273
20790W        W36924  18.646   5.690  12.208  0.0441 -0.1694  0.2201
20791W        W36925  11.476   4.589  15.104  0.2314 -0.1076 -0.2087
20792W        W36926   1.654  12.465  12.594  0.1533 -0.0510  0.2877
20793W        W36927   1.621   7.635  13.104 -0.0485 -0.0384  0.0153
20794W        W36928   7.562   8.294  13.005  0.0954 -0.0699  0.0814
20795W        W36929  11.304   4.010  13.029  0.1231 -0.1190  0.0752
20796W        W36930   5.851   8.867  11.851  0.1985 -0.0174  0.3478
20797W        W36931  10.374  18.148   0.572  0.2556  0.1618 -0.1370
20798W        W36932   4.425   4.469  14.768 -0.1142  0.1470  0.2929
20799W        W36933  18.634   2.818   3.508 -0.2033  0.0628  0.1056
20800W        W36934   7.671   7.965   0.383 -0.2559 -0.1562  0.4158
20801W        W36935   4.913   2.766  12.306 -0.0008  0.2063  0.2132
20802W        W36936   7.596   5.306   2.930  0.2069  0.0401  0.1259
20803W        W36937  14.228  16.499   0.424  0.2508 -0.2023 -0.3511
20804W        W36938  10.408  10.449  10.637  0.2103 -0.1024  0.0491
20805W        W36939  12.865  10.847  12.000  0.1463  0.3460  0.1415
20806W        W36940   7.769   1.234  14.955 -0.3179  0.1197  0.0791
20807W        W36941   4.038  12.081   0.186 -0.3030  0.2884 -0.1132
20808W        W36942   6.347  11.441   4.253 -0.1873 -0.1660 -0.2512
20809W        W36943  11.413   3.584  12.779 -0.0238  0.3204  0.2742
20810W        W36944  10.813  17.604   2.179 -0.0749 -0.1212 -0.0564
20811W        W36945  12.047  17.509   2.495 -0.3813  0.1116 -0.0241
20812W        W36946  11.897   8.314   3.383 -0.2255 -0.0974  0.2829
20813W        W36947   5.575  14.220   1.593  0.1035  0.2569  0.0369
20814W        W36948   3.164   4.915   0.774 -0.1093 -0.2346 -0.1059
20815W        W36949   3.047  10.991   0.060  0.1474  0.1077 -0.0569
20816W        W36950  12.784  16.086   3.420 -0.0487  0.2236 -0.1978
20817W        W36951   2.274  10.474  14.416  0.2150  0.3085  0.2257
20818W        W36952  14.528  17.283  11.848 -0.0538  0.1533 -0.0106
20819W        W36953   1.872  11.999  11.848  0.2332  0.1555  0.0100
20820W        W36954  17.326  13.987  11.870  0.1083 -0.0003  0.1102
20821W        W36955  13.148   1.238   0.953  0.0360 -0.3316  0.1574
20822W        W36956  13.762  16.988  10.174 -0.1216 -0.0492 -0.2457
20823W        W36957   1.656   1.059   2.912 -0.1226 -0.1277 -0.0667
20824W        W36958   4.328   0.929  14.061  0.0788  0.0792 -0.2697
20825W        W36959  14.140   4.503  13.460 -0.0275 -0.1071  0.0130
20826W        W36960  18.316   0.942  13.845 -0.0269  0.0986 -0.3912
20827W        W36961   0.848  15.237   4.721  0.2219 -0.2228 -0.0778
20828W        W36962   8.428  15.235  10.683 -0.0700 -0.1529  0.1500
20829W        W36963   7.325   8.338  14.772 -0.4759  0.1119  0.0781
20830W        W36964   3.030   6.212  13.010 -0.0503 -0.2045 -0.0754
20831W        W36965   9.364  10.090   5.366  0.0381 -0.2283 -0.0571
20832W        W36966   6.867  13.597   3.414 -0.0393  0.0228 -0.3949
20833W        W36967   4.606  14.371   0.705  0.0789  0.1843 -0.2716
20834W        W36968  14.821  18.943   4.539 -0.0147 -0.1707  0.1665
20835W        W36969   4.200  11.881  14.591 -0.1875  0.0326 -0.0202
20836W        W36970   1.228   3.148  11.730  0.1766 -0.1900 -0.0742
20837W        W36971  13.644   8.902   1.768  0.0636 -0.4262  0.0479
20838W        W36972  16.105  10.403   4.457 -0.1191  0.1036 -0.1211
20839W        W36973   9.388   0.583  13.124  0.1748 -0.0754 -0.2289
20840W        W36974   5.649   5.161  13.303 -0.0120 -0.0496  0.4225
20841W        W36975   5.284  13.502  13.776 -0.0216  0.2814 -0.3922
20842W        W36976  10.767  18.171   1.015  0.2272  0.0453 -0.3410
20843W        W36977   8.787   8.663   1.466 -0.0053  0.1380 -0.2306
20844W        W36978   6.677  12.852  11.916 -0.0868 -0.1780 -0.0655
20845W        W36979  15.006   6.735   1.822  0.0715  0.1532 -0.1639
20846W        W36980   3.368  11.872  13.208  0.1294  0.0155  0.2083
20847W        W36981   3.428  15.282  10.700 -0.1756 -0.1379  0.0401
20848W        W36982  10.584  11.324   0.544  0.0283 -0.2133 -0.1254
20849W        W36983   1.989  19.091   0.723 -0.0194  0.2007 -0.1887
20850W        W36984  10.999  12.954   0.138  0.0066 -0.2009  0.1435
20851W        W36985   9.061   7.622  15.170 -0.3534  0.3001  0.1591
20852W        W36986   6.008   4.743   3.888  0.1506  0.1250 -0.3346
20853W        W36987   6.679  16.242  14.111 -0.0759 -0.0720  0.2419
20854W        W36988  12.054  12.123   1.520 -0.0423  0.0002  0.2355
20855W        W36989  17.424   0.600  11.929  0.0817  0.1829  0.1839
20856W        W36990  16.446   0.454  12.446  0.0742 -0.1616  0.1124
20857W        W36991  12.217   4.085  13.483 -0.0056  0.0410 -0.0187
20858W        W36992  13.065   2.613   0.358  0.1077  0.0325 -0.0678
20859W        W36993   9.496   4.832  10.952  0.1896  0.2416  0.2777
20860W        W36994  17.962  16.389   3.565 -0.3125 -0.2836 -0.1356
20861W        W36995  15.390  14.260  12.668 -0.0974 -0.3922  0.1810
20862W        W36996   6.996   4.951  14.714 -0.0964  0.1750 -0.1898
20863W        W36997   7.493  12.944  11.288  0.0895  0.3383 -0.3217
20864W        W36998   9.327   5.769   2.112  0.0517  0.3495 -0.0005
20865W        W36999   5.797   1.927  11.684 -0.2506 -0.0450 -0.1165
20866W        W37000   7.634   2.516  13.782  0.0183 -0.1203  0.0716
20867W        W37001  18.249  15.768   4.675  0.3976  0.2756 -0.1226
20868W        W37002   2.989  18.076   5.727  0.0427 -0.1961 -0.0171
20869W        W37003   8.212  16.455  14.500  0.1080 -0.2644  0.0438
20870W        W37004  18.181  18.047  12.245 -0.2553 -0.2513 -0.0138
20871W        W37005  11.195  13.475   4.468 -0.0004  0.2015 -0.1525
20872W        W37006  12.177   1.502  10.881  0.0920 -0.0165  0.0412
20873W        W37007   6.463   7.779   2.081 -0.0293  0.1189  0.0950
20874W        W37008   5.066  10.745   2.268 -0.0029  0.1919 -0.0576
20875W        W37009   3.084   9.887   3.431  0.1109  0.1030  0.0287
20876W        W37010  18.814  15.319   4.707  0.2308 -0.1102 -0.0643
20877W        W37011   6.073   9.781   0.735 -0.0614  0.1644 -0.0014
20878W        W37012   0.667  17.754  14.955  0.1947 -0.3269  0.1374
20879W        W37013   0.768   7.480  11.588  0.0312 -0.1434  0.1326
20880W        W37014  17.757  15.614   4.452 -0.0956  0.0051 -0.1996
20881W        W37015   1.037  10.662  12.764 -0.0566  0.1966  0.4304
20882W        W37016   9.767   0.310  14.643 -0.0355 -0.0241  0.2203
20883W        W37017  15.702  18.741  14.115 -0.1463 -0.0189 -0.0787
20884W        W37018  12.865   0.048  11.880  0.1309  0.2567  0.1097
20885W        W37019  11.500  15.517  14.756  0.2386  0.0653 -0.0328
20886W        W37020  13.662  12.228  11.631 -0.0540 -0.2386 -0.0094
20887W        W37021   4.901  17.243  11.155  0.0789 -0.4223  0.1629
20888W        W37022   7.081   5.158   4.778 -0.2270 -0.1901  0.0531
20889W        W37023  11.742  14.181  13.489 -0.2981  0.4124  0.0012
20890W        W37024  14.932   1.951   3.896  0.1489  0.2561  0.1574
20891W        W37025  15.829  16.315   4.291 -0.1966 -0.0569  0.0823
20892W        W37026   5.935   3.174  13.581 -0.0253 -0.5272 -0.2010
20893W        W37027  15.020   6.618  15.057 -0.1862 -0.0394  0.5439
20894W        W37028  15.475  16.860  14.336 -0.1634 -0.2755  0.3604
20895W        W37029  10.832  13.166  13.208 -0.1664  0.1598 -0.1244
20896W        W37030   6.091  13.595  13.610 -0.2863 -0.1740  0.1042
20897W        W37031   8.521  13.428  13.556  0.0713 -0.1647 -0.2036
20898W        W37032   6.962  16.020  12.149 -0.1067  0.2088 -0.0125
20899W        W37033   8.028   1.247  13.236 -0.2798 -0.2186  0.2764
20900W        W37034   6.349  13.641   1.903 -0.0699  0.0406  0.3285
20901W        W37035  10.337   7.067   1.229  0.2855 -0.3274 -0.0816
20902W        W37036  17.371  16.124   4.375 -0.2026 -0.0454  0.0318
20903W        W37037  10.411  14.751   0.535 -0.2641 -0.2783  0.1835
20904W        W37038   2.384  14.300  10.898  0.0546  0.1323 -0.4634
20905W        W37039   8.139  14.383   1.491  0.1970 -0.1050 -0.0208
20906W        W37040   4.979  12.712  10.041 -0.3595 -0.1992  0.2869
20907W        W37041  15.799   2.411  13.395  0.2009  0.2885  0.2075
20908W        W37042   3.960  17.061   3.480  0.0230 -0.0924  0.3814
20909W        W37043   5.593   4.843   3.129 -0.0841 -0.1703 -0.1360
20910W        W37044   9.159  12.168  11.663  0.0300 -0.2166 -0.2077
20911W        W37045   4.846   9.496   5.409  0.0713 -0.0836 -0.1244
20912W        W37046   7.481  12.971   0.398 -0.0941 -0.2435 -0.1715
20913W        W37047   6.060  12.063   5.993 -0.2412  0.1211  0.0007
20914W        W37048   9.514  10.247   3.873 -0.0104  0.1374  0.0722
20915W        W37049  16.553  16.801  14.097  0.4026  0.0459  0.1917
20916W        W37050   2.869   6.232   4.236 -0.1484 -0.0935  0.0127
20917W        W37051   4.231   4.581   0.250  0.0857 -0.2353 -0.1059
20918W        W37052  15.040  10.617  13.894 -0.4588  0.2388 -0.0238
20919W        W37053   9.385   7.793   1.305 -0.0843 -0.0150 -0.2027
20920W        W37054   7.528   1.171  13.080  0.1130 -0.0327 -0.3334
20921W        W37055  10.869  14.344   2.588  0.3173  0.2190 -0.0951
20922W        W37056   6.659   4.366   0.175  0.0555  0.2944  0.2470
20923W        W37057   1.467   3.694  11.738  0.2813  0.0936 -0.0855
20924W        W37058  11.743   0.866   0.387  0.0766 -0.2316  0.0899
20925W        W37059   5.137  15.880   0.459  0.1054  0.1266 -0.2632
20926W        W37060   5.289   2.336   4.768 -0.2390 -0.1774 -0.2237
20927W        W37061  17.847   1.189  13.656  0.2101  0.0278 -0.1143
20928W        W37062  19.026  15.953   5.223 -0.2287  0.2146 -0.0702
20929W        W37063  11.565  13.809   3.375  0.1237  0.1048 -0.1825
20930W        W37064  17.626   2.737  12.836 -0.0458 -0.1101  0.0426
20931W        W37065   2.884  10.544  14.168 -0.1037  0.1416 -0.1672
20932W        W37066  18.757  16.710  12.079  0.1564 -0.1301  0.1184
20933W        W37067   8.962   8.344   3.717  0.1595  0.0885 -0.1242
20934W        W37068  17.426   0.715  11.455 -0.0941  0.0555  0.1191
20935W        W37069   5.508   1.276   4.392  0.2708  0.0601 -0.0630
20936W        W37070  13.921   2.218  11.290  0.0016 -0.2902 -0.2247
20937W        W37071  14.832  11.720   9.316  0.0845 -0.2582 -0.0292
20938W        W37072   8.665   7.805   1.889  0.0563 -0.1230 -0.2501
20939W        W37073  12.680   4.134  14.281  0.1426 -0.2270  0.0363
20940W        W37074  17.822  17.574   4.534 -0.1151  0.1254  0.2426
20941W        W37075  12.841   1.878  11.298 -0.2255  0.0154 -0.0351
20942W        W37076   1.596  10.861  14.967  0.1050 -0.2474 -0.0684
20943W        W37077  13.201   8.100   2.858 -0.0619 -0.0945  0.1030
20944W        W37078   0.574  10.019   3.039 -0.1535 -0.0530 -0.0979
20945W        W37079   5.134   1.179  11.568  0.0995  0.4936 -0.1257
20946W        W37080  12.260  12.342   4.515  0.0340 -0.0154  0.0765
20947W        W37081  15.858   5.357  13.848  0.0178 -0.2045  0.1934
20948W        W37082  15.944   0.711  10.724 -0.0000  0.1535 -0.1808
20949W        W37083   3.938  16.380   0.007  0.0461 -0.0406 -0.1526
20950W        W37084   6.327   7.114   0.159 -0.0477  0.3268  0.2189
20951W        W37085  15.552  13.514   2.338 -0.2022  0.2866 -0.0770
20952W        W37086   9.146   4.815  13.764  0.1556  0.0606  0.2317
20953W        W37087  16.637   3.536  12.573 -0.1287  0.1450  0.2065
20954W        W37088   9.783  18.855  14.006  0.2359  0.0494  0.1574
20955W        W37089  17.909   3.925  10.070  0.2011  0.1150  0.1300
20956W        W37090   2.757  12.399  14.427  0.0103  0.0992  0.1153
20957W        W37091   3.787   1.787   5.415  0.0458  0.3267  0.0851
20958W        W37092   6.365   8.040  11.549 -0.2361  0.0328  0.0968
20959W        W37093  17.239  12.092  14.552 -0.2644  0.1195 -0.0155
20960W        W37094  18.760  16.738   2.334 -0.2227 -0.1881 -0.1864
20961W        W37095  18.003   2.371  12.754 -0.1312  0.0882 -0.1321
20962W        W37096  11.241  10.127   5.264  0.0906 -0.2665 -0.1366
20963W        W37097   4.771   6.265  13.124  0.1637 -0.1493  0.2043
20964W        W37098   3.439   6.335   3.611  0.0531  0.1181 -0.0407
20965W        W37099  16.625   4.493  10.997 -0.1264 -0.1550  0.3963
20966W        W37100   0.202  13.574  14.173 -0.1600  0.1651 -0.4011
20967W        W37101  16.548  14.130  14.338 -0.0445  0.3287  0.2252
20968W        W37102   2.086   9.103   2.321 -0.0406 -0.0036 -0.1043
20969W        W37103  17.026   8.020  11.473  0.2348 -0.0630 -0.5242
20970W        W37104   7.907   4.222  14.341  0.0534  0.1336 -0.1558
20971W        W37105  11.482   7.363   5.447  0.2671 -0.0340 -0.0793
20972W        W37106   9.088  18.284   4.786  0.0415 -0.1690 -0.2897
20973W        W37107  13.242  18.663  12.897  0.0977 -0.1144  0.4227
20974W        W37108  14.263   8.562  10.729 -0.0849  0.3498  0.4097
20975W        W37109  14.997   9.242  14.574  0.3193 -0.2221 -0.0713
20976W        W37110  13.959   0.706   0.763  0.0818  0.0469 -0.1090
20977W        W37111  11.457   6.619   3.552 -0.0788  0.0829  0.0051
20978W        W37112  18.526   6.731   0.844  0.0549 -0.0793  0.2046
20979W        W37113   8.357  11.890   2.116 -0.1985  0.0792 -0.0086
20980W        W37114   7.949  13.707   1.391  0.4286  0.1292 -0.1492
20981W        W37115  15.674   0.033   0.877 -0.2183 -0.1599  0.2815
20982W        W37116  16.392   7.159   3.849  0.0082  0.4105 -0.2984
20983W        W37117  15.755  15.639  14.028  0.2444  0.1866  0.0934
20984W        W37118   2.530   2.479   4.031  0.1534 -0.0664 -0.2702
20985W        W37119  10.562   1.650  12.775  0.2037  0.4482 -0.1377
20986W        W37120   8.074   2.984   2.421 -0.4115  0.5717  0.1060
20987W        W37121  15.408   0.076   5.332 -0.2042 -0.0585  0.1115
20988W        W37122  11.644  13.506   2.882 -0.0359  0.4276 -0.1326
20989W        W37123  15.194  13.159   4.378 -0.3981  0.1855  0.1316
20990W        W37124  18.357   7.378  12.455 -0.0623  0.2021  0.0208
20991W        W37125  19.129   0.569  14.183 -0.0548  0.0271  0.0293
20992W        W37126   2.873   5.371   0.996  0.1702 -0.1991 -0.1166
20993W        W37127  16.850  13.788  14.634  0.3309 -0.0680 -0.0153
20994W        W37128   1.298  13.522  11.691 -0.0676  0.1386 -0.0754
20995W        W37129   3.940  11.045   0.927 -0.0615 -0.3936 -0.1601
20996W        W37130  11.619   3.999   3.812 -0.0665 -0.2490 -0.1608
20997W        W37131   9.508  10.796   4.996 -0.3535 -0.2647 -0.0218
20998W        W37132  16.245  11.110   0.491 -0.2098 -0.0760 -0.1511
20999W        W37133  13.828  12.335   3.071 -0.1806  0.1027  0.0423
21000W        W37134   1.399   0.053   4.428  0.0750  0.2024  0.0275
21001W        W37135  18.545   9.682  11.842  0.2106 -0.0134  0.0244
21002W        W37136  10.860  18.388   4.964 -0.0364 -0.1022 -0.1699
21003W        W37137   8.284   3.205  13.363 -0.0074 -0.1984  0.2369
21004W        W37138   6.069   8.901  13.233  0.0538 -0.1919 -0.1107
21005W        W37139   0.572  13.360  10.573  0.1906 -0.0891  0.0017
21006W        W37140  16.926   8.618  10.231 -0.0468 -0.1340 -0.0746
21007W        W37141   6.081   9.295   2.115 -0.0073  0.2910  0.2595
21008W        W37142  15.838  10.787   4.093 -0.0778 -0.1653  0.0089
21009W        W37143  17.765  16.054   4.879 -0.3059 -0.1689 -0.2044
21010W        W37144   6.164   4.576   0.160  0.1859  0.0633  0.0417
21011W        W37145   4.670  15.188  14.454  0.0985  0.0037  0.3109
21012W        W37146  15.070  13.483   3.775  0.0583 -0.1520 -0.1101
21013W        W37147   0.095  13.718   3.325 -0.1568  0.1368 -0.0637
21014W        W37148   7.849   4.872   3.510 -0.1202  0.2176  0.0339
21015W        W37149   5.496  18.917  11.198 -0.0103 -0.2553 -0.0889
21016W        W37150   3.394  10.239  13.640 -0.0598 -0.0253 -0.1773
21017W        W37151   3.709   5.669  12.603 -0.0882  0.1296 -0.1323
21018W        W37152  13.261  11.656  10.493 -0.0996 -0.3095 -0.0400
21019W        W37153  13.286   2.406  15.075  0.3268 -0.1208  0.2246
21020W        W37154   5.821  13.711  11.350  0.1950 -0.0499 -0.4593
21021W        W37155   9.667   9.841   1.312 -0.2386  0.1331 -0.0259
21022W        W37156   1.450  18.934   3.511  0.0367  0.5340 -0.1012
21023W        W37157   7.236  14.673   4.918 -0.3185 -0.0351 -0.0576
21024W        W37158  18.693   8.470  15.117  0.0295  0.3814 -0.0457
21025W        W37159   1.700   1.719  12.932  0.1959 -0.1492  0.0655
21026W        W37160   8.959  15.018   1.546  0.1871  0.0239  0.0176
21027W        W37161  12.835   6.389   3.344  0.1893  0.3630  0.0191
21028W        W37162   9.634  18.642   5.422 -0.1305  0.0470  0.0152
21029W        W37163   7.965   2.493   3.307  0.3631 -0.0102  0.2822
21030W        W37164  10.357   2.451  14.027 -0.0280 -0.2169 -0.1207
21031W        W37165   0.742   0.046   5.668  0.2073  0.4483 -0.1872
21032W        W37166  15.671  14.570  12.935  0.1968  0.0014 -0.1311
21033W        W37167  14.549   3.602   1.633 -0.1822  0.2017  0.1847
21034W        W37168   6.778   5.790  12.768  0.2314  0.0676  0.1452
21035W        W37169   0.287   9.645  14.085  0.0506  0.2857  0.3080
21036W        W37170   4.320   3.759   0.880 -0.1463  0.2822  0.1197
21037W        W37171   9.920  11.793   3.048 -0.2324 -0.0309 -0.0549
21038W        W37172  11.015   0.755  11.183  0.0723  0.1023 -0.0503
21039W        W37173   3.657  18.771   5.664  0.1491 -0.2823 -0.0349
21040W        W37174   1.592   0.059  13.634  0.2420  0.1473  0.0001
21041W        W37175   9.781   7.924  14.048  0.3103 -0.0767 -0.0561
21042W        W37176  14.349  13.615  10.849 -0.3047 -0.1219  0.0640
21043W        W37177  12.437   3.587   3.749  0.3193 -0.1537 -0.2029
21044W        W37178   4.580  17.545   9.481 -0.2082  0.0993 -0.5127
21045W        W37179  19.085   3.088   2.521  0.0823 -0.0827  0.1314
21046W        W37180  16.044   1.988  13.406  0.0942  0.2300  0.0523
21047W        W37181  12.574   6.480  15.069 -0.2865  0.1169 -0.3921
21048W        W37182  11.008  10.202   2.760  0.2891 -0.3256  0.0328
21049W        W37183  18.145  11.963   1.843 -0.0126 -0.2459 -0.6339
21050W        W37184   5.906   9.484   5.200 -0.2497  0.0185  0.3016
21051W        W37185   9.227  10.173   2.357 -0.0280  0.3627 -0.2753
21052W        W37186   0.430  15.162  11.053 -0.1347 -0.4304 -0.1388
21053W        W37187   2.298   2.928   4.243  0.1518 -0.3074 -0.3585
21054W        W37188   6.255   4.262   3.136 -0.2430 -0.0185  0.2089
21055W        W37189   6.328  18.680  10.754  0.1409  0.2168 -0.2085
21056W        W37190   0.945   6.599   0.087 -0.4094  0.1714 -0.1743
21057W        W37191  17.744  10.872  12.855  0.0140 -0.1700 -0.0900
21058W        W37192  17.756  13.288  13.080  0.3916 -0.2825  0.2113
21059W        W37193  11.999  10.757  13.014  0.0350 -0.0447  0.1115
21060W        W37194   9.640   1.386  12.890  0.1897  0.1137  0.3198
21061W        W37195   8.777   6.305  10.902 -0.1605 -0.0545 -0.1505
21062W        W37196  13.954   0.284   0.395 -0.0451 -0.1515  0.1087
21063W        W37197  13.518   5.021   0.070 -0.0643 -0.1879  0.0689
21064W        W37198  11.346  18.052  10.789  0.3554  0.0021  0.0574
21065W        W37199  16.601   4.683  10.557  0.3279  0.2038  0.1518
21066W        W37200  15.124  11.564   2.730  0.0964  0.2386  0.2253
21067W        W37201  12.377   4.325  11.260 -0.3261  0.0858 -0.0974
21068W        W37202  11.038   0.017   0.341  0.1428  0.0632 -0.1010
21069W        W37203  11.495  16.388   1.697  0.3292  0.0882 -0.5338
21070W        W37204  12.952   0.395  15.176  0.3692 -0.0392  0.0433
21071W        W37205  15.030  12.576  11.580 -0.2261  0.1346  0.0898
21072W        W37206   1.006   0.296   0.043 -0.1986 -0.1679  0.0967
21073W        W37207  19.019   7.004  10.795 -0.3947 -0.1102  0.0288
21074W        W37208   6.718  17.611  14.227  0.1436  0.0222 -0.0107
21075W        W37209  16.015   0.272   2.890 -0.1469 -0.1411 -0.0554
21076W        W37210  13.067  17.980  12.276  0.4470 -0.2917 -0.2685
21077W        W37211   5.888   4.520   5.379 -0.0266  0.0218  0.0192
21078W        W37212   8.699   5.213  13.871  0.1116  0.2692  0.0370
21079W        W37213  10.807  18.341  14.159 -0.0179 -0.4281 -0.0552
21080W        W37214   2.218  15.597   1.286 -0.3939  0.1217 -0.1658
21081W        W37215  16.785  18.105   3.833 -0.1099  0.1846  0.2800
21082W        W37216   5.739   6.039  14.201 -0.3130 -0.0364  0.1512
21083W        W37217  14.101   0.014   3.574 -0.1169  0.0686  0.1439
21084W        W37218  18.692   5.564   2.216  0.1737  0.1293  0.0074
21085W        W37219   7.906  18.218  11.428 -0.0493  0.0578 -0.1007
21086W        W37220   6.508  18.054   1.154  0.3597  0.0183  0.1179
21087W        W37221   2.517  11.894  13.913 -0.3071  0.0228  0.3972
21088W        W37222  18.592  17.539  13.580 -0.0108 -0.0124 -0.1236
21089W        W37223   0.206  16.931   1.045 -0.1110  0.3694 -0.5241
21090W        W37224   4.256  16.762   9.952 -0.1164  0.2668  0.1253
21091W        W37225  15.087  11.975  13.262 -0.3453 -0.1928 -0.1957
21092W        W37226   0.843  14.202  11.469  0.5483 -0.0325 -0.1404
21093W        W37227   9.873  16.337  10.430  0.0964  0.0935  0.3170
21094W        W37228  14.686   6.316  12.059 -0.1647  0.0961 -0.0841
21095W        W37229   3.348   5.081  11.697  0.0473  0.0282  0.1312
21096W        W37230  18.027   4.130  14.954  0.2021 -0.3014 -0.1286
21097W        W37231  13.891   5.695  11.581  0.3873 -0.1712  0.0149
21098W        W37232  15.856  16.117   0.444 -0.2188 -0.2564 -0.1226
21099W        W37233  12.337  10.999  12.188  0.1943  0.2008  0.0814
21100W        W37234  14.085   8.465   1.169  0.2514 -0.1165  0.0979
21101W        W37235   1.437   5.832  12.400  0.0574  0.1558 -0.1770
21102W        W37236   6.842  18.894  10.980 -0.2696 -0.2587 -0.0398
21103W        W37237  11.212  12.185   1.904  0.2495  0.4059  0.1075
21104W        W37238   9.601  13.437   1.506  0.1925  0.1257  0.1477
21105W        W37239  13.672   1.483   1.098 -0.1125  0.2233 -0.4100
21106W        W37240   4.198   8.232   4.971  0.1819  0.3249  0.4448
21107W        W37241  13.495   0.799   1.054 -0.0876 -0.0459  0.0993
21108W        W37242   6.043   4.526  14.388  0.1242 -0.1428  0.0439
21109W        W37243  10.676  11.663  11.035 -0.0413 -0.2690  0.3441
21110W        W37244   4.996   5.050  10.444  0.1974 -0.1572 -0.0476
21111W        W37245  13.312   0.363   1.268 -0.2266 -0.1715  0.0525
21112W        W37246   2.835   1.100  13.325  0.1567  0.0677  0.0007
21113W        W37247   2.183  17.260  10.111  0.0602  0.1578 -0.2123
21114W        W37248   9.044   4.042  14.660 -0.1867 -0.0875  0.1229
21115W        W37249   3.297  16.903   5.140 -0.1723  0.2936  0.1114
21116W        W37250  15.584   9.745   4.047  0.1809  0.1297  0.0035
21117W        W37251   0.071  11.125   1.868  0.0640  0.3231  0.0066
21118W        W37252  17.427  14.533  12.521  0.3437  0.2404  0.0709
21119W        W37253   4.010   2.451   1.559 -0.1874  0.2046  0.1428
21120W        W37254   2.294   5.148   3.508  0.0748  0.3553 -0.2681
21121W        W37255   7.220   2.685   1.607 -0.0759  0.0999  0.0924
21122W        W37256  10.900  10.509  10.508 -0.2872  0.0558 -0.2495
21123W        W37257   7.544   3.739  13.035  0.1735 -0.2803  0.1559
21124W        W37258  16.811  15.317   2.735  0.1203 -0.3941 -0.0288
21125W        W37259   2.127   0.812  14.053 -0.1556 -0.0144  0.0073
21126W        W37260  13.032  13.845  11.446  0.1935 -0.0593 -0.1602
21127W        W37261   4.460   1.964  11.711  0.3171 -0.0742 -0.0801
21128W        W37262   7.291   6.032   5.090  0.3199  0.1381 -0.5759
21129W        W37263  17.522  15.707   0.566 -0.3000  0.1232  0.1408
21130W        W37264   5.230   6.941  11.707  0.0647  0.0350  0.4128
21131W        W37265   7.097  10.884  11.512  0.1454 -0.0714  0.0247
21132W        W37266   5.917  10.733   1.384  0.2374  0.3261  0.1885
21133W        W37267  18.754   5.911  13.972  0.0579  0.1904  0.4418
21134W        W37268  11.821   9.574   4.455 -0.3281 -0.1590  0.2666
21135W        W37269   7.915   7.500   1.315 -0.1846 -0.4895  0.0866
21136W        W37270  11.580  13.650  11.110  0.0041  0.0773 -0.0607
21137W        W37271  11.094  17.231   3.734 -0.0532 -0.0627 -0.2032
21138W        W37272   6.478   7.292  10.928 -0.3915  0.2355 -0.3575
21139W        W37273  11.284   7.539  10.659  0.2319  0.0870  0.2690
21140W        W37274  12.324  14.417  14.637 -0.0437  0.0607  0.1003
21141W        W37275   5.762   9.297   0.610  0.3428 -0.1138 -0.1308
21142W        W37276   3.000  19.098   4.695  0.0314 -0.2724 -0.0912
21143W        W37277   3.873   1.894  14.850  0.1253  0.1396 -0.0690
21144W        W37278   0.493   9.792   0.824 -0.2091 -0.2540  0.2611
21145W        W37279  17.864   6.179   5.529  0.1165  0.1091 -0.1546
21146W        W37280   9.307   8.998  12.686 -0.3660 -0.0710 -0.0593
21147W        W37281   2.277   4.786   2.195  0.3823  0.6006 -0.0084
21148W        W37282   8.785   6.999  12.521 -0.0482 -0.2693  0.1007
21149W        W37283   2.153   9.446   2.744 -0.0670 -0.1713  0.0697
21150W        W37284  15.626   8.606   2.347 -0.0946  0.0516  0.1390
21151W        W37285   4.096  18.782  13.962 -0.2143  0.0116  0.0179
21152W        W37286  17.187   8.586  14.395  0.1140 -0.3730 -0.0668
21153W        W37287   0.745   4.921   3.472  0.0641 -0.0516  0.1527
21154W        W37288  16.810   2.502   3.656 -0.3044  0.0681 -0.1393
21155W        W37289   9.502  18.437  13.414  0.2902 -0.1034  0.0085
21156W        W37290  11.015  17.639  10.065 -0.0827 -0.0623 -0.0159
21157W        W37291  10.650   6.403   0.480  0.0433  0.3182 -0.1525
21158W        W37292  10.672   5.642   3.315 -0.1101  0.3057 -0.1108
21159W        W37293   2.152   6.398  14.043 -0.0129  0.3612  0.2704
21160W        W37294   3.014   1.779   5.983  0.0935 -0.2388 -0.1181
21161W        W37295  14.555   3.904   3.892  0.2310  0.0662 -0.1668
21162W        W37296  15.719   0.224   4.581 -0.1409 -0.4259  0.1790
21163W        W37297   8.558   7.449  11.084 -0.1776  0.1183 -0.0303
21164W        W37298   0.245   4.883   3.319  0.1577  0.1812  0.1511
21165W        W37299   0.522   8.199   4.464 -0.0887  0.2405 -0.3305
21166W        W37300  13.600  17.669  11.510 -0.1858  0.3494 -0.1221
21167W        W37301  15.747  13.682   4.906  0.1265  0.2961 -0.0506
21168W        W37302   7.181   4.240   1.488 -0.0488 -0.3504  0.1575
21169W        W37303  12.492  17.751   1.006  0.1311  0.1842  0.0029
21170W        W37304  13.283  17.384   3.996 -0.0845 -0.0219  0.1206
21171W        W37305   8.331  15.263  12.833  0.0477  0.1387 -0.2131
21172W        W37306  10.686  10.731   5.343  0.1259 -0.0584  0.1101
21173W        W37307  18.152  17.204   4.473 -0.2321  0.4261  0.0642
21174W        W37308   5.959   9.524  13.959 -0.4390 -0.0145 -0.1873
21175W        W37309   7.265  11.153   1.194  0.0523  0.1050  0.1962
21176W        W37310   5.618   7.336   2.248 -0.0384 -0.1349  0.0100
21177W        W37311   4.149   7.759  13.792  0.0450  0.1660 -0.2223
21178W        W37312  16.175   8.540  10.007 -0.4076 -0.0736  0.0994
21179W        W37313  12.811  15.019  14.907 -0.1952 -0.1192 -0.0734
21180W        W37314  17.415  16.176  10.703  0.1086  0.2755 -0.2177
21181W        W37315  14.838   7.670  12.851 -0.2861 -0.0341 -0.1007
21182W        W37316  11.970  14.430  14.284  0.0728  0.0125  0.0750
21183W        W37317   1.714  15.362  12.525 -0.0197 -0.1025  0.0626
21184W        W37318  18.791  11.213  14.254 -0.0306  0.0312  0.2547
21185W        W37319  11.705  13.930   2.439 -0.2488  0.3975  0.0150
21186W        W37320  12.048  17.916  12.260 -0.1081 -0.2643 -0.1552
21187W        W37321   4.799  18.518   0.347 -0.1624 -0.1415 -0.1503
21188W        W37322  13.332  10.877  11.023  0.0191  0.0822 -0.0638
21189W        W37323   8.682   3.183   1.294  0.2488  0.1244  0.0593
21190W        W37324   9.586   5.073  13.470 -0.0683  0.0127  0.2897
21191W        W37325   8.913   0.545  12.098 -0.0376  0.2806  0.0942
21192W        W37326   9.693  12.870  11.491  0.0226  0.0445 -0.1676
21193W        W37327   3.465   9.748   0.185 -0.0933  0.1009  0.2471
21194W        W37328  13.614   7.635  11.292  0.0855  0.1494  0.2171
21195W        W37329   6.469   3.032  12.643  0.5988 -0.2782 -0.0039
21196W        W37330   6.306  11.752  14.526 -0.1577 -0.1717 -0.0993
21197W        W37331   0.141  15.480  13.622 -0.1075  0.2845  0.0622
21198W        W37332  15.880  11.438  13.020 -0.1083 -0.0858 -0.1760
21199W        W37333   5.956   8.302   5.242 -0.1349 -0.2606  0.2614
21200W        W37334   5.306  16.155   0.859 -0.0541  0.1106  0.2181
21201W        W37335  13.702  17.093   1.834  0.0816 -0.1611  0.1492
21202W        W37336  16.724   8.529  14.221  0.2164  0.0306  0.2933
21203W        W37337  12.410   5.549   0.797  0.0101  0.0472  0.0618
21204W        W37338  11.425  10.391   4.740 -0.3994 -0.0736  0.0752
21205W        W37339  14.298  16.489  14.073 -0.4487 -0.0079  0.0997
21206W        W37340   8.940  14.986  10.709 -0.2171 -0.3938 -0.0513
21207W        W37341  18.367   7.079   3.776  0.1983 -0.1148  0.2245
21208W        W37342  15.608   8.707   4.228 -0.3430  0.0727 -0.1782
21209W        W37343  13.524   3.475   9.485 -0.2267 -0.0398 -0.1937
21210W        W37344  10.696   3.040   3.303 -0.2953  0.0736  0.2178
21211W        W37345  17.588  12.052  12.755 -0.4308  0.0304 -0.0235
21212W        W37346  12.453   2.846  14.467 -0.2750  0.3104  0.2891
21213W        W37347  18.979  10.729   4.899 -0.3366 -0.0332  0.1889
21214W        W37348  12.307  16.340   3.360  0.1633 -0.0113 -0.0300
21215W        W37349   0.068  11.703  12.739 -0.2306 -0.0515  0.1375
21216W        W37350   6.906  14.738  12.578 -0.3270 -0.0916 -0.2622
21217W        W37351   5.934  11.206   4.060 -0.2270  0.2546  0.0113
21218W        W37352  12.887  18.801   0.936 -0.0419 -0.0008  0.0123
21219W        W37353  16.556  17.184   3.012 -0.3401 -0.3949 -0.0693
21220W        W37354   6.912  13.003   3.763  0.0695  0.0439 -0.3878
21221W        W37355   2.586  18.426   5.805  0.3740 -0.3102  0.0198
21222W        W37356   5.556   9.593   3.720  0.1222  0.0301 -0.0686
21223W        W37357   7.180  13.386  13.683  0.1914  0.1383 -0.0114
21224W        W37358  11.532  18.091  12.628 -0.1344  0.1495  0.4524
21225W        W37359  18.337   4.079   3.252  0.1851  0.2762  0.1268
21226W        W37360   4.306  18.880   3.208 -0.0324 -0.4012  0.2127
21227W        W37361  11.100  18.519   3.257 -0.5459 -0.4019 -0.1578
21228W        W37362   4.949  10.266   2.207 -0.0465  0.0286 -0.0236
21229W        W37363  11.055  16.807   4.356  0.0132 -0.2357  0.1288
21230W        W37364  14.495  18.311   1.681  0.1103  0.0624  0.2133
21231W        W37365   2.723  11.394   2.020 -0.1657  0.1189 -0.0927
21232W        W37366  13.896   8.811  14.602  0.0246  0.2056 -0.0937
21233W        W37367   6.970  16.273   1.716 -0.0320  0.2605  0.1019
21234W        W37368  16.753   7.998   2.853  0.0756  0.1183  0.2256
21235W        W37369   2.735   3.219   3.713  0.0923 -0.1108  0.2151
21236W        W37370  14.152  10.510  11.098  0.1028  0.0111  0.4460
21237W        W37371   8.157  15.299   0.879 -0.0117  0.0165  0.1115
21238W        W37372  16.032  13.168   1.687  0.1215 -0.0364 -0.1431
21239W        W37373   4.179   4.163   1.798 -0.3699 -0.0899 -0.0995
21240W        W37374  16.793  11.359  11.855  0.0628  0.0318  0.2318
21241W        W37375   3.274   0.569  13.908 -0.1285  0.3127  0.0023
21242W        W37376   3.851   2.569  12.352 -0.0359  0.1301  0.2252
21243W        W37377   8.538   8.317  13.137  0.0596  0.5129 -0.2010
21244W        W37378   6.415  12.892  14.146 -0.1256 -0.0369  0.0119
21245W        W37379   8.970   0.999  10.683 -0.0697  0.1979  0.1143
21246W        W37380  13.855  18.032   1.481  0.0424 -0.1549 -0.1127
21247W        W37381   2.524   0.343  13.852  0.2461  0.0964  0.1622
21248W        W37382   9.225  15.360   2.196 -0.2903 -0.1342  0.3723
21249W        W37383   4.535   6.827   3.869  0.0011  0.0559  0.0126
21250W        W37384  12.997   0.963   2.817  0.0856  0.0836 -0.1973
21251W        W37385  12.083   4.808  15.018 -0.2329 -0.1447  0.0346
21252W        W37386  13.535   9.212  11.378  0.1013  0.0125  0.0094
21253W        W37387   9.152  17.840   3.027  0.1225  0.0353 -0.0031
21254W        W37388   1.081  11.568   4.744  0.2767 -0.2065 -0.0074
21255W        W37389   8.169  13.962  11.013 -0.4144  0.1955  0.0100
21256W        W37390  18.745   8.383   0.460  0.3977  0.3360  0.0862
21257W        W37391  13.431  15.282   0.571 -0.1475 -0.0786  0.0691
21258W        W37392  12.761  12.750   0.569 -0.1162  0.1602  0.2974
21259W        W37393  14.441   2.159  11.455  0.3748  0.1249 -0.1176
21260W        W37394  14.517  11.847  11.044 -0.1316 -0.1112  0.0932
21261W        W37395  12.908  12.120  14.073  0.0125  0.1210 -0.0408
21262W        W37396  18.918   2.150   0.554  0.2445  0.1591 -0.4089
21263W        W37397  16.795   3.809   1.404 -0.0506  0.1426  0.1443
21264W        W37398  17.410   9.894   2.442 -0.0835 -0.3402 -0.0892
21265W        W37399  14.282   2.661  14.215  0.2791 -0.4061  0.3841
21266W        W37400   2.444   2.835  10.809  0.1496 -0.0118  0.2624
21267W        W37401  15.550  11.532  14.859  0.1483 -0.0982  0.0839
21268W        W37402  15.724   2.305   5.384 -0.1469 -0.0021  0.4587
21269W        W37403   5.960  13.337   2.026  0.2757 -0.0495 -0.2581
21270W        W37404  15.522   6.876  14.819 -0.0843  0.2215 -0.2086
21271W        W37405  18.565   6.720  10.682  0.3597  0.0730  0.2740
21272W        W37406   0.316  11.123  11.376  0.2471  0.0540 -0.2398
21273W        W37407   2.341   1.442   0.624  0.4443  0.2139 -0.1491
21274W        W37408   5.192  17.014   1.465  0.4176  0.1796 -0.3831
21275W        W37409  13.090   3.779  14.249 -0.1367  0.0699  0.0719
21276W        W37410  14.410   0.054   3.980  0.0372 -0.1729  0.0118
21277W        W37411  14.198   3.447  14.937 -0.3696 -0.1131 -0.0802
21278W        W37412   5.799   6.449  14.782  0.3139  0.1644 -0.0045
21279W        W37413  12.429  15.709  10.781 -0.0280 -0.1167  0.3774
21280W        W37414   9.885  17.384  11.949  0.0051 -0.3574 -0.0717
21281W        W37415  18.090   6.615   0.500 -0.2569  0.1744  0.0883
21282W        W37416  16.393   8.499   1.791  0.0888 -0.1785 -0.2092
21283W        W37417   1.069  13.237  10.657  0.0374 -0.2927 -0.0211
21284W        W37418  18.705  15.266  12.932  0.2275  0.0023 -0.1049
21285W        W37419   7.224  10.985   2.418  0.0026  0.3178 -0.1800
21286W        W37420   5.443  13.470   0.640 -0.1675  0.2106 -0.2013
21287W        W37421   0.183   2.390  13.352  0.1438  0.1591 -0.0268
21288W        W37422  15.053  10.026   3.196 -0.3857  0.1796  0.0979
21289W        W37423   4.261  10.450  13.871 -0.2381 -0.1725 -0.2319
21290W        W37424   4.600   7.812  10.807  0.0980 -0.0328  0.1986
21291W        W37425   5.345  11.283   3.499  0.1797  0.1451 -0.0399
21292W        W37426  15.575  12.890   2.332  0.0020  0.1759 -0.1560
21293W        W37427   8.873   8.195   5.824 -0.4182 -0.3459 -0.0617
21294W        W37428   9.091   4.796  12.050  0.0705  0.0101  0.2546
21295W        W37429   4.665   5.341  14.659 -0.1284  0.1520 -0.0496
21296W        W37430  17.150  14.656  13.001  0.0757  0.0682  0.3682
21297W        W37431  18.354   3.604   4.650 -0.2714  0.2029  0.1005
21298W        W37432  17.678   7.147   3.478  0.3080  0.1625 -0.0300
21299W        W37433  14.953  10.160  11.108 -0.1355  0.1360 -0.0544
21300W        W37434   4.687   5.535  10.218 -0.0184 -0.1727 -0.1454
21301W        W37435  18.544   5.910   2.730  0.1161  0.1812 -0.1093
21302W        W37436   7.360  12.388  11.196  0.1612 -0.0675 -0.0451
21303W        W37437  14.521  16.315  11.652 -0.1134  0.1635  0.2258
21304W        W37438  18.290  16.355   4.429  0.1813  0.0201 -0.1063
21305W        W37439  12.515  10.127   3.109 -0.0435  0.0114  0.1117
21306W        W37440  15.114  11.147   9.232  0.2633 -0.3634 -0.0791
21307W        W37441  10.798   2.169   1.598 -0.2442  0.1156  0.2322
21308W        W37442   4.460  14.355  14.938  0.0261 -0.0538  0.0241
21309W        W37443   6.688   4.087  13.543 -0.0788 -0.0249  0.2606
21310W        W37444   0.145   8.944   0.377  0.1651 -0.1295  0.0122
21311W        W37445   7.317  13.824  12.274 -0.0234 -0.1473  0.0615
21312W        W37446  16.738  12.406  11.105 -0.1013  0.0017 -0.2462
21313W        W37447  18.608   7.890   4.292  0.0723 -0.3032  0.3979
21314W        W37448   8.937   3.422  12.487 -0.1356  0.1326  0.1741
21315W        W37449  15.284  18.721   0.063 -0.2225  0.1097 -0.3204
21316W        W37450  10.838   2.849   2.342  0.1248 -0.1207  0.0301
21317W        W37451   3.757  14.890   2.560 -0.0902  0.3097  0.0824
21318W        W37452   5.430  16.083  11.641 -0.0450 -0.0310  0.2426
21319W        W37453   1.525   6.354   4.706  0.1869 -0.1710  0.2354
21320W        W37454  13.286  18.518  12.354 -0.1188  0.1716 -0.1151
21321W        W37455   8.897  18.111   3.755 -0.1472 -0.1457 -0.0190
21322W        W37456   7.296  15.161  12.684  0.1446  0.0246 -0.0867
21323W        W37457   5.064   5.788  10.633 -0.3033 -0.0939 -0.1894
21324W        W37458  17.098  11.673   2.275  0.2667  0.0507 -0.0997
21325W        W37459   9.589   0.386  11.534 -0.0887 -0.3225  0.1269
21326W        W37460   9.957   8.312  14.561  0.1194 -0.2934 -0.0144
21327W        W37461  14.345  10.555   3.353 -0.2755  0.0997  0.1565
21328W        W37462   1.405  15.972  13.773 -0.2401 -0.0284  0.2497
21329W        W37463  12.279   8.274   1.126 -0.3469 -0.0845  0.0587
21330W        W37464   2.580  14.652  15.162 -0.1458 -0.1308  0.5404
21331W        W37465  15.693  13.124  13.456  0.0724  0.2015 -0.0892
21332W        W37466   3.230   9.556  13.203  0.0112 -0.2068 -0.1602
21333W        W37467   3.056   8.725  12.570 -0.1643  0.1401  0.0876
21334W        W37468   7.670  15.718  11.044  0.0406  0.5515  0.4255
21335W        W37469   6.579   3.948   0.776 -0.2514 -0.3211  0.2357
21336W        W37470  10.449  12.922  14.287 -0.1220  0.1338  0.0590
21337W        W37471   3.749  17.940   3.587  0.2340 -0.0584  0.0497
21338W        W37472  10.089   6.918  13.990  0.1020  0.0416 -0.2643
21339W        W37473   2.132  16.267  12.852  0.2969 -0.0857  0.0935
21340W        W37474   6.418   3.217  14.833  0.1800 -0.0032 -0.2775
21341W        W37475   8.640   6.103  14.186 -0.1942 -0.0591  0.1302
21342W        W37476  16.436   4.456   2.829  0.1676  0.1145  0.2652
21343W        W37477  11.774   6.354   4.998  0.6428 -0.0515  0.0228
21344W        W37478   4.053  17.748   4.389 -0.1576 -0.0954  0.1406
21345W        W37479   7.841  12.415   5.036 -0.0648  0.0420  0.2117
21346W        W37480  17.768  13.206   1.612 -0.0677 -0.2354 -0.2353
21347W        W37481   4.169  18.702  10.651 -0.1623 -0.4042  0.0310
21348W        W37482   2.235   9.859  13.096  0.1246 -0.3489 -0.1028
21349W        W37483  11.312   2.836   3.160 -0.1123  0.2102 -0.0655
21350W        W37484  15.749  11.958   3.494 -0.1796 -0.0751 -0.2010
21351W        W37485  17.847   0.023  12.973 -0.0223  0.0601 -0.1442
21352W        W37486  17.471   9.297   0.341 -0.0908  0.1038  0.0606
21353W        W37487   6.556  13.388  14.483 -0.1559  0.0009  0.1178
21354W        W37488   8.385   4.664  11.052 -0.0638 -0.0341  0.0342
21355W        W37489  16.925  10.412  11.355  0.3064  0.1076  0.1340
21356W        W37490  16.999   8.184   4.200 -0.1126  0.3159  0.1689
21357W        W37491   1.956   6.154  12.426  0.1894 -0.2427 -0.0890
21358W        W37492  18.525   6.851  13.341 -0.3085  0.2490  0.2251
21359W        W37493   9.559  16.070   3.441  0.1572 -0.2072 -0.1790
21360W        W37494  17.889   8.512   1.445  0.2641 -0.0245 -0.0806
21361W        W37495   7.222  18.031   0.848  0.0773  0.1069  0.0269
21362W        W37496  18.693   7.295  14.543 -0.0397 -0.0921 -0.1737
21363W        W37497   7.310  15.901   3.511  0.1566 -0.3037 -0.0198
21364W        W37498  17.336  14.788  11.365 -0.2367 -0.0152  0.0182
21365W        W37499   1.717   6.347  11.630 -0.0170  0.0028 -0.1664
21366W        W37500  18.967   9.845  14.949 -0.0838  0.1857 -0.1971
21367W        W37501   4.349  17.111   3.869  0.0359 -0.4722  0.3186
21368W        W37502   6.366   1.475   4.485 -0.1293 -0.2868  0.1094
21369W        W37503   4.101  16.010  14.079 -0.1742  0.0220  0.2818
21370W        W37504   1.447   2.968   3.025  0.2201  0.1061 -0.1540
21371W        W37505   4.197   3.230  14.579  0.1514  0.0186  0.0204
21372W        W37506  11.626  15.329  13.423 -0.4410 -0.1357  0.3524
21373W        W37507   9.580  18.168   4.203  0.2084 -0.0906  0.3403
21374W        W37508   4.096  16.716  12.984  0.2234 -0.3073  0.1452
21375W        W37509   9.108   2.454   0.143  0.0798  0.0666 -0.1567
21376W        W37510  11.934  17.543   3.037  0.0254  0.1950  0.0259
21377W        W37511  11.388  18.024   4.271  0.0058 -0.3112 -0.2189
21378W        W37512  11.680   4.939  11.838  0.0915  0.3332  0.1454
21379W        W37513   2.434   3.053   1.310  0.4210  0.1934 -0.0300
21380W        W37514   5.372   0.935   2.290  0.2776  0.1014  0.0845
21381W        W37515  17.495  12.735   1.644 -0.0745 -0.0646 -0.1113
21382W        W37516  15.656  13.903  14.860  0.0854 -0.1283  0.0453
21383W        W37517   0.522   0.211   1.702  0.2419  0.2099  0.3284
21384W        W37518  18.662   0.503  14.436 -0.0313 -0.2055  0.1833
21385W        W37519   2.027   3.354  12.714  0.0023  0.1104  0.0851
21386W        W37520  10.357  15.472   4.439  0.0963 -0.0242 -0.1037
21387W        W37521  13.560   8.521  12.502 -0.3812  0.1717 -0.4046
21388W        W37522  10.121   7.407  13.237  0.0194  0.0317 -0.4203
21389W        W37523  12.215   1.928   1.364 -0.1644 -0.1665 -0.0397
21390W        W37524   1.005   6.166   0.341 -0.1638 -0.0825  0.1484
21391W        W37525   3.457  17.068   1.665  0.1453 -0.2626 -0.0490
21392W        W37526   9.804  12.911  14.370  0.0698  0.1095 -0.1353
21393W        W37527   4.545   1.715  14.212  0.0403 -0.0141 -0.4048
21394W        W37528   7.296   9.092   2.758  0.0633  0.0915 -0.2736
21395W        W37529   2.527   2.045  11.976 -0.2169 -0.0790 -0.1248
21396W        W37530   0.130  11.820   1.665  0.1672 -0.2443  0.1020
21397W        W37531   8.499  13.740  11.963 -0.1350 -0.1410  0.0730
21398W        W37532   2.995   5.965  13.548  0.2042 -0.0819 -0.0955
21399W        W37533   7.413  10.752  11.931 -0.0177 -0.0245  0.3741
21400W        W37534  10.889  12.441   4.542 -0.2641 -0.1117  0.1642
21401W        W37535   0.493  15.394   3.253  0.0389  0.2067  0.0323
21402W        W37536  16.388   5.919  14.005  0.1142 -0.0424 -0.1441
21403W        W37537  14.047   2.091  11.911  0.3119  0.1369  0.1103
21404W        W37538   6.061   3.349  10.300  0.1722  0.0437 -0.1008
21405W        W37539   3.800   9.814  13.129 -0.0728 -0.1037 -0.2857
21406W        W37540   0.858   5.167   1.905 -0.3671  0.1763  0.2681
21407W        W37541   0.684  15.567   2.364  0.1987 -0.1338 -0.3490
21408W        W37542  10.265   4.485   2.609 -0.3761  0.2881 -0.3934
21409W        W37543   8.148   6.827  10.929  0.1665  0.2957 -0.0330
21410W        W37544  15.004  17.254  14.633 -0.0714  0.0144 -0.2031
21411W        W37545  12.543   8.746   9.638 -0.1011  0.2070 -0.0235
21412W        W37546  10.131  14.633   2.040  0.0574 -0.0860 -0.4582
21413W        W37547   6.613  17.092   0.980  0.1223  0.3299 -0.0454
21414W        W37548  16.015  14.458   4.375  0.1380 -0.1806  0.3675
21415W        W37549   6.513  15.583  12.596  0.1986 -0.0599  0.1953
21416W        W37550  17.101   7.818  13.063 -0.2141  0.1869  0.1213
21417W        W37551   5.209  10.993   0.223  0.1713 -0.3063  0.2305
21418W        W37552  17.901   7.636   3.485  0.0043 -0.0049 -0.0994
21419W        W37553   0.336  15.303  14.085  0.2858 -0.1209  0.0358
21420W        W37554  13.075   3.433   1.738 -0.1873 -0.1413 -0.1154
21421W        W37555  11.848   3.929  13.856  0.1975 -0.1422  0.3755
21422W        W37556   0.282  13.355  12.727 -0.0120 -0.1473  0.0137
21423W        W37557  12.118  18.405   0.603 -0.0138  0.1014 -0.0863
21424W        W37558  12.012  16.457   0.315  0.2616  0.0681  0.0587
21425W        W37559   6.813  15.923   2.664 -0.0006 -0.2445 -0.2202
21426W        W37560   9.138  16.575   0.811 -0.0115  0.2925 -0.0438
21427W        W37561   8.928  10.524   3.115  0.1837 -0.2371 -0.0994
21428W        W37562  12.360   3.919  13.018  0.0214 -0.0837  0.1063
21429W        W37563  12.869  17.594   9.651  0.0441 -0.1584 -0.0044
21430W        W37564  11.994   0.131  13.186  0.1692 -0.0636  0.1706
21431W        W37565   7.886  15.555  11.834  0.3651  0.1805  0.1123
21432W        W37566   4.401   1.319   0.973 -0.4045 -0.1310 -0.0382
21433W        W37567   6.999   2.408   1.977 -0.0400  0.3025  0.0683
21434W        W37568  14.498  17.545  10.437 -0.2067  0.0533 -0.0729
21435W        W37569  14.265  10.943  12.324 -0.0517  0.0842  0.1432
21436W        W37570   9.574   1.431  13.733  0.2103 -0.0490 -0.0648
21437W        W37571   0.984  16.354  13.570  0.0461  0.0016  0.2000
21438W        W37572  16.749   5.053  11.096 -0.0782 -0.3564  0.2341
21439W        W37573   1.168   4.877  12.290  0.0331  0.1699  0.0391
21440W        W37574   2.700  18.964   4.116 -0.0950  0.2784 -0.1107
21441W        W37575  12.854   2.545   1.591  0.1285 -0.1143 -0.1460
21442W        W37576   4.739  14.133   3.847  0.1064  0.3616 -0.3050
21443W        W37577   0.052  11.216   3.569  0.0121  0.0340  0.1238
21444W        W37578  12.242   9.235  11.632 -0.1819  0.3028 -0.0895
21445W        W37579  13.873   5.987  12.603 -0.3277  0.0679 -0.3323
21446W        W37580   0.401  14.447  15.143  0.1062  0.1212  0.2353
21447W        W37581  18.316  13.222   4.455  0.1003 -0.5560 -0.4098
21448W        W37582   2.637  17.741   5.323 -0.0745 -0.0300  0.3053
21449W        W37583  18.747   9.373  15.159 -0.5320  0.0051  0.6278
21450W        W37584   8.448  18.199  14.294 -0.3052  0.2338  0.2164
21451W        W37585   1.379   9.238   3.238 -0.2146 -0.0198  0.0313
21452W        W37586   6.313   7.341  10.467 -0.0333 -0.2654 -0.2161
21453W        W37587   2.138   6.972  12.442  0.1207  0.1800  0.1837
21454W        W37588  12.474  12.798  14.189  0.1071  0.2658 -0.0325
21455W        W37589  16.078  10.333   3.315 -0.0388 -0.0783  0.1408
21456W        W37590   1.028   4.180  13.043 -0.0619  0.2646 -0.0347
21457W        W37591  14.593  11.315  12.374 -0.2236  0.0856  0.1660
21458W        W37592   1.542  18.129   9.931 -0.2528 -0.0681 -0.2766
21459W        W37593  16.601   1.921   5.136  0.3267 -0.2582  0.3443
21460W        W37594  11.508   0.704   1.432 -0.2705  0.0692  0.1661
21461W        W37595   9.758   9.152  12.408 -0.3772 -0.0286 -0.1007
21462W        W37596  14.907   8.740   0.695 -0.3210 -0.1848 -0.0406
21463W        W37597  17.783  11.991   1.501  0.3226  0.0837  0.2798
21464W        W37598   1.575   1.927  11.084  0.2035 -0.2101 -0.0924
21465W        W37599   3.742   7.892  11.345  0.1006  0.1644  0.0380
21466W        W37600  17.687   8.403  11.621 -0.2801  0.2525  0.0739
21467W        W37601  14.251  10.215  14.919  0.0966  0.0674 -0.1823
21468W        W37602  17.447   6.201  11.107 -0.2742  0.2015  0.2001
21469W        W37603  11.309  17.199  14.781  0.1789  0.0422 -0.0326
21470W        W37604   7.824   8.681  14.825 -0.0355 -0.1472  0.2091
21471W        W37605   0.492   5.765  11.529  0.1457 -0.2483 -0.3346
21472W        W37606   8.509  17.472   5.454  0.0153  0.0460  0.0009
21473W        W37607  13.763  14.523  12.679 -0.0880  0.0078 -0.0394
21474W        W37608   1.797   0.543  10.561 -0.3140  0.4213  0.2611
21475W        W37609  10.769  11.641   2.436 -0.1953  0.1932 -0.2608
21476W        W37610   0.251   5.160   4.276 -0.0168 -0.2085 -0.0692
21477W        W37611  12.308  11.268   1.609  0.0059 -0.0466  0.0460
21478W        W37612   2.733   4.968  11.516 -0.0781 -0.0619 -0.2073
21479W        W37613  14.359  14.198   4.486 -0.1656  0.3057 -0.1498
21480W        W37614  12.701  12.874   2.735 -0.1725  0.1716 -0.1122
21481W        W37615  17.153  14.622   2.360 -0.3759  0.1761  0.1422
21482W        W37616  11.059   9.499   2.086  0.2101 -0.6876  0.3415
21483W        W37617   1.341  12.684  14.671  0.0378  0.3285  0.0759
21484W        W37618   9.788  16.090  12.621 -0.0927  0.0059  0.2441
21485W        W37619  15.992   0.595   4.872 -0.1732 -0.2868  0.3025
21486W        W37620  11.900  13.134  11.038 -0.2942 -0.2187 -0.1734
21487W        W37621  10.740   2.969  13.025  0.0101 -0.0506 -0.0999
21488W        W37622   1.089  15.936  12.176  0.0610  0.1409 -0.0960
21489W        W37623  12.895  10.545  10.541 -0.0010  0.1786  0.0416
21490W        W37624  17.142   8.682  13.826 -0.0313  0.2287  0.0901
21491W        W37625   1.291   3.392  11.250 -0.3100  0.2397 -0.0493
21492W        W37626  18.792   8.246   2.897  0.1126 -0.0656  0.1033
21493W        W37627  15.468  10.611  11.975 -0.3178  0.0734  0.4380
21494W        W37628  15.166   7.991  11.213 -0.0762  0.0863  0.0445
21495W        W37629   3.555   6.917  12.417 -0.0798 -0.1456 -0.1633
21496W        W37630   6.297   5.619  14.843 -0.1491  0.1795 -0.0245
21497W        W37631   8.583   3.842   4.505 -0.0818  0.0342  0.0610
21498W        W37632   8.939  14.893  14.554  0.1564 -0.0136 -0.0861
21499W        W37633   8.220  18.607  10.728 -0.0740  0.1403  0.2947
21500W        W37634   1.961  12.879  14.763  0.0282 -0.0919  0.0784
21501W        W37635  12.281  12.124  10.315 -0.1088  0.0276 -0.2869
21502W        W37636   5.951  16.982  14.229 -0.0554 -0.2009  0.0028
21503W        W37637  16.955   0.821   0.545 -0.0245 -0.2649  0.1680
21504W        W37638  18.685  14.146  11.476 -0.5886 -0.1584 -0.2234
21505W        W37639   1.418  13.515   3.779 -0.4468 -0.3067  0.3537
21506W        W37640  12.490  12.413  14.968  0.3345 -0.2035  0.0117
21507W        W37641  14.488  14.371   1.768 -0.0473  0.2491 -0.0221
21508W        W37642  11.880   4.766   2.233 -0.2752 -0.0465 -0.1642
21509W        W37643  16.101   2.480   0.012 -0.0432  0.2557 -0.0749
21510W        W37644   3.133  14.621   3.212 -0.1728  0.1191  0.0076
21511W        W37645  13.498   2.853   0.166  0.2797  0.3679  0.2652
21512W        W37646   0.190  11.139   9.915 -0.2038  0.0763 -0.0265
21513W        W37647  13.633   7.999  13.782 -0.0422 -0.1600  0.2131
21514W        W37648  13.052   4.308   2.917 -0.1402  0.0442  0.1248
21515W        W37649   2.101  12.162   0.886  0.1626  0.3106  0.1588
21516W        W37650  18.848  14.691  14.099  0.3727  0.2288 -0.0537
21517W        W37651  10.416  14.349   2.997 -0.1533  0.0952  0.3142
21518W        W37652   7.008  11.885  11.159 -0.0805 -0.1436 -0.0377
21519W        W37653   4.460  16.688   0.674  0.0019 -0.1253 -0.0085
21520W        W37654  10.625   8.522   5.119 -0.0873  0.3318  0.0028
21521W        W37655  12.301   5.720  11.775  0.0226  0.0393 -0.0261
21522W        W37656  11.341  14.059  10.761  0.0331 -0.0794  0.0387
21523W        W37657  17.668   6.222  13.395  0.2729 -0.0192 -0.0638
21524W        W37658   0.636  15.190   0.999 -0.1983  0.3348  0.3312
21525W        W37659  11.878   0.400   1.172  0.1120  0.2317 -0.0349
21526W        W37660   0.627  11.301   3.613  0.1857  0.2143  0.3008
21527W        W37661  17.801  15.755  12.427 -0.0846 -0.1615  0.1652
21528W        W37662  16.508   8.316   2.532 -0.1415 -0.3414  0.3315
21529W        W37663   7.191   1.462   0.599  0.1009 -0.1299 -0.1167
21530W        W37664   2.494   3.485   2.827  0.4004 -0.0075  0.0500
21531W        W37665   5.117  11.387  11.052  0.0586 -0.0158  0.1508
21532W        W37666   9.202  11.298  11.614 -0.0641 -0.0468 -0.4432
21533W        W37667  10.455   4.114  10.917  0.1489  0.1382  0.0644
21534W        W37668   5.565   0.974  14.404  0.0380 -0.0285  0.6162
21535W        W37669   6.118   6.823  14.648 -0.3633  0.0716 -0.1085
21536W        W37670   2.459   7.947   4.993 -0.2889  0.4301  0.3585
21537W        W37671  12.688   3.222   4.854  0.0845  0.1662  0.2747
21538W        W37672  13.612   6.381  11.222 -0.1997  0.1583  0.0785
21539W        W37673  14.369  11.779  12.515 -0.2785  0.1383  0.0594
21540W        W37674  14.368  13.241  14.307 -0.1683 -0.2177 -0.1054
21541W        W37675   2.296   5.397  15.010  0.1701 -0.2699  0.1268
21542W        W37676   2.423   5.838  12.401  0.4023  0.0868 -0.1043
21543W        W37677  17.312  16.074   1.055 -0.1430  0.1335  0.0430
21544W        W37678   7.851  18.992  11.309  0.0833  0.0413  0.1349
21545W        W37679   5.026  16.244  13.077  0.1316 -0.1482 -0.0564
21546W        W37680  19.077   0.204   3.473  0.2728  0.1364 -0.0459
21547W        W37681   5.984   8.451   0.421 -0.0976  0.0946  0.0208
21548W        W37682   4.762  12.050   0.276  0.2219 -0.0741  0.0920
21549W        W37683   0.520  19.042   3.471  0.0205  0.0515  0.0533
21550W        W37684   8.237   7.972  14.388  0.1130 -0.1611 -0.1940
21551W        W37685  12.814  18.034   3.720 -0.2802  0.2296 -0.2539
21552W        W37686  14.638  12.793  11.798 -0.1260 -0.1100 -0.2336
21553W        W37687   5.828  10.686   5.751 -0.2143 -0.1517 -0.0969
21554W        W37688  13.728   2.351  12.602  0.0882  0.0186  0.2670
21555W        W37689   6.542   3.995  12.661  0.0064  0.1864  0.2892
21556W        W37690   4.978   7.181   0.053 -0.1229  0.1400 -0.3395
21557W        W37691   0.939   6.470  13.400 -0.0159 -0.1331 -0.0088
21558W        W37692   2.837   9.903   4.205 -0.0373  0.1123 -0.0169
21559W        W37693   2.419   8.798   2.175 -0.0755 -0.0085 -0.1533
21560W        W37694  17.547   2.059   2.541 -0.3637 -0.0360 -0.2046
21561W        W37695   8.977  17.769   9.968  0.1597  0.0615  0.2265
21562W        W37696   7.105  14.464   3.650  0.0585  0.0475 -0.0450
21563W        W37697   1.555  10.388   2.727  0.0162  0.0212 -0.2883
21564W        W37698  11.731   3.459  11.543 -0.1774 -0.3890  0.2973
21565W        W37699  16.808   2.234  12.309  0.4707  0.1427 -0.0168
21566W        W37700  12.036  17.008   4.030 -0.1883  0.0933 -0.1299
21567W        W37701  17.245  18.255   2.158 -0.0780  0.3398 -0.1381
21568W        W37702   3.826  13.895   0.370 -0.3652  0.2333  0.3025
21569W        W37703  17.964  16.390  13.323 -0.0242  0.0329 -0.1402
21570W        W37704   3.759   4.090   0.243  0.3497 -0.0991 -0.2079
21571W        W37705   8.949   6.763  11.682  0.0663 -0.0995  0.4671
21572W        W37706   1.682   3.613  10.597  0.1101 -0.0742 -0.0837
21573W        W37707  17.650  18.204  13.275 -0.6096 -0.1055  0.0085
21574W        W37708  17.529  11.450  13.549 -0.1198  0.1728  0.1115
21575W        W37709   1.874   7.651   4.734 -0.1463 -0.0875 -0.0517
21576W        W37710   5.790  18.673  10.751 -0.3027 -0.2455  0.0620
21577W        W37711  15.296  14.579  12.104  0.1243  0.1358  0.0220
21578W        W37712   3.597  13.972   1.739 -0.2666 -0.1076 -0.1904
21579W        W37713   0.300   0.170   3.856 -0.1078  0.1200 -0.1337
21580W        W37714  12.903   5.234   0.834  0.0460 -0.0292  0.1040
21581W        W37715  11.175   0.347  11.655  0.2424 -0.1627  0.2310
21582W        W37716   0.142  12.244  14.000 -0.1125 -0.3209 -0.0826
21583W        W37717  13.646  18.774   5.348  0.1841 -0.1752 -0.1491
21584W        W37718  17.984   7.175  14.991  0.1474 -0.0627 -0.0918
21585W        W37719   2.530  14.801  12.511  0.0530 -0.0569  0.1683
21586W        W37720  13.880  16.746  14.334  0.3731  0.2198 -0.2177
21587W        W37721   2.675  10.043   5.056  0.2227 -0.1728  0.1598
21588W        W37722  18.475  12.690  12.879 -0.0913 -0.0192  0.2354
21589W        W37723  12.147   3.136  11.350  0.0775  0.1971 -0.0936
21590W        W37724  15.702  15.031  10.705  0.2979 -0.0413  0.0171
21591W        W37725   9.935  15.267   2.766  0.1382 -0.2524  0.1066
21592W        W37726   1.652   6.693  11.223  0.0458  0.1710  0.1052
21593W        W37727  14.803   7.639   2.704 -0.0095 -0.4210  0.0590
21594W        W37728  14.503   2.673   2.774  0.0588  0.1915 -0.2829
21595W        W37729  13.162   3.445  14.958 -0.1397 -0.0063 -0.1971
21596W        W37730   3.688  17.668   1.728 -0.1442  0.2422  0.1792
21597W        W37731  17.856   3.566   4.544  0.2947  0.1417 -0.1702
21598W        W37732   6.653  14.765  13.911 -0.1138  0.2204 -0.2838
21599W        W37733   8.291   4.502   5.180  0.1411 -0.0422  0.0624
21600W        W37734  18.485  17.867   0.804 -0.3047  0.0905 -0.0751
21601W        W37735   2.214   1.074   1.173 -0.0483  0.1299 -0.1072
21602W        W37736   7.550  14.734  11.802 -0.1439 -0.0834 -0.2813
21603W        W37737  13.213   2.905  13.250  0.3101  0.0932 -0.1007
21604W        W37738   4.591   8.621   5.517 -0.0073 -0.1368  0.2532
21605W        W37739  16.884   6.588  13.685  0.2529 -0.3237 -0.0849
21606W        W37740   2.849   0.139  11.210 -0.0992 -0.4018  0.0972
21607W        W37741   6.134  18.741   1.577  0.0904 -0.1052  0.2483
21608W        W37742  16.008   0.731   6.153  0.0449 -0.2145  0.0524
21609W        W37743  15.179   3.238   2.847  0.0429  0.1115 -0.0800
21610W        W37744   9.172   7.168   1.694 -0.0910  0.1746 -0.2572
21611W        W37745   9.231   7.456  12.480  0.2244  0.4163 -0.0285
21612W        W37746  11.099  10.474   0.370  0.0732  0.0157 -0.3272
21613W        W37747   3.061  12.674   3.096 -0.0554 -0.1485 -0.2848
21614W        W37748   8.263  16.613   4.255 -0.1054 -0.0053  0.0121
21615W        W37749  18.605  18.041   4.797  0.2067  0.3397  0.0550
21616W        W37750   0.766   5.170  13.092 -0.0061  0.4584 -0.4732
21617W        W37751  17.673   9.670  12.870 -0.0737  0.1710  0.0745
21618W        W37752  14.359  13.415   0.879  0.0329 -0.0685 -0.1477
21619W        W37753  12.450   5.395   1.755  0.1329 -0.2650  0.1955
21620W        W37754   8.619   0.825  13.615  0.0800 -0.1097  0.3161
21621W        W37755  18.519   6.662  14.699  0.4478  0.2170 -0.2450
21622W        W37756   9.725  14.999  12.927 -0.2603 -0.0931  0.1935
21623W        W37757  19.072   7.185   2.123 -0.1236 -0.3870 -0.0726
21624W        W37758   6.795  14.019   0.332 -0.2941 -0.0473  0.1865
21625W        W37759   8.456  17.891   1.634  0.1736 -0.0785 -0.1155
21626W        W37760   7.817   2.504  12.870 -0.0161  0.1116  0.0837
21627W        W37761  15.848  13.019   4.154 -0.0610  0.2897  0.0442
21628W        W37762  14.684  18.308   4.503  0.0996 -0.1195 -0.1059
21629W        W37763  16.253   9.405   1.412  0.0348 -0.2100  0.1373
21630W        W37764   7.427  17.649   4.415 -0.0394  0.3067  0.0297
21631W        W37765   1.421   9.965  12.096  0.2561  0.1753  0.0021
21632W        W37766   7.376   5.833   0.981 -0.0023  0.0934  0.1054
21633W        W37767   0.250   6.630   2.742  0.0409 -0.0215 -0.1364
21634W        W37768   6.809  13.987  14.135  0.1359  0.0734 -0.1191
21635W        W37769   5.953   0.916  10.728  0.1433 -0.0890  0.2992
21636W        W37770  14.519  12.349   3.774 -0.1312 -0.0097  0.1308
21637W        W37771   9.387   8.944   5.633  0.1007 -0.1909 -0.0475
21638W        W37772   2.629  13.987   1.586 -0.0031 -0.0373  0.2399
21639W        W37773  16.271  18.535   4.360  0.3496  0.1244 -0.1513
21640W        W37774   6.779  17.233   3.262 -0.1162  0.0121  0.3678
21641W        W37775  14.907  14.218   1.960 -0.2929 -0.1131  0.0406
21642W        W37776  17.927  11.869   9.631  0.1420  0.1275  0.1332
21643W        W37777   8.181   7.650  14.883 -0.2093 -0.1873 -0.2793
21644W        W37778   8.831   4.897   0.074  0.1380  0.0672  0.1251
21645W        W37779   4.105  11.534   9.910 -0.3523 -0.0751  0.2843
21646W        W37780  18.953  13.709  13.977 -0.1597 -0.0356 -0.3007
21647W        W37781  16.664   1.012  14.908  0.3686  0.0442  0.0625
21648W        W37782   2.418   5.196  11.128  0.2051 -0.3395 -0.1538
21649W        W37783   1.545   9.828  13.603  0.3144  0.2365  0.2124
21650W        W37784  17.877   2.272   1.303  0.2200  0.2414 -0.3308
21651W        W37785   4.777   9.109  14.957  0.0171  0.1685 -0.0599
21652W        W37786   7.649  17.399   4.006  0.1321 -0.1736 -0.3238
21653W        W37787   7.617   7.559   0.059  0.0765  0.1239 -0.0371
21654W        W37788   9.897   9.579  14.910  0.1282 -0.2905  0.1102
21655W        W37789  11.187   9.698   5.109 -0.0105  0.6199 -0.2679
21656W        W37790  10.324  12.386   1.020 -0.2986 -0.0935 -0.0072
21657W        W37791  10.879  19.073   2.596 -0.4314 -0.1175 -0.0110
21658W        W37792   2.127  13.864   1.826 -0.0373 -0.0998  0.3477
21659W        W37793   9.413   9.317   3.419  0.0012  0.1855 -0.3871
21660W        W37794  11.311   1.154  11.363 -0.0713 -0.0608 -0.1651
21661W        W37795  12.770   1.159  14.191  0.2576  0.1698  0.0089
21662W        W37796   5.869  15.129   4.762 -0.1278  0.0471 -0.2979
21663W        W37797   4.471   2.069   1.692 -0.1868  0.0364 -0.2139
21664W        W37798  14.607   7.579   0.359 -0.1262 -0.0914 -0.0258
21665W        W37799   8.544   6.864   5.106 -0.1043  0.1042 -0.0822
21666W        W37800  18.010   3.181  10.701  0.1183  0.3111  0.0895
21667W        W37801   7.905  17.005  13.305 -0.0864 -0.1718  0.0096
21668W        W37802  11.135  11.715  13.827 -0.1052  0.1663  0.1544
21669W        W37803  14.168   0.430   5.431 -0.0317  0.0205 -0.4217
21670W        W37804  18.560   9.273   2.833  0.1206  0.1133 -0.1919
21671W        W37805   3.244   0.901   0.223 -0.0805 -0.0317 -0.0793
21672W        W37806  14.632   0.832  12.848  0.1148  0.1704 -0.2128
21673W        W37807   3.307   4.450  14.581  0.2557  0.1295 -0.1685
21674W        W37808   5.099  18.355   2.672 -0.3433  0.1991  0.0665
21675W        W37809   2.961  17.855  13.948  0.4258  0.2129  0.0843
21676W        W37810   7.703  15.949   5.064  0.2442  0.0275 -0.2583
21677W        W37811   5.024  10.739   4.646  0.1529  0.2532  0.0268
21678W        W37812  14.454   6.479   2.895 -0.0356 -0.2680 -0.1391
21679W        W37813  15.130   3.088  11.822  0.2913 -0.2900  0.1849
21680W        W37814  13.920   2.873   5.024  0.3072  0.0197 -0.3565
21681W        W37815  15.135   5.886   2.565 -0.2185 -0.0400  0.2307
21682W        W37816  15.719   9.606  13.952 -0.0586  0.1907 -0.0361
21683W        W37817   2.674   9.572  11.752 -0.0932  0.1923  0.1828
21684W        W37818  11.606   7.163  13.345  0.1080 -0.4151  0.3389
21685W        W37819  17.721  18.122   0.426  0.0485 -0.0179  0.1119
21686W        W37820   7.348   9.417   1.003 -0.1059 -0.2258  0.1213
21687W        W37821  15.841  17.136  14.754  0.3884  0.0372  0.1990
21688W        W37822  17.958   2.952  14.134  0.0939  0.3800  0.0337
21689W        W37823   9.246  16.649  12.284  0.5105 -0.0894  0.0782
21690W        W37824  11.759  10.301  14.193 -0.3869  0.0076  0.2009
21691W        W37825  15.905  13.820  10.134  0.0394  0.2966 -0.0230
21692W        W37826   1.535   4.546   3.586 -0.1640  0.2545 -0.5643
21693W        W37827   9.900   2.235  13.230 -0.0441 -0.0316  0.1384
21694W        W37828   4.222  12.656  11.543  0.3360  0.0687 -0.0089
21695W        W37829  14.066   3.939   2.918 -0.0401  0.0433  0.1841
21696W        W37830  14.305   4.564  15.200  0.0121  0.0138  0.1392
21697W        W37831   3.042  11.051  14.719 -0.0593 -0.3054 -0.1464
21698W        W37832  10.597  12.735   2.842 -0.0213 -0.1096  0.0282
21699W        W37833  13.397   9.607  12.225 -0.0177 -0.0280  0.0597
21700W        W37834   3.684  12.208  14.488 -0.0368 -0.0700  0.4194
21701W        W37835   6.092   9.895  11.679 -0.2741  0.2399  0.1487
21702W        W37836   7.448  11.739   2.779 -0.0589  0.2391  0.0202
21703W        W37837   4.221   7.525   4.359 -0.3669 -0.0782 -0.2142
21704W        W37838   8.749   0.407   3.815  0.0699 -0.2272 -0.1171
21705W        W37839   0.626   0.441  11.519  0.1909 -0.0583 -0.0046
21706W        W37840  17.941  16.650  14.442  0.1928 -0.2394 -0.1143
21707W        W37841  18.134  10.684   3.024  0.0549  0.0050 -0.1538
21708W        W37842  11.510  16.251  10.924  0.0305 -0.2128 -0.0688
21709W        W37843  17.942  13.652  12.123  0.2052  0.2644 -0.2118
21710W        W37844   5.133  17.587  11.602  0.1351 -0.2593  0.0543
21711W        W37845  14.399  13.129   9.308  0.1569  0.0807  0.0274
21712W        W37846   7.545  10.926  13.529 -0.0981 -0.2087 -0.0675
21713W        W37847   0.316  17.832   0.667 -0.1892 -0.2243 -0.2208
21714W        W37848  18.317  11.778  13.050 -0.0354 -0.0011 -0.0135
21715W        W37849  12.647  18.235  11.948 -0.2686 -0.2747 -0.3071
21716W        W37850   7.791  15.911   3.642 -0.0497  0.5290  0.7014
21717W        W37851   4.923  19.074   3.797  0.1648 -0.3017 -0.0951
21718W        W37852  16.178   3.057  13.215 -0.1433  0.0258  0.2029
21719W        W37853  17.978   5.024  14.388 -0.0334  0.0584 -0.1729
21720W        W37854  10.870  18.938  11.764  0.0985 -0.2722  0.4287
21721W        W37855  12.215  16.570   5.336 -0.0690  0.0111 -0.1808
21722W        W37856   9.670   2.155   2.208 -0.0088 -0.1204  0.2752
21723W        W37857  13.406  15.449   1.405 -0.0271 -0.1606  0.0905
21724W        W37858  16.945   8.941  10.630  0.2428  0.2682  0.1250
21725W        W37859  10.898   1.055   5.319  0.0565 -0.3502  0.0257
21726W        W37860   7.992   1.916   0.431  0.1188  0.0333  0.2763
21727W        W37861  18.937  18.128   3.821  0.1755 -0.1913 -0.4246
21728W        W37862  13.155   0.974  13.895  0.2277  0.1050 -0.2160
21729W        W37863  14.663  15.636   1.730  0.3854 -0.0497 -0.2782
21730W        W37864   7.494   0.673  13.819  0.0128 -0.0688  0.3167
21731W        W37865  14.311  15.111  13.079  0.2735  0.0979 -0.3020
21732W        W37866   3.123   6.317   0.614 -0.0834 -0.1180  0.0864
21733W        W37867  12.650   8.507  14.720 -0.1587 -0.1797 -0.4082
21734W        W37868   1.894  11.769  13.187 -0.1297 -0.1696  0.0795
21735W        W37869  11.257   8.069   4.192 -0.0617 -0.1222  0.0500
21736W        W37870  10.903   9.374  11.354  0.1289 -0.4059  0.0619
21737W        W37871   1.935   3.336   3.772  0.0178  0.1152  0.1410
21738W        W37872   8.869   2.491  13.385  0.4233 -0.0038 -0.0370
21739W        W37873   8.063  12.568   2.665  0.2818  0.0888 -0.0329
21740W        W37874  16.087   2.641  12.872 -0.3054  0.0474 -0.2774
21741W        W37875  16.145  18.968  15.074 -0.1899  0.1592 -0.2713
21742W        W37876  14.811   7.574  11.795  0.0411 -0.1407  0.0736
21743W        W37877   9.329   9.331  14.124 -0.0710  0.0680 -0.3309
21744W        W37878   1.769   9.897   2.803 -0.1891  0.1014  0.0960
21745W        W37879  13.930  10.624  13.220 -0.1950 -0.0290 -0.3872
21746W        W37880   4.863  11.058   2.995 -0.1165 -0.3180  0.4568
21747W        W37881  14.151   6.377   1.382 -0.0558 -0.1192  0.0638
21748W        W37882   7.714  17.877   3.708 -0.2675  0.1107 -0.2107
21749W        W37883   2.705   2.010   0.389 -0.3078 -0.0383  0.0213
21750W        W37884  10.987   9.030  14.174  0.3195  0.0955  0.2685
21751W        W37885  15.495   9.937  11.111 -0.0450 -0.1000  0.1139
21752W        W37886  18.234   1.261   1.796  0.0174  0.0244  0.3461
21753W        W37887  18.483   1.576   9.938 -0.0505 -0.4558  0.1414
21754W        W37888   6.782   9.324  10.777  0.0114  0.1500 -0.1081
21755W        W37889   2.625  10.528   0.272 -0.3254 -0.0685  0.1070
21756W        W37890   4.715  13.088   9.815  0.1233 -0.0125  0.2702
21757W        W37891   7.211   9.339  14.979  0.0460 -0.1273 -0.2753
21758W        W37892  12.438  15.945   1.449  0.0500 -0.0760  0.1987
21759W        W37893   3.787  13.582   3.951 -0.2558  0.0704 -0.0278
21760W        W37894  11.477   0.498   1.908  0.0059  0.4145  0.0717
21761W        W37895   0.846   3.121  11.341 -0.3116 -0.1177 -0.0758
21762W        W37896  11.839  13.294   4.782  0.2365 -0.1945 -0.0033
21763W        W37897   9.223   0.703  10.403 -0.0275 -0.0515 -0.1088
21764W        W37898   8.393   3.855  11.546  0.0161 -0.0689 -0.0977
21765W        W37899   0.644   6.319   2.853  0.0361  0.2538 -0.1754
21766W        W37900   5.909  17.856  12.342  0.1726  0.0435  0.2279
21767W        W37901   2.146   5.647   4.294  0.0742 -0.3594  0.1283
21768W        W37902  17.824  12.797   0.362  0.1510 -0.3955 -0.0073
21769W        W37903  18.194   0.401  13.692 -0.2134  0.0819 -0.0411
21770W        W37904   6.513   6.121   3.095 -0.1803 -0.1090  0.4114
21771W        W37905  10.760   5.648   0.264 -0.0985 -0.0313  0.0983
21772W        W37906  14.446   7.684  12.101  0.0744  0.1784  0.0703
21773W        W37907   0.368  14.934  13.646 -0.0169 -0.2615 -0.1299
21774W        W37908   1.235   1.660   4.144  0.0107  0.0024 -0.2742
21775W        W37909   9.365  18.468  15.150 -0.1461  0.4740  0.0952
21776W        W37910  18.533   3.244  11.546  0.0017 -0.3886  0.0915
21777W        W37911   3.209  17.579  10.899  0.0402 -0.1732  0.4154
21778W        W37912   7.918  17.094  13.883 -0.2854  0.3173  0.0168
21779W        W37913   8.467   7.689   0.070 -0.1566  0.3089  0.1588
21780W        W37914   7.233   8.632  15.178  0.1532  0.0221  0.1167
21781W        W37915   4.104  17.460   2.438 -0.1466 -0.2376  0.0465
21782W        W37916  13.463   5.203   5.058 -0.2115  0.0717  0.2992
21783W        W37917  14.565  16.345  13.666 -0.1103  0.0653 -0.0129
21784W        W37918   0.858  18.251  15.009  0.2576  0.1123 -0.2665
21785W        W37919   1.540   5.007   4.616 -0.1496  0.0550 -0.0178
21786W        W37920   9.042   0.875   3.722  0.4095 -0.2628  0.0829
21787W        W37921  13.911   0.699  14.794  0.0053  0.0128  0.0891
21788W        W37922  10.606  12.200  11.303 -0.4220  0.0916 -0.0438
21789W        W37923   9.315  18.200  13.947  0.3088 -0.3414  0.1859
21790W        W37924   6.660  14.616   3.252 -0.1342  0.1151  0.1097
21791W        W37925   5.915   2.654  14.284 -0.1564  0.2931  0.1621
21792W        W37926   4.893   9.317  14.474 -0.0581  0.0272  0.2483
21793W        W37927   0.520  12.192   3.379  0.1382 -0.1171  0.1242
21794W        W37928   8.778   4.792   0.567 -0.4658 -0.1702  0.0408
21795W        W37929   7.938   4.725  10.736 -0.0928 -0.1944  0.0310
21796W        W37930  17.555  18.600   1.666  0.0166  0.0394  0.1047
21797W        W37931   6.926  13.738  12.580  0.1352  0.2873 -0.0747
21798W        W37932   3.768   4.249  14.019  0.1107 -0.1464  0.2203
21799W        W37933  14.306   0.366   4.402  0.2493  0.0985  0.0326
21800W        W37934   4.937   8.614   3.553  0.0736  0.1071 -0.0741
21801W        W37935   3.305  16.490   3.585  0.5113  0.2534  0.0548
21802W        W37936  12.714  10.722  13.709  0.1338 -0.1382 -0.0818
21803W        W37937   9.755  13.513   2.540  0.0645 -0.1079  0.2435
21804W        W37938   7.161   5.334   1.675 -0.3880 -0.1380 -0.0762
21805W        W37939   4.988   9.209  11.726  0.0215 -0.1295 -0.3038
21806W        W37940   5.289   2.063   0.167 -0.1367  0.1002 -0.0897
21807W        W37941   8.505   7.957  12.172 -0.3046 -0.3510  0.0277
21808W        W37942   1.445  15.039  10.160 -0.0089  0.0997  0.2373
21809W        W37943   2.693  17.050   0.753  0.0473 -0.0362 -0.0050
21810W        W37944   4.719   7.434  11.129 -0.1064 -0.0069 -0.1201
21811W        W37945   2.421  15.497   3.555 -0.0983 -0.2898 -0.2279
21812W        W37946   8.170   0.053  10.691 -0.0448 -0.0211  0.1370
21813W        W37947   5.769   4.244   9.533  0.1231 -0.2431 -0.0760
21814W        W37948  17.234   4.873  11.244 -0.0594 -0.0570 -0.2032
21815W        W37949   8.455  11.739   4.200 -0.1032  0.2105  0.2511
21816W        W37950   7.940   4.611  11.280 -0.0945 -0.0619 -0.2142
21817W        W37951   3.677  11.056  11.124  0.4555  0.3423  0.2502
21818W        W37952  15.096   3.815  14.881 -0.0644 -0.2879 -0.1535
21819W        W37953  14.224   1.885   4.756 -0.3441 -0.1063 -0.1852
21820W        W37954  10.259  15.965   0.023 -0.2911  0.1214  0.2127
21821W        W37955   4.071   6.046  14.159 -0.1617 -0.4016  0.0660
21822W        W37956  16.588   0.361  11.805 -0.2138  0.1213 -0.0375
21823W        W37957  12.431   8.315   4.755 -0.2557 -0.0447 -0.0030
21824W        W37958   0.884   2.221   4.419  0.1347  0.1494 -0.2070
21825W        W37959  11.058  12.863  13.579  0.0453 -0.0698  0.1214
21826W        W37960  17.524  15.208   0.747  0.1453  0.3113  0.2127
21827W        W37961   1.965  14.470  13.674  0.4046 -0.3106  0.0700
21828W        W37962  16.852   0.309  14.003  0.2121  0.3394  0.1601
21829W        W37963   7.469  16.069   0.892  0.0381  0.3240 -0.2612
21830W        W37964  17.660  15.033  13.829  0.0892  0.1558  0.0906
21831W        W37965  11.356   9.767  11.547  0.3153  0.0170  0.1097
21832W        W37966  14.596   4.774  13.441  0.0683  0.2675 -0.0244
21833W        W37967  16.958  14.140   2.182 -0.2136  0.1463 -0.0111
21834W        W37968  16.638   9.455  11.445 -0.0134 -0.0038 -0.1164
21835W        W37969  16.321   6.539   2.419 -0.0198  0.2994 -0.1716
21836W        W37970   0.626  14.710  13.189  0.0084  0.0665  0.0068
21837W        W37971   1.745  15.560   1.626 -0.0501  0.1702  0.0987
21838W        W37972   3.572   7.735   2.757  0.4616  0.3234 -0.1432
21839W        W37973   1.431   6.971  13.949 -0.3507  0.1133 -0.3708
21840W        W37974   9.217   0.924   3.201  0.0366  0.2223 -0.1639
21841W        W37975  15.129  11.022   4.842  0.1943 -0.2542 -0.1911
21842W        W37976   1.950  18.350  13.336  0.2560  0.2319 -0.1069
21843W        W37977   1.322  14.976  12.528 -0.0933  0.1003 -0.2352
21844W        W37978  14.495   2.341   3.810 -0.0652 -0.2437  0.1031
21845W        W37979   3.100  10.346   3.274 -0.0653  0.0570 -0.0580
21846W        W37980   6.156   4.949   0.871 -0.1671 -0.1518  0.4557
21847W        W37981   0.609  10.153  15.194 -0.1039  0.4582 -0.0829
21848W        W37982  11.610   8.199  15.058  0.0237 -0.0779  0.0557
21849W        W37983   0.513   3.746  15.093 -0.0669 -0.1091 -0.1768
21850W        W37984   1.894   4.647   2.580 -0.1142 -0.0169  0.0624
21851W        W37985  18.359   2.388  14.385  0.0713  0.0588  0.2748
21852W        W37986   8.293  11.411   1.910 -0.3048  0.1940 -0.0843
21853W        W37987  18.634  13.587  11.516  0.2666 -0.1728 -0.0327
21854W        W37988   3.265   5.586  11.488  0.1541 -0.0532  0.0400
21855W        W37989   5.679   8.914   3.350  0.0877  0.2044  0.2820
21856W        W37990  16.557  18.276   0.177  0.2781 -0.0060  0.0602
21857W        W37991   2.854  18.368   3.351  0.1287  0.1501  0.2897
21858W        W37992  18.507   2.890  14.862  0.0652  0.4924  0.0299
21859W        W37993   2.740  13.375   4.219 -0.1579  0.0323  0.0599
21860W        W37994  15.042   3.822   1.803  0.4055 -0.1186  0.2220
21861W        W37995  14.025  15.521  10.533 -0.1069 -0.0658 -0.3717
21862W        W37996  16.522   5.141   3.432 -0.3099  0.1282 -0.0442
21863W        W37997  10.358  17.746  11.802 -0.0717 -0.2849 -0.1044
21864W        W37998   3.509   5.594  10.961  0.1960  0.0413  0.0224
21865W        W37999  13.877  18.782   1.855 -0.2158 -0.0068 -0.3759
21866W        W38000  16.201   5.802   4.505 -0.0263  0.1292 -0.0074
21867W        W38001   5.234   0.006  12.664 -0.1397 -0.1345  0.0324
21868W        W38002  15.661   9.792  13.170  0.1681  0.1571 -0.3007
21869W        W38003  18.216   1.652  11.643  0.4132 -0.0927  0.0138
21870W        W38004   8.224  17.727  15.070  0.0477  0.0200 -0.0406
21871W        W38005   7.008   2.026   3.459 -0.1292  0.2393 -0.0936
21872W        W38006  10.273   6.609   3.778 -0.1647 -0.1042 -0.2608
21873W        W38007   0.686   3.816  14.373  0.0680  0.0300 -0.2751
21874W        W38008  13.450  10.571  13.332 -0.2266 -0.0459 -0.3014
21875W        W38009  14.725   2.741  11.656  0.1697 -0.4134 -0.1293
21876W        W38010  13.197  12.517   3.104  0.0636  0.4662  0.0454
21877W        W38011  11.950   2.968  12.891  0.0935 -0.0115 -0.0632
21878W        W38012   1.209   6.096  13.808  0.1922  0.0630 -0.1646
21879W        W38013   4.312   0.006  10.498  0.0791 -0.1513  0.0607
21880W        W38014   5.570   3.917  15.015  0.0511 -0.0903  0.3825
21881W        W38015   3.947   8.186   2.019 -0.1005  0.1060  0.5301
21882W        W38016  17.231   9.090  10.984  0.2031 -0.0332 -0.1849
21883W        W38017  15.375   9.265   2.095  0.0647  0.1950  0.2685
21884W        W38018   6.661  16.643   1.802 -0.1184  0.0927 -0.1414
21885W        W38019   7.467   0.636  13.053 -0.0896  0.1873 -0.1525
21886W        W38020   0.921  17.912  14.035  0.1226 -0.0521 -0.0708
21887W        W38021   9.842  13.048   1.176 -0.2828  0.0642  0.0231
21888W        W38022   8.835   4.985   3.723 -0.1712  0.2398  0.0406
21889W        W38023   0.097   1.757  13.973 -0.1481  0.0527  0.4288
21890W        W38024   0.741   7.264   4.123  0.0444  0.0678 -0.1644
21891W        W38025  13.674  14.747   1.785 -0.0310  0.2739  0.0669
21892W        W38026   8.970   6.649  13.190 -0.0190 -0.2901  0.2723
21893W        W38027  13.447   5.508   4.614 -0.1160  0.2786 -0.2508
21894W        W38028   7.907   3.047  14.598  0.2226 -0.3096  0.0508
21895W        W38029   1.626   3.708   0.869  0.1005  0.2175  0.2894
21896W        W38030  17.188   0.357   0.619  0.1224  0.1299 -0.1488
21897W        W38031   2.646  16.647   1.509 -0.1982 -0.1527  0.0779
21898W        W38032  14.874  18.630  14.972 -0.0881  0.4175 -0.0378
21899W        W38033   1.176  12.315  14.971 -0.0255 -0.1102 -0.1469
21900W        W38034   7.836  17.584   2.689  0.2791  0.0240 -0.2553
21901W        W38035  16.259   1.834   4.732  0.0020  0.2265  0.0168
21902W        W38036   4.964  11.984   3.629  0.0348  0.0842 -0.0496
21903W        W38037  13.863  16.808  12.040 -0.1846 -0.1167  0.1261
21904W        W38038  13.174   1.298  15.163  0.1438  0.0833 -0.0236
21905W        W38039  14.567   5.169  12.271  0.0963  0.2878 -0.2648
21906W        W38040   4.100   5.224  14.586 -0.0484 -0.1407 -0.3331
21907W        W38041  18.900  11.345   1.377  0.0798  0.3978  0.0756
21908W        W38042  10.201   3.402  13.939 -0.0807 -0.0170  0.0368
21909W        W38043   0.667   8.975   0.943 -0.0017 -0.1325  0.1833
21910W        W38044  18.595   2.480   5.233 -0.0602  0.1789  0.1679
21911W        W38045   4.546  13.900   2.875 -0.0171  0.2074 -0.2576
21912W        W38046   2.474   7.395  10.857  0.0601 -0.3205 -0.0060
21913W        W38047   9.504   9.773  13.227 -0.0467 -0.0665  0.1049
21914W        W38048  13.986   8.931  13.247  0.2519 -0.5030 -0.0753
21915W        W38049   4.067  15.039   5.723 -0.0744  0.3842  0.0164
21916W        W38050   3.486   6.968  10.243 -0.0994  0.1476  0.1725
21917W        W38051   2.723   5.790  13.162 -0.1290  0.1232  0.2033
21918W        W38052   3.271  12.802  11.287  0.3762  0.2845 -0.1667
21919W        W38053   0.859   3.397  12.568  0.0376 -0.1473  0.0331
21920W        W38054  16.659  11.548   1.839  0.1207  0.0193 -0.0232
21921W        W38055   3.755  11.988  11.697  0.1247 -0.0619  0.0204
21922W        W38056   9.974  15.307  13.765 -0.0030 -0.2426  0.1692
21923W        W38057   4.374  14.802  13.096  0.0684 -0.2033 -0.0723
21924W        W38058   2.202  14.032   1.348 -0.2636  0.0189 -0.2281
21925W        W38059   1.459   3.751  14.852  0.0208  0.0168  0.3459
21926W        W38060   9.272  16.547  13.789 -0.0912 -0.3122 -0.1248
21927W        W38061   5.053  12.011  14.155  0.2360 -0.2466 -0.1842
21928W        W38062  17.914   5.719   0.798 -0.1931  0.1725 -0.2547
21929W        W38063  15.052   3.764   2.703  0.1290 -0.0798 -0.0643
21930W        W38064   7.978   9.814  11.947  0.4849 -0.2363  0.0162
21931W        W38065  13.308   8.140   0.776 -0.0810  0.3997  0.2771
21932W        W38066  19.107  11.300  11.812  0.2106 -0.1378  0.2138
21933W        W38067  14.393   8.713  11.157  0.1156  0.2174  0.2380
21934W        W38068  14.022  11.938  10.872  0.0247 -0.1217 -0.1627
21935W        W38069  13.281   9.399   4.737 -0.2393  0.3205 -0.0504
21936W        W38070   5.988   6.615  13.887 -0.1781  0.3173 -0.1474
21937W        W38071  11.293   3.188   4.288  0.0989 -0.0556  0.0593
21938W        W38072  13.493   5.913   4.343  0.0747  0.1184  0.1919
21939W        W38073  14.296   9.632  15.094 -0.1400  0.0783 -0.2240
21940W        W38074   6.696   0.598   0.405 -0.2273  0.0947  0.1293
21941W        W38075   8.787  17.027   3.203  0.0394  0.1666 -0.2013
21942W        W38076  16.087  15.211  10.256  0.0018  0.0913 -0.0358
21943W        W38077   5.377  14.855  11.632  0.2292 -0.0908  0.5386
21944W        W38078   4.934  13.091   2.818 -0.1246  0.1234  0.0877
21945W        W38079   6.851  17.425   0.082 -0.1604  0.1168 -0.0493
21946W        W38080   9.212   8.124  10.663 -0.0853 -0.1497  0.0711
21947W        W38081  14.153   3.240   1.704  0.0704 -0.1743 -0.2342
21948W        W38082   0.578   7.328   1.661 -0.0516 -0.1210  0.0805
21949W        W38083  18.210   5.914  14.861 -0.1298  0.0463  0.1002
21950W        W38084  11.475  15.390   0.775  0.1513  0.0263  0.1576
21951W        W38085  17.112   2.951   1.416  0.2811 -0.2160  0.0489
21952W        W38086  14.374  17.068   0.459 -0.0061  0.0928 -0.1069
21953W        W38087   9.592  12.849   2.022 -0.0053 -0.4244 -0.2626
21954W        W38088  18.512  17.634  10.228  0.2812  0.4204  0.0915
21955W        W38089   5.167  14.030  12.597  0.0704 -0.1881 -0.0465
21956W        W38090   3.014  13.193  11.471  0.0599 -0.2157 -0.2397
21957W        W38091   3.504  14.270   3.436 -0.2751 -0.1154 -0.0492
21958W        W38092   4.813  12.077   0.831  0.1692  0.2686 -0.2764
21959W        W38093   1.596  12.131   0.707 -0.1461 -0.3366 -0.2443
21960W        W38094   5.566   0.111  12.277  0.1454  0.2463 -0.0288
21961W        W38095   5.681  10.680  14.856  0.0219 -0.2578 -0.0848
21962W        W38096   2.744   8.124  12.104  0.0977 -0.2512  0.1309
21963W        W38097  16.759  10.132  13.617  0.1466  0.1493  0.0562
21964W        W38098  11.039   6.921   1.589 -0.1047 -0.0509 -0.3187
21965W        W38099  18.664  17.305   4.656 -0.1077 -0.2556  0.0539
21966W        W38100   0.532  12.617   0.419 -0.1603  0.0427  0.0555
21967W        W38101  17.041  17.280  13.544 -0.0576 -0.0790 -0.1399
21968W        W38102   7.249  18.249  13.905  0.0205  0.0191  0.1873
21969W        W38103   5.994   8.624  13.966 -0.1399 -0.0289  0.0492
21970W        W38104  16.975  13.146  12.862 -0.1365  0.3913  0.1354
21971W        W38105   3.299  17.916   0.814  0.5011 -0.1003 -0.0722
21972W        W38106   0.787   9.548   1.708  0.2042 -0.4144 -0.1556
21973W        W38107   7.041   8.411  11.153 -0.0839  0.0374 -0.3796
21974W        W38108  15.494  13.428   4.019 -0.4426 -0.3183  0.0554
21975W        W38109  17.663   9.335  11.038  0.1351  0.2697 -0.0617
21976W        W38110   1.026  13.059  13.562 -0.0315 -0.0931 -0.1618
21977W        W38111  10.839   4.473  13.017  0.0398  0.2456 -0.1955
21978W        W38112   0.393  14.421  14.560 -0.0053 -0.0043 -0.0808
21979W        W38113   4.845   3.126   4.901 -0.2469 -0.0236  0.2461
21980W        W38114   2.957   3.451  12.689  0.1623 -0.0990 -0.0064
21981W        W38115   3.851  14.770  11.845  0.0884 -0.1957 -0.1452
21982W        W38116   6.984  10.148  11.376 -0.0454  0.2533  0.1911
21983W        W38117   1.315  16.404  14.573 -0.2552  0.0448 -0.1441
21984W        W38118   0.015   2.121  10.320 -0.0571  0.0439 -0.2407
21985W        W38119  10.916  12.014  12.452 -0.3466 -0.2236 -0.3252
21986W        W38120   3.455  13.863  12.352  0.3181 -0.1930 -0.1890
21987W        W38121  10.396  11.282  11.345 -0.0869 -0.4032  0.0013
21988W        W38122   4.046   4.392  14.448 -0.1010  0.2582 -0.0187
21989W        W38123  15.675  13.428  12.412 -0.3276 -0.2473  0.2764
21990W        W38124   5.607   7.751   3.102 -0.1036 -0.1791  0.1080
21991W        W38125  16.527  18.922   1.335  0.1357 -0.0023  0.4260
21992W        W38126   6.665  11.558  13.758  0.1675  0.0944 -0.2647
21993W        W38127   9.783   2.746  13.237  0.1979  0.0340 -0.3941
21994W        W38128   5.351   6.561  12.018  0.4112  0.1245  0.0120
21995W        W38129   2.707  16.363  11.395 -0.0763 -0.0445 -0.0417
21996W        W38130  10.325  11.695  13.544  0.1021 -0.0184 -0.3422
21997W        W38131   0.815   4.892  13.672  0.0029 -0.0435 -0.0779
21998W        W38132   2.489  14.738  11.191 -0.0643 -0.3000  0.0372
21999W        W38133   0.951  15.085  13.445  0.1401 -0.1829  0.2922
22000W        W38134   0.384  18.469   1.931 -0.0425  0.1649  0.1836
22001W        W38135   5.542  10.843   4.414 -0.2803  0.0614  0.1068
22002W        W38136   2.837  15.793  12.016 -0.1002  0.1856 -0.1511
22003W        W38137   3.115  10.887  11.343 -0.1933  0.0627  0.2636
22004W        W38138   5.120   4.368   1.936  0.2095 -0.0396  0.1045
22005W        W38139  10.953   4.539   5.267  0.1570 -0.2232  0.0813
22006W        W38140   7.957   6.017  14.789 -0.0710  0.1553 -0.1053
22007W        W38141  13.516  11.323   9.133 -0.0887 -0.0064  0.0710
22008W        W38142  18.662  19.027   2.025 -0.0705  0.2322  0.1723
22009W        W38143  15.351   4.989  10.905  0.3628  0.1911  0.0560
22010W        W38144   9.281  12.507   3.074 -0.1180 -0.0339 -0.2219
22011W        W38145   3.559  10.640  11.374 -0.0823 -0.1013  0.2911
22012W        W38146   4.309  12.404   4.797  0.0280  0.1006 -0.3193
22013W        W38147  15.386   8.960   1.376 -0.4145  0.2461  0.0370
22014W        W38148   6.300   2.407  13.301 -0.1115  0.0715 -0.0290
22015W        W38149  16.184  13.441   4.081 -0.1024  0.2861  0.1068
22016W        W38150   3.323  18.105  10.578 -0.2397  0.2089 -0.1548
22017W        W38151   5.194   5.064   2.369 -0.0180  0.0567 -0.1079
22018W        W38152   0.529   0.449  10.966 -0.0339  0.0647 -0.0653
22019W        W38153   3.683   5.929  13.047  0.1631  0.1537  0.0093
22020W        W38154  12.290  11.701  12.728 -0.0707  0.1506 -0.0967
22021W        W38155   7.066   4.790  14.168  0.2867 -0.0559  0.3075
22022W        W38156  16.355   2.810   0.567 -0.1557  0.0636 -0.0567
22023W        W38157  13.563  10.153   3.180  0.0442  0.0722  0.3118
22024W        W38158  13.677   6.209  14.933  0.1428 -0.0635  0.2756
22025W        W38159  11.136  10.532  14.290 -0.2128 -0.1496 -0.1522
22026W        W38160  17.145  11.634  13.233  0.2379 -0.0125  0.2990
22027W        W38161   4.944   2.402  10.424  0.0861  0.0255  0.1421
22028W        W38162   8.044   2.823  13.821 -0.0157  0.3338 -0.0717
22029W        W38163   2.648  15.414  12.945 -0.6736 -0.3831 -0.2088
22030W        W38164  10.271  14.648   5.396  0.0636  0.1575 -0.1436
22031W        W38165  12.578   6.953   1.212  0.1106  0.0615 -0.1514
22032W        W38166  16.074   7.555  14.017 -0.5117 -0.0306  0.1877
22033W        W38167   4.671   0.648  12.274 -0.2000  0.0572  0.1007
22034W        W38168  14.509   0.662  11.479  0.0518  0.1084  0.1333
22035W        W38169  17.430  15.271   5.117  0.1132 -0.1107  0.0987
22036W        W38170  15.962  10.035   0.354 -0.1424  0.0044  0.1164
22037W        W38171   5.370   1.990   0.868  0.2224 -0.0190  0.1246
22038W        W38172   9.464  15.606   3.721 -0.0372 -0.0594  0.1156
22039W        W38173  18.508  13.906  13.651  0.0195 -0.1537 -0.0631
22040W        W38174   8.664   1.698   1.885  0.2178  0.2552  0.0956
22041W        W38175  14.593   2.841   0.958 -0.0942 -0.2590  0.1508
22042W        W38176   1.078  13.406  13.932 -0.2584  0.1333 -0.0373
22043W        W38177  10.705   5.524   5.541  0.1661 -0.1297 -0.2034
22044W        W38178   5.717   0.899   0.393  0.0184 -0.1578  0.5173
22045W        W38179   5.243   8.228   1.122 -0.0832  0.0084 -0.4311
22046W        W38180   9.308  15.191  14.232  0.0916 -0.1970  0.0232
22047W        W38181   0.210   4.125   3.519 -0.1403 -0.2502 -0.0431
22048W        W38182  16.010   5.072  11.933 -0.0006 -0.0257 -0.0833
22049W        W38183   7.069   3.560  13.160 -0.2779  0.0610 -0.3963
22050W        W38184   9.202  11.602   3.255 -0.0658 -0.0502 -0.2357
22051W        W38185  12.042  12.115  12.490 -0.0947 -0.5801  0.1101
22052W        W38186   2.986   3.402   0.473 -0.1775 -0.3694 -0.2829
22053W        W38187   7.022   9.768   2.878 -0.2400  0.0115  0.1381
22054W        W38188  16.549  18.652   3.804  0.1277 -0.1599  0.1217
22055W        W38189   4.165  13.692   4.313  0.1083  0.2625  0.0807
22056W        W38190  18.782   3.286  13.647  0.1051  0.1589  0.2201
22057W        W38191  19.035   1.619   3.308 -0.0704  0.1958  0.0064
22058W        W38192  17.220  15.176   2.432  0.0713  0.1680 -0.2064
22059W        W38193  18.176   8.220  13.969 -0.2694 -0.0517  0.0852
22060W        W38194   4.962  17.044  11.605 -0.2069 -0.3452  0.0276
22061W        W38195  10.603  17.825  12.753 -0.1056 -0.0070 -0.1528
22062W        W38196   2.490   7.088  12.762  0.1206  0.3759 -0.1658
22063W        W38197   6.376  15.393  10.756 -0.0344  0.2417  0.0554
22064W        W38198  12.713  11.604  11.498  0.0884  0.4642  0.1367
22065W        W38199   4.877  12.663  14.664  0.3513  0.0867  0.1291
22066W        W38200   0.567  14.425   3.973 -0.2224 -0.1827  0.1972
22067W        W38201   0.485   4.353  10.389  0.3769  0.0746  0.0867
22068W        W38202   6.062  16.423   0.331 -0.0982 -0.0830  0.0115
22069W        W38203   1.339  13.849   0.971  0.3345 -0.0515  0.1059
22070W        W38204   3.879   5.240  13.696 -0.0560  0.2605 -0.0822
22071W        W38205   8.791  11.527   1.820 -0.2418 -0.1371 -0.3048
22072W        W38206   9.039  15.458  14.529  0.1649 -0.0200  0.4205
22073W        W38207   8.272   7.456   1.809  0.0085  0.4110 -0.2575
22074W        W38208   2.087  18.195  12.557  0.0920 -0.1509  0.0312
22075W        W38209   5.894  13.338   5.907  0.2170 -0.3168  0.3330
22076W        W38210  14.876  19.107   1.259 -0.2095 -0.1627 -0.0750
22077W        W38211   1.785  17.274  10.982  0.2793 -0.0143  0.1966
22078W        W38212   6.998  18.104   3.001 -0.3152 -0.3006 -0.2234
22079W        W38213   5.670  18.463   9.515  0.4520  0.2588 -0.0500
22080W        W38214  11.599   4.400  13.932  0.0650 -0.1900  0.1398
22081W        W38215  17.600  13.565   2.851  0.0297 -0.0498 -0.1931
22082W        W38216   6.351   6.857   4.177 -0.1733  0.0565  0.0044
22083W        W38217   3.643   4.225   4.230 -0.0060  0.3397  0.3859
22084W        W38218  17.978   5.108  11.672 -0.2805 -0.0196  0.4546
22085W        W38219  13.315   1.395   2.902  0.1295  0.4895 -0.0051
22086W        W38220  16.509  17.680   3.943  0.3509 -0.0265 -0.0740
22087W        W38221  16.095  14.856   0.539 -0.0274 -0.5852 -0.1284
22088W        W38222   6.379  14.073   5.496 -0.2117  0.3580  0.4215
22089W        W38223  16.106  16.551  13.776 -0.1462 -0.0165 -0.5375
22090W        W38224   1.954  10.662  11.789 -0.1981  0.0365  0.2066
22091W        W38225   6.433  14.642  12.878  0.1733  0.0727  0.1892
22092W        W38226   3.751   1.388  11.303  0.0618 -0.0498  0.1486
22093W        W38227  12.213   8.290   0.028 -0.0005 -0.0625  0.3189
22094W        W38228  16.145   6.986   4.835  0.0479  0.3386  0.0634
22095W        W38229   7.005  11.350  15.080 -0.1015  0.0369  0.1311
22096W        W38230   1.801  16.341  11.092  0.1444 -0.0775 -0.1570
22097W        W38231   7.947  18.999   2.710  0.0165 -0.1292 -0.0824
22098W        W38232  17.501   5.365   4.133  0.0604 -0.3269 -0.1947
22099W        W38233  17.601  17.521   1.813 -0.0543  0.0915 -0.1117
22100W        W38234   0.467   6.025   3.696 -0.3718 -0.1696 -0.0321
22101W        W38235  17.889   6.762   3.767 -0.3550 -0.0065  0.1483
22102W        W38236   5.321   4.375  15.128  0.1846  0.3027  0.0039
22103W        W38237   4.166   8.127  12.394  0.1953 -0.1915  0.3213
22104W        W38238  11.873   5.820   2.324 -0.3143 -0.0832 -0.3996
22105W        W38239   9.100  18.951  13.480  0.0860 -0.1366 -0.1205
22106W        W38240   6.143  16.858  15.160  0.1415  0.1294  0.2517
22107W        W38241   3.605  11.845   4.168  0.1274 -0.0503 -0.1046
22108W        W38242  18.723  18.895  15.167  0.1691 -0.1237  0.0045
22109W        W38243   7.452   9.804  13.211  0.1343  0.2132  0.3260
22110W        W38244  13.004   4.468   1.535  0.1538  0.0538 -0.1649
22111W        W38245   4.614   3.454  14.744  0.1247  0.2627 -0.2680
22112W        W38246  14.615   2.161   4.682 -0.0253 -0.3214  0.3248
22113W        W38247   2.552   9.286   1.378  0.0931 -0.1058  0.0508
22114W        W38248   3.945  14.227  10.359 -0.0552 -0.1493  0.2322
22115W        W38249   9.131  14.043  14.863  0.0291  0.1121  0.1102
22116W        W38250   8.497  12.061  14.572  0.0426 -0.3330  0.0636
22117W        W38251   5.141   1.853   1.895 -0.1580  0.1539 -0.2054
22118W        W38252  15.870   2.570   5.019  0.2316  0.1742 -0.0688
22119W        W38253  15.349   8.743   0.379  0.1897  0.0211  0.0555
22120W        W38254  12.346  16.023  10.349  0.0168  0.1254 -0.1203
22121W        W38255   0.299  15.327  14.605 -0.1544  0.1620 -0.2124
22122W        W38256  14.222  16.036  13.451 -0.0785 -0.1720  0.2271
22123W        W38257  14.115   8.353  14.884 -0.2186  0.0928 -0.0278
22124W        W38258   5.759  13.602  13.977 -0.2102  0.1066 -0.2117
22125W        W38259  14.631   4.566  10.655  0.0647  0.0632  0.1724
22126W        W38260   7.014   0.164   1.630 -0.1710 -0.3394  0.1644
22127W        W38261  12.101   3.124  11.896  0.2144  0.1213  0.0479
22128W        W38262  15.873  18.286  10.840 -0.0559  0.0357 -0.1080
22129W        W38263  16.236  16.257  10.785 -0.1616 -0.0101  0.0588
22130W        W38264   5.460   6.555   4.559  0.0244 -0.2590 -0.1001
22131W        W38265   7.514   6.915   1.844  0.3407  0.0413 -0.1596
22132W        W38266  16.360   3.651   1.842  0.1158  0.0097  0.0923
22133W        W38267  11.174  11.287   4.221  0.0190 -0.0036 -0.3220
22134W        W38268  12.255  11.678   3.099 -0.1551  0.2296 -0.3101
22135W        W38269  15.325   4.537   2.265 -0.0760  0.0164  0.3877
22136W        W38270  15.688   2.443   2.860  0.2152  0.1971 -0.0116
22137W        W38271   1.725  17.449  13.160 -0.2802  0.1016  0.1842
22138W        W38272   9.894   1.393  13.344 -0.0622  0.4436  0.0539
22139W        W38273   5.809   5.933  13.650 -0.0789  0.5011  0.1835
22140W        W38274   3.245   2.000   1.002 -0.0945 -0.0762 -0.0955
22141W        W38275   0.695  10.950   4.138 -0.0216 -0.0239  0.2542
22142W        W38276  14.828  11.257   1.645  0.1091 -0.1574 -0.0972
22143W        W38277   7.100  12.480  14.462 -0.0051 -0.0660  0.1837
22144W        W38278  18.326   8.331  12.638 -0.0441  0.0783 -0.2850
22145W        W38279   8.249  17.351   3.352 -0.1957 -0.0523 -0.0195
22146W        W38280  14.032   7.288  11.279 -0.0383  0.2207 -0.1142
22147W        W38281   0.788   0.517   1.379 -0.0104  0.0075 -0.4657
22148W        W38282  18.215   0.501   0.591  0.0838  0.3410 -0.2906
22149W        W38283  17.807  12.981   4.663  0.1315 -0.1889  0.1133
22150W        W38284  15.580  13.875   1.366 -0.1576 -0.1303 -0.0146
22151W        W38285  14.321  15.414  13.911  0.1374  0.1539 -0.2261
22152W        W38286   1.480  13.170   1.432 -0.0194 -0.0129 -0.0337
22153W        W38287  13.137  18.388   3.808 -0.1284 -0.3193 -0.1230
22154W        W38288   3.196   7.750  11.302 -0.0076  0.3925  0.0896
22155W        W38289  18.213  14.544  12.570 -0.0638 -0.3986 -0.1912
22156W        W38290   3.471   8.199   1.236  0.1561 -0.1463 -0.0151
22157W        W38291  12.906   0.311   2.706 -0.1117 -0.1193 -0.0750
22158W        W38292  16.404   6.859   0.924  0.3058  0.1673  0.2742
22159W        W38293   1.571  12.205   3.206  0.2880 -0.2686 -0.2567
22160W        W38294  16.347   1.671   2.894  0.1610  0.1045  0.1746
22161W        W38295   1.828   7.710  10.579 -0.1067  0.3188 -0.0209
22162W        W38296   2.460   8.756   3.992  0.2014  0.2282 -0.1080
22163W        W38297  10.665   3.021  14.904  0.0558 -0.1856  0.2477
22164W        W38298   2.857  14.308   2.750 -0.0374  0.4172 -0.0816
22165W        W38299   7.290  12.791  10.290 -0.2640 -0.4126 -0.0825
22166W        W38300   9.458  15.374  13.760  0.2191 -0.1320 -0.0054
22167W        W38301   7.163  10.180  10.879  0.1201 -0.2938 -0.0539
22168W        W38302   8.728   4.210   0.615 -0.2008  0.0484 -0.0669
22169W        W38303   3.337  15.331  14.160 -0.2653 -0.1695  0.2457
22170W        W38304  18.581  15.269   4.272 -0.0045  0.1303  0.2692
22171W        W38305  10.717  18.227   2.084 -0.0702  0.2113  0.1926
22172W        W38306   6.866  15.014  14.790  0.0401 -0.2673  0.0481
22173W        W38307   1.231  16.864   1.181  0.0962 -0.1608  0.2803
22174W        W38308   6.218   7.817  12.114  0.1648  0.1039 -0.1670
22175W        W38309   1.514  17.843   0.413  0.2657  0.1644 -0.0554
22176W        W38310   0.766   6.960  10.533  0.0472 -0.1432  0.3327
22177W        W38311   9.491  15.846  13.020  0.0614  0.2343  0.0735
22178W        W38312   7.273   4.443   2.887  0.0968  0.2384 -0.1207
22179W        W38313  10.579  17.064   9.389 -0.1289  0.0428 -0.0159
22180W        W38314  16.152  17.510  13.655 -0.2056  0.0009  0.1337
22181W        W38315  11.817   6.867  13.802 -0.0837  0.0420 -0.1207
22182W        W38316   9.806   2.238   3.202 -0.0693  0.1057  0.0797
22183W        W38317   8.634   3.391  11.498  0.0984  0.1464 -0.0813
22184W        W38318  11.845  14.515  12.727 -0.1202  0.1743 -0.2703
22185W        W38319   5.443  14.008   0.434 -0.0259 -0.0172 -0.1254
22186W        W38320  12.453  13.214   3.142 -0.0970 -0.2300  0.2525
22187W        W38321  17.531   3.585  13.848  0.0076 -0.4314 -0.1681
22188W        W38322  10.770   3.409  11.577 -0.0216  0.0922 -0.1506
22189W        W38323   7.306   7.151  10.765 -0.1706  0.0805 -0.1140
22190W        W38324  13.278   8.650  12.894  0.1210 -0.2222  0.1451
22191W        W38325  16.351   3.952  12.879 -0.3050  0.4274  0.0235
22192W        W38326   1.954  11.848   3.078  0.1661  0.2908  0.2559
22193W        W38327  10.481   0.287   3.944 -0.0436 -0.2278  0.2772
22194W        W38328  18.756   3.354  11.982  0.0355  0.2050 -0.0475
22195W        W38329   1.937  11.367   1.289  0.0830 -0.4474  0.0064
22196W        W38330  16.444   0.742   4.616 -0.3528  0.0361  0.1403
22197W        W38331  17.429   6.875   3.838  0.2451  0.0471  0.0318
22198W        W38332  11.401   4.072  11.906  0.0634 -0.3152 -0.1582
22199W        W38333  17.571   0.283   2.065  0.1821  0.2765 -0.1837
22200W        W38334  15.172   8.868   4.624 -0.2074 -0.0472 -0.0236
22201W        W38335   9.737   6.517   5.050  0.0214  0.0386 -0.2232
22202W        W38336   4.584   7.807  12.222 -0.1105  0.0994 -0.2875
22203W        W38337   6.654  14.636  14.951 -0.0480 -0.1293 -0.1523
22204W        W38338  16.625  12.020   2.001  0.1867  0.0684  0.0980
22205W        W38339   8.524  14.850  10.377  0.1535  0.2736 -0.1100
22206W        W38340  12.228   5.080  11.038 -0.0696 -0.4505 -0.0158
22207W        W38341   2.035  19.073   4.392  0.0608  0.0270 -0.4484
22208W        W38342  10.480  11.837  14.462 -0.2213  0.0960  0.1840
22209W        W38343  15.661   3.241   2.984 -0.1559 -0.0082  0.0929
22210W        W38344  12.234   6.149   1.376  0.0606 -0.2848 -0.2874
22211W        W38345  14.323   9.083   9.904  0.0488 -0.0654 -0.2271
22212W        W38346   5.369   6.922   3.295  0.0626 -0.2055 -0.0814
22213W        W38347   4.007  11.925  14.062  0.1648  0.2057  0.0199
22214W        W38348   6.347   5.954  13.480  0.1185  0.0327 -0.4052
22215W        W38349  11.836  12.280  14.601 -0.3230 -0.1945 -0.1003
22216W        W38350  10.420   4.611  12.077  0.0233 -0.2307  0.0534
22217W        W38351   3.716   0.118   3.564 -0.3295  0.0210 -0.3383
22218W        W38352  13.475   8.921  14.934  0.1625  0.1334 -0.3034
22219W        W38353   7.581  13.598  13.963  0.3297  0.0212  0.1661
22220W        W38354   7.767  11.134   5.513 -0.1502  0.0181  0.3145
22221W        W38355   0.157   6.138   0.520  0.0337  0.1008 -0.0759
22222W        W38356   8.644  17.030   5.163  0.1223 -0.0865  0.3525
22223W        W38357  17.201   9.766  15.184 -0.0686 -0.1172 -0.1993
22224W        W38358   0.589  12.451  11.244 -0.2092 -0.1961 -0.3394
22225W        W38359  10.524   2.622  12.066  0.1951 -0.4267 -0.2398
22226W        W38360   7.687  12.696   1.254  0.0610  0.0313 -0.1053
22227W        W38361   7.204   8.383   1.061 -0.0228 -0.0061 -0.0413
22228W        W38362   8.757  10.754   3.819 -0.1172 -0.1887 -0.1231
22229W        W38363   3.655   7.721   0.300 -0.1051  0.0032  0.2378
22230W        W38364   2.105  10.079  14.188  0.2918 -0.0983 -0.1909
22231W        W38365   1.264   6.983   1.076 -0.1797 -0.1074 -0.2145
22232W        W38366   6.011   0.847  11.851  0.0587  0.0584  0.3379
22233W        W38367   7.191  15.855  13.278 -0.0212  0.2669  0.2329
22234W        W38368   4.036   6.455   3.006  0.0208 -0.1892 -0.3034
22235W        W38369   0.728  11.535  13.307  0.2059  0.0340 -0.2760
22236W        W38370  11.703  14.331   0.406 -0.0506  0.0340  0.1265
22237W        W38371  14.845   1.068   3.921 -0.2730 -0.0606  0.0410
22238W        W38372  12.775  12.617   3.796 -0.1457  0.0954 -0.0572
22239W        W38373  12.237  15.703   4.207  0.2429  0.0694 -0.0714
22240W        W38374   7.025   7.064   3.517 -0.1532  0.2101 -0.0121
22241W        W38375   0.393   1.897   3.781  0.2553  0.2611  0.0964
22242W        W38376  18.093   0.364  12.017  0.2778  0.1841 -0.2976
22243W        W38377  11.191   5.123   2.935 -0.0594 -0.2735 -0.2283
22244W        W38378   5.173  18.372   1.639  0.2765 -0.1890  0.0913
22245W        W38379  18.852  17.693   4.091 -0.2258 -0.0998 -0.0886
22246W        W38380   9.938  14.847   0.559  0.0082  0.0579 -0.2208
22247W        W38381   6.335  10.898   1.962  0.1795  0.0246 -0.1412
22248W        W38382   5.789   0.779  12.576 -0.0633  0.3663 -0.3231
22249W        W38383   4.971   1.185  13.220  0.5509 -0.1346 -0.0343
22250W        W38384  10.873  11.759  12.887 -0.1576 -0.1330 -0.2247
22251W        W38385  11.215  16.419  11.802 -0.0198 -0.1285 -0.0523
22252W        W38386  14.202   9.595   4.707 -0.2012 -0.0502 -0.1047
22253W        W38387  16.626  11.451   3.691 -0.0929  0.1280  0.0719
22254W        W38388  11.486  18.527  14.317  0.2003  0.1182  0.2467
22255W        W38389   1.255  13.268   0.084  0.0040  0.0396  0.2239
22256W        W38390  13.993  13.243  11.081  0.2435 -0.0135 -0.2331
22257W        W38391  11.844   3.240   4.396  0.3640 -0.0215 -0.0219
22258W        W38392   6.457   2.873   4.320 -0.0102 -0.1087  0.1190
22259W        W38393  18.375  15.589   3.729  0.1440 -0.0172 -0.0402
22260W        W38394   6.633  12.426  14.177  0.2015 -0.2557  0.1200
22261W        W38395  14.112   6.435  12.545 -0.3285  0.1410  0.0563
22262W        W38396  11.324  11.140  11.672 -0.0216  0.0051 -0.1355
22263W        W38397   9.385   1.346  12.057 -0.1758 -0.2390 -0.0787
22264W        W38398   4.158  12.382  12.019 -0.2791  0.1019 -0.1151
22265W        W38399   4.239  16.136  12.258 -0.1832  0.0443  0.0691
22266W        W38400  10.128   2.240   2.791 -0.0027  0.1187  0.0927
22267W        W38401   7.094  11.934  14.786  0.0732  0.1938 -0.0724
22268W        W38402  17.292   6.129   3.055  0.0958 -0.0811 -0.0218
22269W        W38403   0.403   9.802   1.457  0.1167  0.1950 -0.1283
22270W        W38404   3.551   2.377  14.878  0.2001  0.1745 -0.1197
22271W        W38405  16.618  12.220  11.577  0.0885 -0.0732  0.3125
22272W        W38406   3.558   5.402   1.488  0.3943  0.2861  0.1254
22273W        W38407   0.025   8.207   0.742  0.2834  0.1467  0.4543
22274W        W38408   8.323   2.332   3.810 -0.0093  0.2059 -0.0418
22275W        W38409  18.372  10.087  11.319  0.0889 -0.0496  0.1722
22276W        W38410  12.888   1.737  12.829 -0.3074  0.1680 -0.1111
22277W        W38411   4.418  10.605   1.590  0.2688 -0.0104 -0.0561
22278W        W38412   0.258   8.291  12.584  0.1230  0.0199 -0.0673
22279W        W38413   0.062  18.669  10.701  0.0669  0.1415 -0.3695
22280W        W38414  11.304   9.999  12.575 -0.0830  0.1369  0.0221
22281W        W38415   1.241  17.340   2.336 -0.1154  0.1416  0.0683
22282W        W38416   5.967   1.079  13.351 -0.1413 -0.0135  0.1663
22283W        W38417   3.595  14.299   5.299 -0.3587  0.0157 -0.0131
22284W        W38418  10.389  16.186   1.837  0.1089  0.2728  0.0384
22285W        W38419   9.257   7.733  14.143  0.0923 -0.0300  0.1873
22286W        W38420  15.822   3.997   0.438 -0.0450 -0.1065  0.0421
22287W        W38421   9.339   6.171  12.847  0.2643  0.0602  0.0468
22288W        W38422  11.890   0.901   3.518 -0.0344  0.0797 -0.1945
22289W        W38423  14.874  11.694   5.138 -0.3670  0.1811 -0.0489
22290W        W38424   8.125  16.989  14.571 -0.0049  0.0256  0.2184
22291W        W38425  14.477   5.116  12.792 -0.1790 -0.1627 -0.1978
22292W        W38426  17.025   3.707  10.402 -0.0161  0.0425 -0.4466
22293W        W38427  11.689  13.433  13.715  0.3379 -0.1387 -0.0683
22294W        W38428   0.241  17.488  14.999  0.1623 -0.1180  0.0905
22295W        W38429  15.251   0.585  10.755 -0.1890 -0.0327  0.0938
22296W        W38430   8.854   2.019   0.121  0.0098 -0.0758  0.0837
22297W        W38431  16.992  15.265  14.738 -0.1583 -0.1765  0.1464
22298W        W38432   5.628   7.571  12.958  0.0826 -0.3583  0.1661
22299W        W38433  15.179   8.358  14.498 -0.1461  0.1927  0.1631
22300W        W38434  11.045  12.176  14.001  0.1059 -0.0374 -0.0041
22301W        W38435   2.567  15.823  11.428 -0.0056  0.1193  0.1804
22302W        W38436  16.200   9.980  14.475 -0.2463  0.2614 -0.0016
22303W        W38437  18.019  13.482   1.182 -0.2609  0.4304  0.3818
22304W        W38438   4.259   6.343  11.586 -0.0771  0.1725  0.3921
22305W        W38439   1.836  18.054   9.201  0.2018 -0.0181 -0.2255
22306W        W38440  16.174  10.880  14.444 -0.1194  0.1341  0.0967
22307W        W38441   9.997  10.146   1.963  0.0028  0.4075  0.0218
22308W        W38442  18.622   8.932   3.205  0.1833 -0.3278 -0.2077
22309W        W38443  17.249  18.105  10.749  0.1717  0.0731  0.0953
22310W        W38444   8.565  18.588  13.329  0.4363 -0.1753  0.0751
22311W        W38445   3.968   7.148   4.200 -0.2361  0.2252 -0.1091
22312W        W38446  15.281   2.836   3.682 -0.1235 -0.2175  0.1088
22313W        W38447  14.693   2.783  13.374 -0.2354  0.1675  0.2643
22314W        W38448   1.244   0.746   1.446 -0.0588 -0.3347  0.3378
22315W        W38449  16.001   9.032  12.056  0.0794  0.1301 -0.0130
22316W        W38450   7.807  16.499  14.819 -0.1226  0.0841  0.0437
22317W        W38451   8.723  10.026   2.397 -0.0427  0.1497 -0.1459
22318W        W38452  19.053   5.125  10.341  0.3539 -0.1935  0.0371
22319W        W38453   7.039   5.118  15.171  0.1001 -0.1439  0.2076
22320W        W38454  14.328  11.932  13.825 -0.0813 -0.0485 -0.2504
22321W        W38455   6.039   1.714  10.817 -0.1247  0.4257  0.2377
22322W        W38456  10.078   7.254  14.448 -0.4426 -0.2655 -0.0005
22323W        W38457  13.073  14.267  14.062  0.0375 -0.2053 -0.1114
22324W        W38458  16.286  11.772   2.279  0.2814  0.5578  0.1411
22325W        W38459  11.128   3.232   2.865  0.2204  0.2354  0.6834
22326W        W38460  10.787  12.523   0.615 -0.2349 -0.2076  0.3561
22327W        W38461   5.177   7.417   1.970 -0.0117  0.0104 -0.0100
22328W        W38462   8.634  17.270   3.681  0.2085  0.1449  0.4398
22329W        W38463  16.736  17.029  14.470  0.3091 -0.1527  0.0723
22330W        W38464  10.409   9.541  12.935 -0.2222 -0.4670  0.1870
22331W        W38465  14.283  12.560   2.797 -0.0102 -0.0087  0.0526
22332W        W38466   4.093  17.154  13.351  0.1948  0.0939 -0.0332
22333W        W38467   1.731   8.128  14.654 -0.3386  0.0523 -0.1014
22334W        W38468  13.300   9.613  14.566  0.1252 -0.0151 -0.3452
22335W        W38469   6.898   9.089  11.401 -0.2593  0.0455 -0.0148
22336W        W38470   2.200  11.777   1.843  0.0357 -0.0815  0.0834
22337W        W38471  17.335   3.462  10.807  0.2489 -0.1148 -0.0170
22338W        W38472   6.857  11.058   3.789  0.2342  0.0722  0.1433
22339W        W38473   2.838   5.254  12.964 -0.1454 -0.0953  0.0485
22340W        W38474  10.165   5.210   2.000 -0.2064  0.4224  0.0673
22341W        W38475   3.551   1.058   1.323 -0.0454 -0.0146  0.0715
22342W        W38476  18.691   7.438   0.319  0.2192 -0.0268 -0.3452
22343W        W38477  16.926  17.992   1.190  0.1454  0.0626  0.0067
22344W        W38478  13.958  18.388   0.441 -0.0465  0.1299  0.2655
22345W        W38479  18.046   0.038   2.256  0.0958 -0.2466 -0.1884
22346W        W38480   3.394  12.195   2.153 -0.0173 -0.2694  0.2027
22347W        W38481   1.932  10.478  10.877  0.0056 -0.1210  0.1052
22348W        W38482   0.299   3.396   1.982 -0.3288 -0.1300 -0.0418
22349W        W38483  13.770   0.598  14.183 -0.0897  0.3487  0.1111
22350W        W38484  13.408  17.572  12.206  0.2719  0.0192 -0.2059
22351W        W38485  13.247  12.930  13.085 -0.3533 -0.1888  0.0763
22352W        W38486   6.564  16.448  13.658  0.0757  0.5246  0.5372
22353W        W38487  12.226   7.970  14.174 -0.1718  0.1384  0.0955
22354W        W38488   2.994   9.647  12.724 -0.0323 -0.2365 -0.0868
22355W        W38489  18.376   8.833   4.257 -0.3310 -0.0078  0.3620
22356W        W38490  11.915  13.215  13.050 -0.1021  0.1248  0.0676
22357W        W38491   4.117  12.793  15.066 -0.1271  0.0454 -0.4431
22358W        W38492  12.947   9.141  13.136 -0.3620  0.2868  0.1563
22359W        W38493  16.104   4.669  12.202  0.0026  0.1516  0.4059
22360W        W38494   7.252   4.266  13.897  0.4013 -0.3918  0.0224
22361W        W38495  10.044  17.519   3.746  0.1546 -0.1940 -0.2130
22362W        W38496   4.450   9.485  14.691 -0.2919 -0.1706  0.2253
22363W        W38497   7.309  15.320  14.036  0.1490  0.2841  0.0593
22364W        W38498  16.251  15.262   2.459 -0.2191  0.0423 -0.1928
22365W        W38499  14.511   4.613   4.601 -0.0452 -0.0047  0.2794
22366W        W38500   1.292  17.749   0.886  0.2609 -0.2407 -0.0111
22367W        W38501  16.125   4.985   9.785  0.1313  0.0664  0.0391
22368W        W38502   5.452   3.124  13.404  0.0009 -0.0902  0.0197
22369W        W38503  10.387  13.679   2.501  0.0676 -0.2914  0.1179
22370W        W38504   4.944   5.849   3.731  0.2350  0.0602  0.0135
22371W        W38505   9.395  15.052   2.526 -0.1712  0.1642  0.0155
22372W        W38506   0.780   4.318  13.440 -0.0854 -0.0122 -0.1131
22373W        W38507  16.757   5.771  14.369  0.1773 -0.0406  0.0401
22374W        W38508  17.407  12.744   2.186  0.2890 -0.2043  0.3137
22375W        W38509   9.228  11.653   3.788  0.3009 -0.2660 -0.0850
22376W        W38510   9.889   3.991   3.009 -0.2036  0.0486 -0.0132
22377W        W38511  15.698  17.876  13.734 -0.1663  0.1466 -0.0828
22378W        W38512  11.608  12.714  11.071 -0.1616  0.4908 -0.0937
22379W        W38513  10.847   2.863   4.372  0.0800 -0.1151  0.0401
22380W        W38514  16.229   3.291   2.785 -0.0787  0.0237 -0.2343
22381W        W38515   7.777   1.061   5.642 -0.0086 -0.1765 -0.0195
22382W        W38516  18.858   6.792  13.964  0.0338  0.0672 -0.2306
22383W        W38517   7.868   7.399  12.592  0.1834  0.0001  0.0391
22384W        W38518  18.697   4.185   4.933 -0.2054  0.1873  0.0888
22385W        W38519  17.083  16.354  11.673 -0.3771 -0.1729 -0.1514
22386W        W38520  16.538   0.233   2.700 -0.0329  0.1027  0.0828
22387W        W38521   3.332  15.709  10.980 -0.1431  0.1736  0.4031
22388W        W38522   7.703   6.085  10.676 -0.3704  0.1148 -0.2038
22389W        W38523   2.235  18.482   5.003 -0.0586 -0.0776  0.1754
22390W        W38524   8.341  14.856   4.857 -0.1749  0.1358  0.4909
22391W        W38525  12.455   5.268  11.515  0.2117 -0.1229 -0.1252
22392W        W38526  16.418   6.681   5.021 -0.0405  0.1293 -0.3128
22393W        W38527   6.613   6.602  14.547 -0.0997 -0.0445 -0.0758
22394W        W38528  17.945   0.742  11.588 -0.0884  0.4389 -0.2801
22395W        W38529   5.127   2.177  14.185  0.1550 -0.0773  0.0230
22396W        W38530   0.153   2.033   1.649  0.2810 -0.2552  0.0321
22397W        W38531  18.942  13.650   4.647  0.1391 -0.0952 -0.1158
22398W        W38532  11.317  11.664   2.654 -0.2378 -0.1237 -0.0397
22399W        W38533   3.263   1.441   1.171  0.0921  0.3132  0.0285
22400W        W38534  12.094  17.472  11.557  0.0044  0.2075  0.2168
22401W        W38535  18.040   5.422  12.669  0.2051 -0.3688  0.2883
22402W        W38536   5.261   9.669  14.992 -0.0323  0.0621 -0.2362
22403W        W38537  15.914   0.669  13.468 -0.0661 -0.1034  0.1182
22404W        W38538  14.449  11.463   3.259  0.2552 -0.0128 -0.3222
22405W        W38539   9.496  15.888   2.284  0.2927  0.2017 -0.1276
22406W        W38540  12.881   8.031   2.462  0.1663 -0.2253  0.0859
22407W        W38541  16.760  14.225  12.306 -0.0787  0.0257 -0.0684
22408W        W38542  11.756  10.198  12.618  0.4356 -0.3275  0.0844
22409W        W38543   7.830  11.515   5.143  0.3014  0.3518  0.0267
22410W        W38544   1.107   0.132   0.988  0.1071 -0.1998  0.0294
22411W        W38545  11.870   7.443  12.733 -0.2577 -0.1419 -0.0821
22412W        W38546  13.164  11.148  12.620  0.1594  0.1408 -0.1904
22413W        W38547   4.141  15.117  14.444  0.2250 -0.1531  0.0259
22414W        W38548   4.390  18.591   1.265 -0.1114  0.1379  0.3295
22415W        W38549  13.328  13.074  13.754  0.0649  0.1868 -0.0812
22416W        W38550  10.078  14.995   0.041 -0.1034  0.1923  0.1050
22417W        W38551  14.458  10.723  11.922 -0.1805 -0.0006 -0.0587
22418W        W38552   7.066  15.717   0.494  0.1027  0.1709  0.2659
22419W        W38553  15.849  10.938   2.574  0.4619  0.2362  0.0825
22420W        W38554  17.803  14.576  12.198 -0.0065  0.0198  0.0460
22421W        W38555   1.050   9.184  10.480 -0.1767  0.1263 -0.1718
22422W        W38556   3.007  12.411  14.980  0.1102  0.0538  0.1085
22423W        W38557  15.641   2.876  13.450  0.5975  0.1497 -0.0596
22424W        W38558  10.367   2.758   0.111 -0.2604  0.0251 -0.1331
22425W        W38559   8.797   9.143  14.237 -0.0879  0.1384 -0.2070
22426W        W38560   2.575  11.192  11.002  0.2127 -0.1659  0.1378
22427W        W38561  13.247   0.737   5.100  0.1249  0.0890  0.0818
22428W        W38562   5.358  18.732   4.104  0.0840 -0.1078 -0.1845
22429W        W38563  10.082   6.852   2.258  0.1943 -0.1897 -0.0505
22430W        W38564  17.696  14.197   4.389  0.1107 -0.0215  0.0882
22431W        W38565  12.559  12.937  12.430 -0.0045 -0.2880  0.1505
22432W        W38566   5.732   9.973   2.827  0.1256  0.0540 -0.1578
22433W        W38567  18.420   0.068  14.500 -0.3995 -0.0435 -0.0248
22434W        W38568  17.321   0.828  10.865  0.1979  0.2829 -0.1400
22435W        W38569   2.333   2.048  14.675 -0.0382 -0.1597 -0.0221
22436W        W38570   7.688   5.257  14.335 -0.2215 -0.2672 -0.3616
22437W        W38571   4.574   3.078   2.229  0.1873  0.0300 -0.2332
22438W        W38572  10.389  12.208  11.766 -0.2943 -0.4560  0.2706
22439W        W38573  10.918   7.111   2.390  0.1030 -0.0752  0.4602
22440W        W38574   4.737   2.799  11.299  0.1957  0.0744 -0.0926
22441W        W38575   6.297   1.773   4.878 -0.0895  0.2413 -0.4339
22442W        W38576  12.720  19.118   0.087 -0.0256 -0.3676  0.0012
22443W        W38577  11.104   2.733  14.871 -0.0768 -0.3156 -0.2273
22444W        W38578  11.703   9.860   2.377 -0.2485 -0.1399  0.1857
22445W        W38579  11.029  13.442   1.308  0.1221 -0.1455 -0.2072
22446W        W38580   9.840   6.947   5.350  0.2601  0.0400  0.4093
22447W        W38581  13.613  14.907   4.061 -0.0335  0.1359  0.0447
22448W        W38582  17.652   6.878   4.311  0.0242  0.2586  0.2772
22449W        W38583  12.910  15.231  11.212 -0.2348 -0.0174 -0.1104
22450W        W38584  17.758   1.285  10.941  0.1726 -0.3226 -0.0906
22451W        W38585   1.636  10.268  13.296 -0.2816  0.1942 -0.0847
22452W        W38586  17.758   4.079  10.894 -0.1851  0.3649  0.2650
22453W        W38587   7.465  12.295   3.565  0.1111 -0.2352  0.2798
22454W        W38588  12.963   4.683  13.895  0.1540 -0.3132 -0.1039
22455W        W38589   6.185  18.419  13.032  0.3026 -0.0520  0.0911
22456W        W38590  16.988  10.923  11.216  0.3275  0.1675 -0.0149
22457W        W38591  16.337  17.958   1.136 -0.0501 -0.1835 -0.1308
22458W        W38592  10.353   8.342  14.994  0.0372 -0.0227 -0.3269
22459W        W38593   2.448   9.837  12.146  0.2183 -0.0252  0.1525
22460W        W38594  14.689  16.635   0.287  0.0844  0.1991  0.1060
22461W        W38595   3.073  12.040   1.031  0.0596 -0.1071 -0.3656
22462W        W38596  10.235   8.078  11.010 -0.0278 -0.1719  0.0757
22463W        W38597   0.394   1.482   2.619  0.0375 -0.0612 -0.1014
22464W        W38598  13.825   5.568   1.975 -0.1032 -0.0028 -0.0533
22465W        W38599   9.574   9.338   1.400 -0.0239 -0.1735 -0.3639
22466W        W38600  17.431  18.674   3.151  0.0247  0.2140  0.1379
22467W        W38601  14.064  10.995  14.697  0.1395 -0.1661 -0.1387
22468W        W38602  17.482   3.701   3.175 -0.1018 -0.1967 -0.1063
22469W        W38603   2.507   1.902   1.981  0.0338  0.2531  0.0729
22470W        W38604   8.830   7.244   3.968  0.2823 -0.1067 -0.0498
22471W        W38605   8.901  13.287   5.047  0.1542  0.3083  0.2342
22472W        W38606  10.078   9.166   3.010 -0.0991  0.1054 -0.0483
22473W        W38607  12.361   7.810  15.029 -0.2195 -0.3352 -0.2460
22474W        W38608   8.335  14.652  14.920  0.0410  0.1443 -0.4000
22475W        W38609  13.431  11.619   4.143 -0.1586 -0.1874 -0.1700
22476W        W38610   4.633   4.386   3.734  0.0163  0.1498  0.2112
22477W        W38611   1.959  19.144   1.621  0.1154  0.1334  0.0024
22478W        W38612  14.360  10.495  10.475  0.0200  0.3450 -0.0537
22479W        W38613  13.139  11.673  12.312 -0.2331  0.0271 -0.0064
22480W        W38614   7.320  14.841   0.592 -0.1115 -0.2821  0.1264
22481W        W38615  11.442  17.315   5.699  0.0971 -0.0257 -0.4035
22482W        W38616  11.780  14.792  12.167  0.2415  0.0928  0.2412
22483W        W38617  11.435  16.633  12.296 -0.1788  0.1881  0.1589
22484W        W38618   0.919   1.345   0.637  0.2062 -0.0814  0.0413
22485W        W38619   0.921   2.873   2.311  0.1256  0.0198 -0.0835
22486W        W38620   3.656  18.721   5.181  0.0086  0.2657 -0.3044
22487W        W38621  17.903  12.355  12.369 -0.1110 -0.0942 -0.2748
22488W        W38622  17.207   1.465  14.827 -0.2156  0.0653 -0.0353
22489W        W38623  10.771  12.633  13.922 -0.0007  0.1368  0.0011
22490W        W38624  10.700   2.501   0.396 -0.2301  0.3693 -0.0817
22491W        W38625   2.028  18.343   0.947 -0.2488 -0.1454  0.3307
22492W        W38626  14.446  17.418  11.318  0.1394  0.1961  0.0108
22493W        W38627   1.640   5.653  12.801  0.0398 -0.3039 -0.0397
22494W        W38628  17.945  13.444   2.084  0.2570 -0.2657 -0.0129
22495W        W38629   1.317   3.180  12.499  0.1678  0.2391 -0.0316
22496W        W38630   6.292   5.994   5.059 -0.0385 -0.1196 -0.0943
22497W        W38631   0.955   5.851  11.275 -0.2573  0.0014 -0.1493
22498W        W38632   3.412   0.601   3.855 -0.1276 -0.0703  0.4395
22499W        W38633  12.408   6.119  14.745  0.0667 -0.1862 -0.3201
22500W        W38634  16.578   0.120   5.232  0.0026 -0.0555  0.0841
22501W        W38635  12.103  13.947  13.906 -0.0889 -0.1888 -0.2620
22502W        W38636   5.133  13.783  12.101 -0.0363 -0.1213  0.1192
22503W        W38637  17.199   2.898  12.039 -0.0387  0.0680 -0.0418
22504W        W38638   3.419  12.172  10.859 -0.0311  0.1249  0.0083
22505W        W38639   8.290  18.822   1.346  0.2974  0.0356 -0.0306
22506W        W38640  18.746   2.528  12.785  0.0012 -0.1218  0.0340
22507W        W38641  10.380  12.210   2.391  0.0072 -0.1479 -0.1856
22508W        W38642  18.858  15.004   0.894  0.1625 -0.0932 -0.1480
22509W        W38643   5.261  15.549   1.173  0.1713 -0.0576  0.2959
22510W        W38644   7.980  14.562   3.977  0.1257 -0.2732 -0.1892
22511W        W38645   2.101   7.845  12.176 -0.0207  0.0542  0.1061
22512W        W38646   6.661  17.635  11.477 -0.0226  0.0302 -0.2205
22513W        W38647   5.684   6.569  13.030  0.1007 -0.0062  0.1678
22514W        W38648   3.277   2.330  10.974  0.2396 -0.0274  0.1654
22515W        W38649  17.553   4.369  14.251  0.0575  0.1683 -0.0684
22516W        W38650   9.044   1.872  13.350 -0.0100  0.2835  0.0475
22517W        W38651  15.436  17.348  10.419  0.1248 -0.0976  0.1728
22518W        W38652   4.375  10.704  10.430 -0.0078  0.1485  0.1169
22519W        W38653   3.664   8.663  13.023  0.1344 -0.0751  0.0482
22520W        W38654  16.410  12.029  12.555  0.0642 -0.2122  0.1741
22521W        W38655  18.899  16.903  13.733  0.0102  0.0519  0.1872
22522W        W38656  15.462  18.642   2.298  0.0869  0.1033 -0.0612
22523W        W38657  15.609   8.477  10.480  0.2001  0.4146 -0.2655
22524W        W38658   5.319   4.091   0.450 -0.2482  0.0842 -0.4224
22525W        W38659  12.966   2.761  14.261  0.0605  0.2247 -0.2266
22526W        W38660   9.917  17.302  13.487  0.1626 -0.1127  0.0080
22527W        W38661  15.109   9.804   4.925 -0.0325  0.1284 -0.0830
22528W        W38662   2.023  15.806  12.626  0.1713  0.0841 -0.0970
22529W        W38663   7.205   0.310   5.380 -0.1080 -0.4317 -0.0933
22530W        W38664   4.955  17.868   0.086 -0.2820 -0.3533 -0.3247
22531W        W38665   1.562  15.763   3.526  0.3254  0.0130  0.2640
22532W        W38666   3.606   8.895   0.029 -0.1785  0.0466 -0.1546
22533W        W38667  11.854   2.228  12.268  0.1274  0.0024 -0.0627
22534W        W38668   5.275   0.630  11.410 -0.2535 -0.0776  0.2134
22535W        W38669  11.413  16.904  13.081 -0.1583  0.0495  0.0860
22536W        W38670   7.532  10.719   1.073 -0.1296 -0.2348  0.2299
22537W        W38671  13.498  12.677   1.816  0.0052 -0.1321 -0.0775
22538W        W38672   3.443  15.926  12.928 -0.0565 -0.0493 -0.2129
22539W        W38673   8.160   0.637   4.557 -0.0159  0.1695  0.1130
22540W        W38674  14.260  11.823   3.944 -0.2311  0.2424 -0.0730
22541W        W38675   9.457   4.522  11.900  0.0130 -0.2240 -0.3087
22542W        W38676   3.439   6.925   3.584  0.0899 -0.2751 -0.1134
22543W        W38677  12.608   5.615   2.577  0.1809  0.0976  0.2117
22544W        W38678   1.087  18.312  12.916  0.4657  0.0111  0.5123
22545W        W38679   8.547  11.901   2.582 -0.0289 -0.0982 -0.0711
22546W        W38680  12.609   4.506  11.758 -0.0404 -0.3606 -0.0201
22547W        W38681   1.387   6.402   3.494  0.3682 -0.0302 -0.2202
22548W        W38682  13.645   4.960   1.185  0.0451 -0.0995 -0.1198
22549W        W38683   9.126   2.185  14.923 -0.1555 -0.0385 -0.2008
22550W        W38684  12.365  17.922   4.284 -0.1052  0.0215  0.2525
22551W        W38685   5.966   2.344   1.801  0.1467 -0.2918 -0.0840
22552W        W38686   4.199  10.238   2.386 -0.1639 -0.3621 -0.0918
22553W        W38687  10.763   3.686   0.360  0.0762  0.0815  0.2292
22554W        W38688  15.778   7.077  13.326 -0.0086 -0.0711 -0.0458
22555W        W38689   5.886  16.751   4.291  0.1803 -0.2562 -0.1838
22556W        W38690   5.032   9.462   4.069  0.0479 -0.0015 -0.0082
22557W        W38691  11.682   9.963   1.402  0.0582  0.0729 -0.1973
22558W        W38692   2.401   3.173   2.274 -0.0846 -0.0922 -0.0176
22559W        W38693   7.607  12.329  11.935  0.3811  0.3880 -0.0410
22560W        W38694   2.618   1.115  12.164  0.2431  0.0721 -0.3128
22561W        W38695  12.604   8.054  12.206 -0.1825 -0.1984 -0.0502
22562W        W38696  14.990  15.615   5.009  0.1690 -0.0335  0.0492
22563W        W38697   6.972   1.354   2.314 -0.2250 -0.0106 -0.1788
22564W        W38698   4.348   2.530   3.058  0.3668 -0.0246  0.2115
22565W        W38699   5.406  11.772  10.296 -0.4474  0.1599 -0.3813
22566W        W38700  14.412  11.360   0.604 -0.1096  0.1154  0.2271
22567W        W38701   4.341   4.991  10.729 -0.1135  0.3025 -0.3284
22568W        W38702  15.940  15.169   2.883 -0.1514 -0.0584  0.1576
22569W        W38703   7.870   5.179  12.531  0.1406 -0.2398 -0.0059
22570W        W38704   4.905   0.907   1.667 -0.2114  0.2615  0.4056
22571W        W38705  15.806  10.102   0.836  0.0558  0.2164  0.0014
22572W        W38706   1.068  15.548  13.333  0.0854  0.3029  0.0795
22573W        W38707   0.193   3.107   1.505 -0.3760  0.3629 -0.0529
22574W        W38708   7.299  10.128   2.665  0.3714 -0.1277  0.2363
22575W        W38709  12.949  17.522   2.285 -0.2661  0.3826  0.1135
22576W        W38710  13.996  17.703  10.536 -0.4212  0.0026  0.1769
22577W        W38711  10.715   6.049  11.067  0.1512  0.0046  0.1962
22578W        W38712   5.085   4.000  12.822 -0.0347 -0.0086  0.2967
22579W        W38713   2.737  16.891  14.557 -0.4354  0.2128  0.1348
22580W        W38714   1.687   3.181   1.078  0.1873  0.1318  0.0615
22581W        W38715  17.606  10.290   3.020  0.1103  0.0414 -0.0662
22582W        W38716  16.784   8.923  13.599  0.0837  0.1472 -0.2878
22583W        W38717  14.635   5.758   3.646 -0.0130  0.1598  0.1114
22584W        W38718   9.518  14.852   0.112 -0.0639 -0.0986 -0.0454
22585W        W38719   3.970  14.129   4.123  0.4368 -0.2329 -0.4343
22586W        W38720   1.692   0.056   5.360 -0.1095  0.1987 -0.2370
22587W        W38721  15.882  18.579  11.362  0.1806  0.2324  0.0128
22588W        W38722   9.681   2.166   4.062 -0.0572 -0.0965 -0.0188
22589W        W38723  13.053   0.690   3.860  0.2238 -0.3039  0.2661
22590W        W38724   8.749  15.018   2.388  0.1412  0.6100 -0.0425
22591W        W38725   2.475   9.315  14.488  0.2025  0.0615 -0.2161
22592W        W38726  12.591  10.358   3.550 -0.1834  0.0415 -0.0853
22593W        W38727   5.937   3.851   3.057  0.0980  0.0120  0.0154
22594W        W38728  15.331  17.701  12.227  0.1518  0.1103 -0.2775
22595W        W38729   8.073  13.805  12.256 -0.0284 -0.0865 -0.1229
22596W        W38730   5.099   0.944   4.490 -0.0244 -0.0930  0.2910
22597W        W38731   3.235  12.167  11.711 -0.1459 -0.4590 -0.0366
22598W        W38732   7.686  13.401   2.841  0.0826  0.1020 -0.0884
22599W        W38733   1.912   7.602   5.539 -0.3156 -0.1484 -0.0784
22600W        W38734  18.708   5.688  14.811  0.1193  0.1767 -0.0316
22601W        W38735  11.840   4.385   0.928  0.4163  0.0880 -0.0214
22602W        W38736   1.023   9.442   3.540  0.0984  0.0524  0.1534
22603W        W38737  12.899   1.216   3.845  0.0132  0.4677  0.0527
22604W        W38738   2.107  18.586   0.501  0.2293  0.0566 -0.0390
22605W        W38739  10.521  15.766  10.987  0.1051  0.0287  0.3815
22606W        W38740  16.536  19.028  12.533 -0.0460  0.0445 -0.2182
22607W        W38741  16.921  16.751  13.675  0.0966  0.0090  0.0271
22608W        W38742   4.796   3.811  11.325  0.0407 -0.3354 -0.0175
22609W        W38743   3.227  16.276   0.718  0.1034  0.3817 -0.0525
22610W        W38744  10.045   9.000  10.690 -0.1758 -0.0769 -0.0364
22611W        W38745  10.963   4.228   0.534  0.3691  0.0972 -0.1574
22612W        W38746   2.242  13.575   0.574  0.0476  0.3116 -0.2429
22613W        W38747  10.893  14.979   3.222 -0.1295 -0.0979  0.5501
22614W        W38748   8.434  10.356   1.568  0.1643  0.0791  0.0214
22615W        W38749  16.935   9.315  10.210 -0.1447 -0.3002 -0.0130
22616W        W38750   2.870  13.693   5.714  0.1234 -0.1403  0.0226
22617W        W38751  13.277  14.969   2.003 -0.3751  0.2838  0.0153
22618W        W38752   4.279  17.045   4.953 -0.3858  0.0113 -0.0818
22619W        W38753   8.081   5.354   3.662  0.1029  0.3263  0.1479
22620W        W38754  18.317   3.236   1.231  0.0846  0.1653  0.2632
22621W        W38755  18.035   2.725  10.987 -0.0468 -0.0569 -0.0545
22622W        W38756   7.028   1.931   1.161  0.1183 -0.1357 -0.0710
22623W        W38757   1.523  13.814  14.744 -0.0754  0.0220 -0.1027
22624W        W38758   0.311   8.786  13.391  0.0738  0.1387 -0.2037
22625W        W38759  10.757   9.826   2.280  0.0054 -0.0002 -0.2132
22626W        W38760  17.490   1.174   5.420 -0.1029 -0.0754 -0.0506
22627W        W38761   9.639   6.567  12.400  0.1869  0.0927  0.2041
22628W        W38762  16.662   2.902   3.949  0.0274  0.0325  0.0925
22629W        W38763   6.415  14.329  14.181 -0.2706 -0.2624  0.0577
22630W        W38764   8.946   1.741  14.900  0.1958 -0.2481  0.1930
22631W        W38765  18.294   2.795  12.585 -0.2780 -0.0720  0.2026
22632W        W38766   2.704   1.068  11.573 -0.2010 -0.1287  0.0806
22633W        W38767   0.257   6.529  12.319  0.2808  0.1918 -0.0102
22634W        W38768   9.812   8.604   0.400  0.1715 -0.0921  0.0976
22635W        W38769  15.902  16.586   3.441 -0.0515 -0.1397 -0.0899
22636W        W38770   9.356   4.432   2.154 -0.2850 -0.2990 -0.3627
22637W        W38771   2.281   9.177  12.597 -0.1873  0.0552  0.4225
22638W        W38772   2.671   8.975   4.398 -0.1557  0.0229 -0.2123
22639W        W38773   8.474  15.932  13.973  0.0382  0.3157  0.1705
22640W        W38774   0.666  10.686  15.151  0.1511  0.4636  0.2562
22641W        W38775  10.037  14.006   3.299  0.2476 -0.3065  0.4017
22642W        W38776  13.691   1.031  12.509 -0.2592  0.2322  0.1491
22643W        W38777   6.035   4.099  12.635 -0.0901  0.2950 -0.0702
22644W        W38778   2.422  10.678  11.564  0.1548 -0.1163 -0.2832
22645W        W38779   2.783   7.322  12.426 -0.0860 -0.1185  0.0798
22646W        W38780   7.223   4.878  13.240 -0.0988 -0.4150 -0.0016
22647W        W38781   0.421   8.442  14.680 -0.0675  0.2028 -0.0190
22648W        W38782  18.108  18.681  13.958 -0.2516  0.2201 -0.0866
22649W        W38783  15.006  10.969  13.183  0.6064  0.1984  0.0559
22650W        W38784  12.612  13.371   1.477 -0.0190 -0.0979 -0.0289
22651W        W38785   7.849   5.694   2.773 -0.0549  0.0458  0.1877
22652W        W38786   3.198  18.842   4.140  0.0124  0.4891 -0.0107
22653W        W38787   6.860   9.323   2.515  0.0214 -0.3074 -0.0964
22654W        W38788   6.209   2.602  12.712 -0.1587  0.0982 -0.0261
22655W        W38789   4.612   8.030   4.850 -0.0580 -0.0918  0.4119
22656W        W38790   9.677  11.442  11.956 -0.0589  0.2923  0.1898
22657W        W38791  16.265   3.820   3.416  0.0387  0.1227  0.1519
22658W        W38792   7.778  11.870   2.446  0.0570  0.4395  0.1759
22659W        W38793   9.443  15.281   5.070 -0.0979  0.1904 -0.0021
22660W        W38794   2.417  10.174   4.201 -0.1038  0.0717 -0.2374
22661W        W38795  13.039  11.306   0.159  0.0132 -0.1337  0.0524
22662W        W38796  11.813   5.663  11.542 -0.0449  0.2230 -0.3618
22663W        W38797  17.394   6.613  12.402  0.0910 -0.0067  0.4378
22664W        W38798  10.577   9.843  11.781  0.0054  0.1406 -0.4548
22665W        W38799   4.519   5.019   3.475  0.4291 -0.1836 -0.3549
22666W        W38800  16.524   3.380   0.813 -0.3496 -0.1338  0.4051
22667W        W38801  17.560  15.522   1.247 -0.1550  0.1411 -0.0278
22668W        W38802   4.074  12.283   2.625  0.0372  0.1001  0.1619
22669W        W38803   7.580  18.575   1.637 -0.0412 -0.2523  0.2270
22670W        W38804   5.181  10.093   4.024  0.0482 -0.2855 -0.0289
22671W        W38805  18.225   7.599  14.779  0.2535 -0.1969  0.1129
22672W        W38806   0.093  14.626  13.091  0.1291  0.2614  0.2362
22673W        W38807   1.130   9.104   1.350 -0.1617 -0.1975  0.2152
22674W        W38808   9.807   2.724  14.596  0.3025  0.3468 -0.0751
22675W        W38809  16.815  18.322   2.539 -0.2178 -0.1869  0.1667
22676W        W38810  12.903  16.810  10.653  0.1527  0.1523  0.1226
22677W        W38811   5.968   3.020  11.036 -0.1201 -0.0182  0.0127
22678W        W38812  18.767   6.630  15.201  0.1904 -0.2577  0.0377
22679W        W38813   1.305   4.106   0.912  0.1083 -0.3949 -0.1933
22680W        W38814  12.272  16.925   1.583 -0.0172  0.0425 -0.0479
22681W        W38815   3.106  13.710  11.615 -0.4434  0.1072 -0.2730
22682W        W38816   8.381   7.041   6.084 -0.1128  0.0347  0.0348
22683W        W38817  18.189   1.029  14.839  0.2199  0.0181 -0.1310
22684W        W38818   4.292   3.405   2.765 -0.0855  0.2799  0.2563
22685W        W38819   4.219  15.356  14.928 -0.1589  0.0177  0.2297
22686W        W38820  13.509  15.895   3.768  0.1367 -0.2558  0.0818
22687W        W38821   9.547  10.337  10.497  0.1382 -0.2162  0.0884
22688W        W38822   9.049   7.113  12.957 -0.2043 -0.0156 -0.1121
22689W        W38823   4.966  17.576   4.998 -0.0420  0.1354 -0.2198
22690W        W38824   0.819  17.748   0.643  0.1651 -0.1870 -0.5559
22691W        W38825   5.214   1.652  14.661 -0.0004 -0.0195 -0.0985
22692W        W38826  17.810   9.814  13.382 -0.0115  0.2614 -0.1230
22693W        W38827   9.042   9.877   3.526  0.1908 -0.0346  0.0161
22694W        W38828  11.859   1.612  12.978  0.0815  0.1311 -0.0788
22695W        W38829  15.637  11.134   1.004 -0.5101 -0.0070 -0.3172
22696W        W38830   1.164   7.182  13.581  0.0840 -0.2052 -0.1958
22697W        W38831   7.634  18.201   0.439 -0.1727 -0.1584 -0.0069
22698W        W38832   7.118  17.810   4.837  0.0634  0.1991  0.0739
22699W        W38833   5.359  18.231   4.000  0.1812  0.0187  0.2163
22700W        W38834   2.228  15.279   1.687  0.3364  0.1958 -0.2150
22701W        W38835  13.419   4.349  12.254  0.3729  0.0972  0.0916
22702W        W38836  18.627  11.233  11.961  0.0069  0.2184 -0.1141
22703W        W38837  16.583  11.218  11.427  0.1088  0.1388  0.0559
22704W        W38838   5.127  14.104   5.432 -0.2259 -0.1002 -0.2306
22705W        W38839   1.335   7.998  12.815 -0.1716 -0.0535 -0.0382
22706W        W38840  14.477  14.861   0.607  0.0832 -0.1773 -0.0544
22707W        W38841   9.769   8.667  12.734 -0.1366 -0.0248 -0.1229
22708W        W38842  18.453   0.594   0.988 -0.0754 -0.0483  0.0322
22709W        W38843   6.952  13.450  13.052 -0.0119  0.0644 -0.2674
22710W        W38844   4.713  12.236   5.059  0.1274 -0.1170  0.1854
22711W        W38845  15.748   9.327   1.741 -0.1137 -0.0369  0.1622
22712W        W38846  10.682  17.103  14.529 -0.3519 -0.1487 -0.2189
22713W        W38847   3.805   0.983   3.677  0.2510 -0.1011 -0.0713
22714W        W38848   7.008  11.924   0.335  0.0972 -0.0388  0.2874
22715W        W38849  16.010   3.142   0.707 -0.0570 -0.2627  0.1197
22716W        W38850   3.510  12.220  14.986 -0.1134  0.1082  0.1915
22717W        W38851  11.833   8.067   1.894 -0.0246 -0.0650  0.1937
22718W        W38852   4.280   4.995   5.160  0.3428  0.0697  0.0588
22719W        W38853  14.152   9.608   9.858 -0.1751  0.0970 -0.0643
22720W        W38854  11.804  11.799  15.089  0.0479  0.1266  0.0971
22721W        W38855  16.478   8.684   3.427 -0.0867  0.0395  0.0543
22722W        W38856  19.006   4.122  14.912  0.0529 -0.0753 -0.2114
22723W        W38857   4.847   5.059  13.713  0.2353  0.2219  0.0715
22724W        W38858  18.802  15.317   2.751 -0.1607  0.1825 -0.1351
22725W        W38859  18.845   5.260   4.341 -0.0564 -0.1058 -0.2818
22726W        W38860   9.675  16.326  11.482  0.0864  0.0036  0.0063
22727W        W38861   5.546   3.306  10.863 -0.1024  0.0295  0.0674
22728W        W38862   2.334  13.142   2.576  0.0835 -0.1053 -0.1708
22729W        W38863   4.164   4.268   4.538  0.2227 -0.2608 -0.0051
22730W        W38864  18.853  18.962  14.694  0.0591  0.0273 -0.0434
22731W        W38865  16.114  12.393  14.874 -0.3285  0.2294 -0.0551
22732W        W38866  17.478  17.431  10.638  0.0418 -0.3190  0.3389
22733W        W38867   0.099   8.371  10.939  0.4939 -0.0943  0.2229
22734W        W38868   9.450   2.264   1.733 -0.3020 -0.2690  0.2324
22735W        W38869  12.116   4.215   1.884  0.2343 -0.2389 -0.1274
22736W        W38870  17.497   9.962  12.501  0.0638  0.1743  0.0711
22737W        W38871  14.968   6.602   4.580  0.3621 -0.0405  0.1983
22738W        W38872  17.313   2.060   1.289 -0.0096 -0.1910 -0.0665
22739W        W38873   7.855   8.317  14.516  0.1711  0.2089  0.4406
22740W        W38874   9.155  10.126  13.260  0.2996 -0.3256 -0.1741
22741W        W38875  12.230  17.891   2.784 -0.0273 -0.1248 -0.1400
22742W        W38876   1.753   5.152   3.721 -0.1389  0.0510  0.0316
22743W        W38877   3.373   9.581   0.641  0.3300 -0.1089 -0.1781
22744W        W38878   0.621   0.427   0.283  0.0302  0.2185  0.0800
22745W        W38879   6.871   9.851   2.402 -0.0693  0.0185  0.2075
22746W        W38880  15.364   1.208   2.500  0.0676  0.0679  0.2510
22747W        W38881  15.999   5.085   4.324  0.1451  0.0141 -0.0526
22748W        W38882   7.814  10.481   3.641  0.0574  0.0995 -0.3309
22749W        W38883  10.792  15.881   3.058 -0.0582  0.0277 -0.1293
22750W        W38884  18.218   6.766  11.649 -0.0180 -0.1537 -0.0101
22751W        W38885   5.051   1.106   3.044 -0.0848  0.2527  0.2095
22752W        W38886   9.636  13.385  14.654 -0.0467 -0.0252 -0.3561
22753W        W38887   6.666   5.433  15.184  0.1867  0.0244 -0.0258
22754W        W38888   1.385   7.409   3.780 -0.0582  0.0179 -0.3651
22755W        W38889   8.180  17.170   4.053  0.0360  0.0473  0.1769
22756W        W38890   9.547  17.216  14.487  0.1010 -0.2089 -0.0319
22757W        W38891   8.865   7.176   3.062 -0.1099 -0.3595  0.0593
22758W        W38892   6.833   3.951  12.116 -0.2353  0.2476 -0.0521
22759W        W38893   6.601   9.011  13.404 -0.4908  0.1211 -0.0657
22760W        W38894  18.660  15.789   2.829 -0.1588  0.0804  0.1333
22761W        W38895  14.441  10.424   1.903 -0.0830 -0.1311 -0.2970
22762W        W38896   8.723  13.038  12.581 -0.4573 -0.2557 -0.3975
22763W        W38897  14.222  11.418  15.022  0.1921  0.1104  0.0335
22764W        W38898   2.695  13.533  14.321  0.0367  0.0398 -0.1228
22765W        W38899   0.397  16.663  12.039  0.0849  0.2490  0.0482
22766W        W38900   8.796   5.352  11.448  0.0653  0.2020  0.2301
22767W        W38901   5.667  12.639   4.612 -0.0355 -0.1532 -0.4911
22768W        W38902   0.147  14.712   3.172 -0.0244  0.0629 -0.0618
22769W        W38903   5.933  14.579  12.435  0.1972  0.1604 -0.2009
22770W        W38904   5.048   0.985   0.568  0.0674 -0.2183 -0.3813
22771W        W38905   8.989   1.675  12.034  0.2814 -0.1732 -0.0771
22772W        W38906   8.447  12.478   0.834 -0.1350 -0.3175  0.2405
22773W        W38907  14.667   8.382   4.393  0.0013  0.0250 -0.0365
22774W        W38908   1.004   7.870  10.916 -0.1138  0.1575  0.0934
22775W        W38909  10.743  17.318  11.848 -0.1100 -0.0290  0.2620
22776W        W38910  12.670  11.140   1.281 -0.2709  0.0208 -0.0232
22777W        W38911   0.404  12.598  12.970  0.0975  0.0214 -0.4155
22778W        W38912  10.960   7.847   0.453  0.2499 -0.0405  0.0937
22779W        W38913  15.191   6.089  13.932  0.1194  0.0527 -0.1887
22780W        W38914   8.085   1.125   3.012 -0.1926 -0.2274 -0.0614
22781W        W38915  12.185  18.969  12.409  0.0675  0.0222  0.0366
22782W        W38916  13.564  12.786   0.521 -0.2053  0.2813  0.0577
22783W        W38917   8.720  12.454   3.807  0.0101 -0.1195  0.0816
22784W        W38918   6.644  18.128   5.047 -0.1116 -0.0529 -0.0831
22785W        W38919   9.959  15.824  13.101  0.0966 -0.1328 -0.0616
22786W        W38920  10.135  15.179   3.610  0.2545 -0.0585  0.2687
22787W        W38921   5.188   3.575   0.526  0.4116 -0.1865 -0.0216
22788W        W38922   5.744   0.270   4.263  0.2902 -0.0412  0.0164
22789W        W38923  18.086   7.125   2.642  0.0278 -0.1419  0.1261
22790W        W38924  10.989   2.504   4.722  0.0595  0.1879  0.1668
22791W        W38925   8.599   4.352   2.083 -0.0004 -0.2394  0.0556
22792W        W38926   3.943   8.315   2.673  0.0895  0.1784  0.3841
22793W        W38927   5.662   1.692  11.201 -0.1230  0.0089  0.0389
22794W        W38928  12.595   5.750   0.352 -0.3304  0.0519 -0.0545
22795W        W38929   2.031   2.380  11.409  0.5179 -0.0366  0.0495
22796W        W38930  12.772  16.761  11.616  0.0393  0.0115  0.0064
22797W        W38931   6.190   2.826   4.736  0.4474  0.0245 -0.0364
22798W        W38932   3.758   6.408  13.951  0.0656 -0.1196 -0.1497
22799W        W38933   2.705  17.436  14.856  0.1567  0.2162  0.0869
22800W        W38934   3.751   0.874   0.388  0.1041 -0.1298 -0.0947
22801W        W38935   2.926   9.346   1.030  0.0868  0.0548  0.1299
22802W        W38936   8.602  16.814  14.804 -0.2704 -0.2584 -0.1829
22803W        W38937  18.438   9.565   5.226 -0.1433 -0.1189  0.0088
22804W        W38938  13.041   9.788   0.350  0.2775  0.1259 -0.2583
22805W        W38939   9.441   8.124  10.159 -0.2575 -0.0097  0.2174
22806W        W38940   3.094   5.802   0.816 -0.3028 -0.1354  0.3356
22807W        W38941   2.072  19.100  12.296 -0.1398 -0.1943  0.2070
22808W        W38942   5.892  17.858   4.508 -0.1235  0.3906 -0.1507
22809W        W38943  10.486  13.936   4.870  0.0263 -0.0560 -0.2587
22810W        W38944   4.028   2.350  11.637  0.4719  0.0021  0.0648
22811W        W38945   2.065   9.038  13.662 -0.0665 -0.1603  0.1878
22812W        W38946  14.604  18.494  11.509  0.0683  0.2184  0.0067
22813W        W38947  17.352  12.105  15.086  0.0751 -0.2421  0.0697
22814W        W38948  15.161  15.222   3.973  0.0130 -0.1936 -0.0029
22815W        W38949   3.589  13.123  11.934  0.0676  0.1476 -0.0703
22816W        W38950  12.596   2.495   0.482  0.0672  0.0762  0.0158
22817W        W38951   7.282  16.903  11.862 -0.1028 -0.4627 -0.1282
22818W        W38952  17.628   9.252  15.092 -0.2189  0.0509 -0.1971
22819W        W38953   8.814  14.449   4.225  0.1611  0.2220  0.0020
22820W        W38954   0.873  13.949   1.164 -0.2048  0.1794 -0.0486
22821W        W38955   2.243   4.419   1.209 -0.2682  0.0302 -0.2801
22822W        W38956   4.592   1.387   4.725 -0.0751 -0.1973 -0.2789
22823W        W38957   6.100   4.377  11.148  0.2156 -0.0954  0.1178
22824W        W38958   9.315  17.933  10.781 -0.0066 -0.1435 -0.1768
22825W        W38959  18.815   0.737   3.764 -0.1160 -0.1712 -0.0756
22826W        W38960   2.073  16.373   3.117 -0.1436 -0.1584 -0.0364
22827W        W38961  15.746  15.792   1.563 -0.1421  0.0085 -0.4372
22828W        W38962   2.586   6.292   3.181 -0.0257 -0.0268  0.1168
22829W        W38963   8.617   9.406  14.933  0.1063 -0.1595 -0.0660
22830W        W38964   7.611  16.699  14.335  0.0238 -0.1057 -0.3331
22831W        W38965  18.961  13.575  12.826  0.1206  0.1638  0.3355
22832W        W38966   5.922  12.581  11.135  0.1975 -0.0767 -0.1312
22833W        W38967  11.989   1.153   2.857  0.2343 -0.0748 -0.1189
22834W        W38968  18.434   7.678  14.251 -0.4444  0.0528 -0.0328
22835W        W38969   8.606  15.246   6.252  0.0177 -0.2932  0.2073
22836W        W38970  18.181   5.018   1.646 -0.0014  0.2927 -0.2337
22837W        W38971   4.058   1.282  13.365 -0.3618 -0.3487  0.0353
22838W        W38972   2.163   0.305   1.266 -0.2618  0.1185  0.1917
22839W        W38973   7.794  18.216   3.236  0.3436  0.0424  0.1179
22840W        W38974  11.970   1.317   2.263 -0.2365  0.2012  0.0884
22841W        W38975   3.719  10.162   2.335  0.1247  0.0859  0.0027
22842W        W38976   8.953  17.596  13.202 -0.2976 -0.1449  0.2316
22843W        W38977  17.111  18.107   4.229 -0.1252 -0.0800  0.2400
22844W        W38978  15.499  12.260  13.188 -0.0174 -0.4115 -0.3173
22845W        W38979  12.245   4.124   1.099  0.0786 -0.3618  0.1122
22846W        W38980   9.828  16.340   0.083  0.1534 -0.2987 -0.3602
22847W        W38981  18.977   6.625  14.479  0.4907 -0.0618  0.0886
22848W        W38982   4.006  11.505   3.150  0.1222  0.0929 -0.4188
22849W        W38983  10.783  10.301   6.130  0.1107 -0.1135 -0.0009
22850W        W38984   4.617  16.800  12.742  0.2226 -0.0354  0.0259
22851W        W38985   6.329   2.775   0.329  0.1332  0.3000 -0.3236
22852W        W38986   9.401   3.499   4.858  0.2006  0.1115 -0.1309
22853W        W38987  17.361  17.387  12.305  0.0472 -0.3041 -0.0096
22854W        W38988   9.785   4.803   0.312 -0.0476  0.0013 -0.0197
22855W        W38989  16.898  14.652  11.628 -0.0168 -0.0144 -0.0368
22856W        W38990  10.837  17.081   2.266 -0.0841 -0.1283  0.0628
22857W        W38991   1.586  14.947   2.349  0.0173  0.3396  0.0680
22858W        W38992  13.091   8.287  12.598 -0.0204  0.1240  0.0899
22859W        W38993  17.051   4.614  13.192 -0.0651  0.0187 -0.3561
22860W        W38994   5.279  13.376   4.094 -0.1716 -0.1071  0.2386
22861W        W38995   3.953   2.319  14.533  0.1987  0.0039 -0.0007
22862W        W38996   8.157   8.658  11.452 -0.0894 -0.0384 -0.2743
22863W        W38997  10.114  15.691   6.090  0.1299  0.0691 -0.1953
22864W        W38998  15.000   2.474  12.037 -0.1656  0.1983  0.2050
22865W        W38999  10.534   9.559   1.874 -0.1534  0.1199 -0.0412
22866W        W39000   1.698  18.172  14.779  0.2166  0.3626  0.1964
22867W        W39001  10.805   8.053   2.222 -0.2919 -0.0405  0.1456
22868W        W39002   8.491   3.275   3.300 -0.1439 -0.1855  0.0921
22869W        W39003  18.349  16.538   1.100  0.0526  0.2462  0.2818
22870W        W39004  16.964  15.147  11.417 -0.2871 -0.0693  0.1440
22871W        W39005   1.288  15.814   3.059 -0.0551  0.1875  0.2931
22872W        W39006  16.651  17.210   4.792 -0.1351  0.0938  0.0124
22873W        W39007  14.142   1.383   1.846  0.0225 -0.0422  0.0718
22874W        W39008   0.250  13.146   4.149 -0.0996 -0.3759 -0.3306
22875W        W39009  15.243  12.918  12.397  0.2442 -0.1437  0.2987
22876W        W39010  13.501   4.569  14.514 -0.0846 -0.2131 -0.0436
22877W        W39011   5.941  12.436   1.779  0.0651  0.1343 -0.0721
22878W        W39012   1.843  16.178  13.925 -0.2518 -0.0402 -0.1301
22879W        W39013   1.698   4.376   1.171 -0.1525  0.1450  0.3232
22880W        W39014  19.004   4.784  12.083  0.1613 -0.0846 -0.1918
22881W        W39015   7.588  12.995  11.830 -0.2371  0.0798  0.3196
22882W        W39016   9.840   9.191  14.079 -0.0970  0.0036 -0.0560
22883W        W39017   2.099   0.913  13.339  0.1060 -0.0942  0.0131
22884W        W39018   3.319  14.160  13.894 -0.0706  0.0938  0.1720
22885W        W39019  12.482   7.076   1.764  0.0104 -0.1240 -0.1025
22886W        W39020  16.175   2.303  13.777  0.3932  0.0658 -0.5465
22887W        W39021   9.413   2.478  11.703  0.0893 -0.1007 -0.1998
22888W        W39022   6.223  14.320  14.736  0.1278  0.1254  0.0029
22889W        W39023   1.526   8.090   4.877  0.1358  0.1337 -0.1143
22890W        W39024  13.015  11.973   4.601 -0.1022  0.0472 -0.3018
22891W        W39025  13.084  11.410  13.894  0.2101 -0.1804 -0.0523
22892W        W39026   3.014   1.798   0.030  0.2824  0.1009 -0.3513
22893W        W39027   4.971  12.255   4.112  0.0310  0.2438 -0.0026
22894W        W39028   0.966  14.652   3.842  0.0551  0.0042  0.0477
22895W        W39029   3.538   9.083  10.882  0.1098  0.3025 -0.1233
22896W        W39030   5.072  16.604   4.619  0.1096 -0.1182  0.0498
22897W        W39031   1.063  17.080   4.805 -0.2645 -0.0473 -0.1718
22898W        W39032  16.974  18.527  12.845  0.0142 -0.3695 -0.1011
22899W        W39033   9.150   4.311   4.338  0.0547  0.0445  0.1368
22900W        W39034  18.748  18.458   2.459  0.2235 -0.5175  0.1843
22901W        W39035   2.756  10.281   1.220  0.0288 -0.1102  0.2223
22902W        W39036   0.084   6.677   1.289  0.0302  0.1531 -0.2116
22903W        W39037   0.351   7.539   4.210  0.2595 -0.2903 -0.0794
22904W        W39038  18.036   5.076  10.892  0.1870 -0.0358  0.2797
22905W        W39039  12.311   3.306   0.510  0.2722  0.0847  0.0453
22906W        W39040   9.935  12.078   0.683 -0.0683 -0.1643  0.1892
22907W        W39041   6.788   3.847  14.142  0.0035  0.0127  0.1151
22908W        W39042  15.154   1.109   3.512  0.4015 -0.0276 -0.0202
22909W        W39043  15.434  11.537   4.498  0.1450  0.1034  0.1592
22910W        W39044  14.274   2.980  11.883  0.1478  0.2034  0.0929
22911W        W39045  13.838   9.702  14.778 -0.3477  0.0502  0.1272
22912W        W39046  18.616  11.962   3.056 -0.0042 -0.1381 -0.1257
22913W        W39047  17.298  14.903  14.918 -0.0149 -0.1186  0.0362
22914W        W39048  17.214  11.847   4.381  0.1615  0.2883 -0.0562
22915W        W39049  17.911  11.568  11.122  0.1139  0.0697 -0.0487
22916W        W39050   6.796   0.595  10.727  0.1829  0.1503 -0.1596
22917W        W39051   3.159  17.639   5.577  0.0266 -0.0631 -0.4212
22918W        W39052   1.437  15.948  14.745  0.1108 -0.1700 -0.2628
22919W        W39053  14.530  12.256  12.419  0.2082 -0.3921 -0.1805
22920W        W39054   7.869  13.908  11.385 -0.0550 -0.0550  0.1103
22921W        W39055  18.800  16.331   1.114  0.3513  0.5781  0.1276
22922W        W39056   7.691   9.373   6.315 -0.2355  0.0769  0.2847
22923W        W39057   4.356  12.953   5.734  0.1200 -0.1532  0.0405
22924W        W39058   1.116  13.627  10.405  0.1628  0.1628 -0.0782
22925W        W39059   0.645  17.113  14.650  0.0020  0.2071 -0.2644
22926W        W39060  12.227   8.104   2.751 -0.0541 -0.1076 -0.0097
22927W        W39061   9.422   9.066  14.855  0.1369  0.3109 -0.1342
22928W        W39062  10.564  16.315   4.303  0.2264 -0.1518 -0.0375
22929W        W39063   5.321  13.658  11.423 -0.2252 -0.0949  0.2003
22930W        W39064  10.362   2.735   2.284  0.1840 -0.3402 -0.0236
22931W        W39065   3.366   0.995   3.431 -0.1359  0.0527  0.0997
22932W        W39066  18.294  14.208   2.517 -0.1807  0.2737 -0.0303
22933W        W39067   4.397  18.176   5.422  0.0829  0.1570  0.1187
22934W        W39068  14.637  17.532  12.801 -0.0384 -0.0787  0.2104
22935W        W39069  18.548   1.899  11.976  0.0712 -0.3522  0.2770
22936W        W39070   7.566   6.616   1.107 -0.1300  0.0608 -0.0349
22937W        W39071   9.537   5.492  14.076 -0.2078 -0.1559 -0.1861
22938W        W39072   5.106  17.099  12.512 -0.1117 -0.0638 -0.0175
22939W        W39073  10.734  12.583  13.299  0.3885 -0.0564  0.3783
22940W        W39074  14.039  14.785   0.907  0.0641 -0.0385 -0.2693
22941W        W39075  19.143  13.028   9.385 -0.0657  0.0302  0.0210
22942W        W39076   8.887   6.588   0.853  0.2799 -0.0065  0.0607
22943W        W39077  13.437  14.758   3.531  0.0862 -0.1015  0.0909
22944W        W39078   9.440   9.331  10.436  0.1730  0.1648  0.0619
22945W        W39079  13.981   8.941   0.989 -0.1416  0.1309  0.0155
22946W        W39080  16.879  12.174  12.293  0.0970 -0.2549 -0.1659
22947W        W39081   7.068   3.711   1.566  0.3153  0.3531 -0.1561
22948W        W39082   6.110  13.404   0.679  0.2310 -0.1385 -0.2217
22949W        W39083   1.226   9.906  14.250 -0.1570  0.1515 -0.0136
22950W        W39084   8.127   4.566   2.862  0.0150  0.2462 -0.2005
22951W        W39085  18.543   4.017   4.434 -0.2854  0.3766  0.2196
22952W        W39086   3.800  11.598  11.366  0.3131  0.1824  0.0910
22953W        W39087   7.570   2.704   0.040  0.2100  0.1243 -0.1041
22954W        W39088  14.867  18.992   4.017 -0.2110 -0.0161 -0.0048
22955W        W39089  17.185  13.254  13.366  0.0176  0.1791 -0.1132
22956W        W39090   4.550  13.879   0.653  0.0052 -0.1050  0.3425
22957W        W39091   3.051   6.824  10.490 -0.0461 -0.2459  0.1669
22958W        W39092  10.570   7.172  10.230 -0.1478  0.1989 -0.1073
22959W        W39093   3.559  10.439   4.066  0.0819  0.1378  0.1974
22960W        W39094  10.410  10.876  14.359  0.2080  0.1813 -0.1386
22961W        W39095   4.691   5.517  11.758  0.2349 -0.0213 -0.2282
22962W        W39096  10.634   1.886  11.313  0.0067  0.3113 -0.0978
22963W        W39097   1.476  18.175   4.529 -0.0173 -0.5872  0.1388
22964W        W39098   9.196   4.654   0.837 -0.3685 -0.0246 -0.3897
22965W        W39099  14.979  12.392   4.060 -0.0401 -0.3401  0.0074
22966W        W39100  11.148   3.743  11.472  0.4260 -0.2915 -0.1217
22967W        W39101   7.673   4.465   2.177  0.0356  0.2629  0.0935
22968W        W39102  14.576   7.304  12.543 -0.0245  0.4460  0.0891
22969W        W39103   5.771  17.792  14.035 -0.1333 -0.2085 -0.1439
22970W        W39104  16.329  10.808   4.210 -0.1432  0.1948  0.2506
22971W        W39105   8.772  18.147  11.415  0.3001 -0.1170 -0.4677
22972W        W39106   4.441  16.551   1.623  0.0332 -0.0704  0.0326
22973W        W39107   9.146  16.440   4.595  0.3946  0.0113 -0.1766
22974W        W39108  11.149   7.203  11.618 -0.0313 -0.1925 -0.0432
22975W        W39109  10.622   7.105  13.824 -0.0262 -0.1876  0.1062
22976W        W39110   8.339  12.062  12.254  0.0688 -0.3443 -0.0039
22977W        W39111   5.223   8.811   5.007  0.0554 -0.1005  0.0910
22978W        W39112  11.579  14.475  13.142  0.2658  0.2898 -0.2087
22979W        W39113  14.358   1.597  14.948  0.0010 -0.0769  0.2109
22980W        W39114   1.096   4.324  10.824  0.1572  0.0916 -0.2476
22981W        W39115   3.011   4.886   4.602 -0.0212  0.3051 -0.6311
22982W        W39116  13.679   6.034   2.128 -0.1011 -0.0592 -0.1242
22983W        W39117   9.274  13.444  13.508 -0.0980 -0.2205 -0.0439
22984W        W39118   6.082   3.535  12.651 -0.0089  0.0963 -0.0598
22985W        W39119   4.037  14.157   2.774 -0.2979 -0.2460  0.1893
22986W        W39120   0.707   5.794  13.857  0.0437  0.0054  0.0339
22987W        W39121  10.312   1.355   3.896 -0.0035  0.0675  0.0066
22988W        W39122  18.216   7.621  10.436  0.1325 -0.1191  0.0222
22989W        W39123  10.706   1.525  12.240 -0.0733  0.0458  0.0033
22990W        W39124   5.590  15.012  14.534  0.2530  0.0487  0.0046
22991W        W39125   0.703  12.461  12.294 -0.0173 -0.1238  0.3097
22992W        W39126   2.768   8.791  13.004 -0.2666  0.2804 -0.2603
22993W        W39127  10.337  11.841   1.755 -0.0593  0.0263  0.2177
22994W        W39128  10.875  17.344   2.687  0.1181  0.1205 -0.5101
22995W        W39129   9.020  10.733  13.013 -0.0350  0.2872  0.0723
22996W        W39130   4.620   4.865  11.908  0.2166  0.1696 -0.4578
22997W        W39131  17.646   7.340   2.528 -0.0015 -0.3816 -0.0888
22998W        W39132  13.261  15.220  13.190 -0.0444 -0.1079  0.0804
22999W        W39133   7.341   5.233  13.924 -0.0726 -0.0026 -0.0653
23000W        W39134  13.848  16.629  10.689 -0.2716  0.2373  0.2314
23001W        W39135  14.668  13.383  11.846  0.1619  0.0645  0.3044
23002W        W39136  14.922  14.322  12.767  0.2044 -0.1335  0.2479
23003W        W39137  18.936   6.121  13.151  0.3553  0.0887  0.1822
23004W        W39138  14.135   9.911  11.079 -0.2235 -0.0551 -0.1097
23005W        W39139   2.726  11.808  12.900  0.1024  0.1857 -0.1962
23006W        W39140   5.354  13.310  13.349 -0.1068 -0.0308  0.5306
23007W        W39141  11.714   5.983   0.753  0.2729 -0.0229  0.2187
23008W        W39142   0.176   1.697  10.588 -0.1849 -0.0305 -0.3208
23009W        W39143  10.096  13.302   1.571  0.2382 -0.0354  0.0753
23010W        W39144  14.514   8.186  12.950 -0.0465  0.0659 -0.4046
23011W        W39145   8.138  13.071   6.293 -0.0292 -0.2327 -0.2706
23012W        W39146   8.477  17.540  10.748 -0.0909  0.1092 -0.2710
23013W        W39147  10.302   3.720  11.544 -0.5208  0.0798  0.2122
23014W        W39148  13.013   5.374   3.879  0.3028  0.4950 -0.1393
23015W        W39149  10.187  17.907  13.075 -0.1024 -0.1255  0.3731
23016W        W39150  11.399   4.451   3.775 -0.1987  0.3621 -0.1458
23017W        W39151  11.710  10.225  15.112 -0.2336  0.1796  0.2908
23018W        W39152  10.853   9.560  13.348 -0.1969  0.1769  0.1014
23019W        W39153  15.914   2.729   0.946  0.1381 -0.3987 -0.1251
23020W        W39154  11.359  17.903   0.350 -0.0099  0.1021 -0.2282
23021W        W39155  13.119   4.169   4.735  0.5881  0.1241  0.1167
23022W        W39156  16.390   5.103  11.468  0.0888 -0.0385  0.1295
23023W        W39157   2.284   6.812  13.175 -0.1640  0.3485 -0.3388
23024W        W39158  14.888  11.932   3.141 -0.0902  0.0707 -0.2419
23025W        W39159  13.838  12.767  12.884 -0.2520  0.2106  0.1063
23026W        W39160   9.248   6.163   0.745 -0.0943  0.1026 -0.1678
23027W        W39161   0.124  17.333   3.146  0.0651 -0.2243  0.2556
23028W        W39162   9.641   0.063  11.050  0.1449 -0.3293  0.0697
23029W        W39163  16.549   4.703  12.533  0.0469  0.1978 -0.1513
23030W        W39164  18.454   0.684   3.361 -0.3260  0.0855 -0.0437
23031W        W39165  14.017   6.721   2.820  0.2012 -0.0245  0.2613
23032W        W39166  19.113  16.121   4.583 -0.1339 -0.0089  0.0603
23033W        W39167   1.199   6.476   2.984  0.1008  0.0773 -0.1124
23034W        W39168  16.090  16.092   1.288  0.0576  0.1293 -0.0359
23035W        W39169   2.642  11.811   5.359 -0.1200  0.1566  0.2343
23036W        W39170   4.923   8.986   1.179  0.1399  0.0294  0.1002
23037W        W39171   5.976  18.361   0.478  0.0983  0.3907  0.1833
23038W        W39172   9.632  11.724   3.539 -0.1961  0.1547 -0.0561
23039W        W39173  10.114  15.690   3.773  0.3179 -0.0736  0.2499
23040W        W39174   2.231  11.263  10.471  0.1544 -0.2674  0.0926
23041W        W39175  15.618   1.044   3.081 -0.0513  0.1195  0.0201
23042W        W39176   5.981   1.582   1.463 -0.1784 -0.0634 -0.1087
23043W        W39177  16.556   0.601   3.575 -0.3510 -0.1623  0.0057
23044W        W39178   7.822  10.214   2.185 -0.1366  0.1490 -0.1015
23045W        W39179   5.192  18.739  14.949 -0.1339  0.1795 -0.1411
23046W        W39180   4.898   5.116  10.980 -0.3189  0.1344 -0.3564
23047W        W39181   6.001  10.592   3.630 -0.1238 -0.1385 -0.1191
23048W        W39182  10.690   9.412   5.095 -0.1346  0.0028  0.1028
23049W        W39183  12.513   9.036  13.560  0.0768  0.0180  0.2220
23050W        W39184   9.128   4.371   5.175 -0.3710  0.3894 -0.2363
23051W        W39185  16.058   9.741  11.829 -0.1582  0.2737  0.1124
23052W        W39186   9.421  11.153  11.004 -0.1281  0.2429 -0.0198
23053W        W39187  15.363  14.299   3.656  0.3168 -0.3754 -0.2009
23054W        W39188   0.563  10.940  12.881  0.0641 -0.0943  0.2639
23055W        W39189   8.735  17.856   1.083  0.1050  0.3617  0.0365
23056W        W39190   5.428  16.975   4.430 -0.0380 -0.0670  0.2002
23057W        W39191   2.466   7.658   2.775 -0.1739 -0.2197  0.1712
23058W        W39192   2.654   5.178   5.029  0.2179  0.0514  0.0582
23059W        W39193  13.761   5.164  11.690 -0.1166  0.3162  0.1248
23060W        W39194  14.455  18.559  10.705 -0.3845  0.0291 -0.0605
23061W        W39195   0.754  12.229  12.730 -0.2445 -0.1374  0.2837
23062W        W39196   4.297  10.439   1.058 -0.2832 -0.0127 -0.0672
23063W        W39197  16.017  18.601   3.976 -0.3423  0.1896 -0.0477
23064W        W39198  17.020  10.624  12.844  0.0582  0.3621 -0.0566
23065W        W39199   5.228   5.120  12.460 -0.1637 -0.0373  0.1739
23066W        W39200   6.482   4.700   4.084 -0.2367  0.2122 -0.1228
23067W        W39201  17.255   3.495  15.146 -0.0332 -0.2741  0.0508
23068W        W39202   5.089  12.234   3.078 -0.3988  0.1732  0.2407
23069W        W39203  18.309   9.944  13.592  0.1595  0.2249 -0.0171
23070W        W39204   1.672   7.197   3.419  0.1253 -0.2616  0.0510
23071W        W39205  11.922  13.430  11.878  0.2420  0.0785 -0.0580
23072W        W39206   6.807   8.422  14.068  0.0253  0.1594  0.0086
23073W        W39207   8.201   5.164  10.750  0.0949  0.3538  0.1254
23074W        W39208   1.663  12.652  14.226 -0.2250  0.3728 -0.4386
23075W        W39209  10.996  10.088  11.831  0.3655 -0.2460 -0.1120
23076W        W39210  11.161   6.559   4.347 -0.0058 -0.1475 -0.3859
23077W        W39211   1.593   4.673  14.410  0.0584 -0.0011  0.4112
23078W        W39212  13.958  17.214  14.142  0.0233 -0.0486 -0.1292
23079W        W39213   7.643  11.543  11.828 -0.1334  0.3386 -0.0083
23080W        W39214   3.254   2.008   0.463 -0.0414 -0.1072 -0.1766
23081W        W39215  18.801   3.860  12.122  0.3139 -0.0424  0.2099
23082W        W39216  15.672   3.201   3.541  0.3347 -0.0945  0.0590
23083W        W39217  19.093  14.513  12.565  0.2483  0.0089  0.0640
23084W        W39218   1.330  18.342   2.374  0.2377 -0.0364  0.0323
23085W        W39219  15.044  13.874  12.646  0.2454  0.1999  0.2059
23086W        W39220  13.042   3.898   3.213  0.0953 -0.1651  0.1984
23087W        W39221  11.116   7.996   1.331  0.0072 -0.1993  0.0160
23088W        W39222   1.046  17.887  12.705  0.0449  0.1075 -0.5798
23089W        W39223   4.190   0.134   2.242  0.4492 -0.0838  0.0806
23090W        W39224   6.291  17.149   2.487 -0.1010 -0.1673  0.0799
23091W        W39225  15.718   7.353  10.951  0.0211 -0.2251 -0.0810
23092W        W39226   7.914   3.301   0.664 -0.1348  0.2472 -0.2021
23093W        W39227  15.555   3.418  11.651 -0.1671  0.0513 -0.0559
23094W        W39228  16.144  17.531   2.796 -0.0565 -0.1896 -0.3453
23095W        W39229   1.093   9.853  11.503  0.0064  0.2944  0.2472
23096W        W39230   6.275   8.272   2.050 -0.1670  0.2324 -0.1748
23097W        W39231   3.491  11.900   3.615  0.0387 -0.1620  0.1372
23098W        W39232   8.133   3.954   3.413  0.2740 -0.1260 -0.0460
23099W        W39233  14.186  18.384  12.950  0.1367  0.0978  0.0553
23100W        W39234   6.971  14.932  11.750  0.0155 -0.0092 -0.0125
23101W        W39235   4.416   3.386   4.894 -0.0049 -0.1476  0.1912
23102W        W39236  13.774  14.797  13.900 -0.2972  0.1479  0.1462
23103W        W39237   0.966  15.958  14.066  0.0847 -0.2411  0.2059
23104W        W39238   0.093  13.867   1.154 -0.1948 -0.3384  0.1351
23105W        W39239   7.515  18.910   3.500 -0.0239  0.0181 -0.0077
23106W        W39240   6.660   6.924   2.161 -0.1212 -0.2573  0.1548
23107W        W39241  14.032  13.501  13.411 -0.0700 -0.0985 -0.2081
23108W        W39242   8.126  18.905  10.260 -0.1569  0.0578 -0.1094
23109W        W39243  15.814  11.593   3.869 -0.2578  0.1474 -0.3313
23110W        W39244  11.869   8.515   9.645  0.0833  0.1733  0.0458
23111W        W39245  16.995   3.778   4.659 -0.1271 -0.3850  0.0053
23112W        W39246  10.369   4.156   3.709 -0.2411  0.1283 -0.0637
23113W        W39247  13.191   4.264  13.028 -0.1568  0.0451  0.0355
23114W        W39248   7.975   6.962   4.852 -0.0198  0.0274  0.1683
23115W        W39249  17.688  10.962  14.457  0.0002  0.0846 -0.1386
23116W        W39250  10.233   2.115  12.104 -0.2143 -0.0788 -0.1316
23117W        W39251   5.684  15.583  15.104 -0.1004  0.0438  0.0329
23118W        W39252  18.560   3.319  14.610  0.2180 -0.0763  0.3006
23119W        W39253  11.217   8.359  14.386 -0.3573 -0.1674 -0.1524
23120W        W39254  16.058  16.165   1.877  0.1877  0.2542  0.1260
23121W        W39255   3.369   0.085   0.178 -0.5233  0.2061 -0.3145
23122W        W39256  16.139  12.660  10.494  0.0928  0.0335  0.2915
23123W        W39257  14.632  14.492  11.422  0.3033  0.0476 -0.0394
23124W        W39258  12.859  15.206   3.917  0.0545  0.1775  0.0573
23125W        W39259  13.844   2.874   0.513  0.0822  0.1367 -0.2051
23126W        W39260   3.017   8.239  10.088  0.0096 -0.2605 -0.0595
23127W        W39261   7.034  12.669   2.951 -0.0656 -0.0350  0.3112
23128W        W39262  14.650   0.154   3.504  0.0243  0.3808  0.1837
23129W        W39263   0.586   0.187  13.536  0.1500  0.0277 -0.1882
23130W        W39264   8.965   6.785   4.133  0.3026 -0.0239  0.3014
23131W        W39265   0.291  13.475   9.286 -0.0311  0.2194  0.0964
23132W        W39266   3.574   0.021   4.239 -0.1883  0.0145 -0.1395
23133W        W39267  12.076  15.650   5.245  0.0332 -0.2172 -0.3536
23134W        W39268  17.015   6.007   3.895 -0.0311 -0.0452  0.0548
23135W        W39269  12.402  15.476   0.614  0.1541  0.1907 -0.2013
23136W        W39270  11.848  10.964  12.002  0.1077  0.2578  0.0005
23137W        W39271  17.949  18.976   3.597 -0.1643  0.1018 -0.2184
23138W        W39272  18.886  11.931   3.607 -0.2965 -0.3602 -0.1237
23139W        W39273   1.118   7.472  11.273  0.3002  0.0204  0.3107
23140W        W39274  11.583  18.666   2.037  0.3433  0.0628  0.0200
23141W        W39275   4.947   5.148  15.109  0.0639 -0.0889 -0.3620
23142W        W39276   2.252   5.213   2.460 -0.0616 -0.0221  0.0997
23143W        W39277  10.290   0.015  11.078 -0.1178 -0.0656  0.3951
23144W        W39278  16.217   3.599  14.688  0.1625  0.4991 -0.0071
23145W        W39279  16.814  17.413  11.705  0.3718 -0.0557 -0.0925
23146W        W39280  11.647  15.740  12.513 -0.0088  0.0322  0.0446
23147W        W39281  13.336  10.780  14.513 -0.0390 -0.3257  0.1532
23148W        W39282  19.094  11.857  13.740  0.0971 -0.0623  0.2798
23149W        W39283  17.072   8.119  14.087 -0.0334  0.2664  0.7631
23150W        W39284  16.851   1.985   3.438  0.0793  0.1364  0.0484
23151W        W39285   1.858   0.816   4.392  0.3403 -0.3055  0.1230
23152W        W39286   9.039  15.835  10.364 -0.0862 -0.2915 -0.1208
23153W        W39287  15.659  17.959  13.067  0.0804  0.1325 -0.2269
23154W        W39288   1.748   3.529  13.565  0.1229  0.1609  0.1712
23155W        W39289  14.915  17.611   9.674 -0.0440  0.0086 -0.0497
23156W        W39290   1.297   1.024  12.089  0.1724  0.0033 -0.2124
23157W        W39291  16.458   4.615   1.675 -0.1275  0.0800  0.1181
23158W        W39292  18.659  17.152  11.573  0.1034 -0.1330 -0.0513
23159W        W39293   2.278   7.298  11.346 -0.0710  0.0170 -0.0152
23160W        W39294   8.366   1.796   3.800 -0.0717  0.0223 -0.1553
23161W        W39295  13.179   7.323  14.218  0.0071 -0.5461 -0.1897
23162W        W39296  17.126  16.430  13.340 -0.1166 -0.0683  0.2795
23163W        W39297  17.424  13.636  13.197 -0.3303 -0.2461  0.3638
23164W        W39298   6.745  17.835   5.749  0.1731  0.0687  0.0318
23165W        W39299  17.005  15.914  12.528  0.5576 -0.4785  0.0708
23166W        W39300   0.639  10.439   3.967 -0.0138  0.1764  0.0759
23167W        W39301   8.396  12.985   2.463  0.0762 -0.3081 -0.2176
23168W        W39302   0.685   7.390  13.713  0.1627  0.3465  0.2052
23169W        W39303   3.453   0.466   2.874  0.0858  0.0715 -0.1606
23170W        W39304  11.273   3.447  11.081  0.1741  0.1794  0.0563
23171W        W39305   4.232   5.686  14.819 -0.1480  0.1099 -0.0925
23172W        W39306  19.041   6.594  11.969  0.3254  0.1184 -0.0751
23173W        W39307   0.031  15.765  15.204  0.0673 -0.1855 -0.1759
23174W        W39308   5.529  16.368   0.357  0.4794 -0.0323 -0.0128
23175W        W39309   5.561   4.550  14.179  0.0875 -0.3719 -0.1853
23176W        W39310   9.834   5.461   3.365  0.0256  0.5434 -0.0017
23177W        W39311   8.356  18.393   2.181 -0.3646  0.2587  0.0049
23178W        W39312  12.672   0.995   0.632 -0.1286  0.1481  0.4424
23179W        W39313   6.672   1.936   2.089 -0.1791 -0.1044  0.1074
23180W        W39314  18.976   8.587   1.367  0.3131  0.0327 -0.0188
23181W        W39315   4.286   3.140  11.030 -0.0156  0.1126  0.0158
23182W        W39316  10.236  18.071  11.445  0.1348 -0.2432  0.1931
23183W        W39317  12.426  18.595  13.525  0.1920  0.1687  0.0114
23184W        W39318  13.820  15.850  13.697  0.0781  0.1647 -0.2826
23185W        W39319  17.748  12.510   4.001 -0.0422 -0.1758  0.1314
23186W        W39320  12.551  18.561  13.965 -0.1015  0.2948 -0.0006
23187W        W39321  13.263   6.510   2.772 -0.1705 -0.1015 -0.0701
23188W        W39322  11.969   3.964   4.542 -0.1439  0.0729 -0.0709
23189W        W39323  17.183   4.915  15.090  0.0748 -0.0141 -0.2234
23190W        W39324  14.997  10.486   4.727  0.0318 -0.0255 -0.1840
23191W        W39325  14.354   5.732  11.570 -0.1074  0.5969 -0.0436
23192W        W39326   2.772   9.832  13.235  0.1128  0.0780  0.0081
23193W        W39327   8.916  18.142  14.428 -0.1248  0.1796 -0.3321
23194W        W39328  18.447   5.359   4.040 -0.1455  0.3287 -0.2247
23195W        W39329   9.758   2.546   0.802 -0.2697 -0.0430 -0.1078
23196W        W39330  16.955   1.921  15.063  0.3117  0.1729 -0.1372
23197W        W39331   2.787   2.826   1.102 -0.2150  0.2375 -0.0137
23198W        W39332   3.196  10.676  12.803  0.0733 -0.1991 -0.1949
23199W        W39333   1.521  14.922   3.992 -0.1855  0.1188 -0.2731
23200W        W39334  18.745  18.203  12.830  0.2123  0.0749 -0.2959
23201W        W39335   1.807  18.221  12.153 -0.0609  0.0208  0.2499
23202W        W39336   0.735  13.423   1.939 -0.0383  0.2942 -0.1961
23203W        W39337   5.776   9.415  12.339 -0.0406 -0.1778  0.0996
23204W        W39338  13.967   8.106   1.521 -0.1795  0.1305 -0.0324
23205W        W39339  18.098   8.983  12.994 -0.2777 -0.0187 -0.0438
23206W        W39340   2.974  14.573   2.285  0.1579 -0.0969 -0.2909
23207W        W39341   3.912  17.482  12.348  0.1235  0.0883 -0.0280
23208W        W39342  18.363  19.095   3.348 -0.0096  0.2324  0.1913
23209W        W39343  10.282  12.972  11.377 -0.2138  0.0564  0.0350
23210W        W39344  17.029  17.590   1.957 -0.0387 -0.0156  0.0820
23211W        W39345   1.195  17.400   1.836 -0.1804 -0.3597  0.0936
23212W        W39346   4.489   3.252  11.509  0.1576 -0.1877  0.2571
23213W        W39347  18.985   3.060  10.741 -0.3303  0.1606  0.0030
23214W        W39348   7.160   4.267  12.665  0.2674  0.1668  0.1450
23215W        W39349   6.596  10.571  13.808  0.0796 -0.3364 -0.1289
23216W        W39350  13.224   0.011  12.679 -0.2844 -0.2252 -0.1905
23217W        W39351  11.565  10.172  13.330  0.0843  0.0315  0.1005
23218W        W39352  16.312  14.611   0.981 -0.0296  0.5301  0.1964
23219W        W39353  11.664   8.165  13.536 -0.1857 -0.1677 -0.1499
23220W        W39354   7.038   4.536   6.026 -0.0989  0.0854 -0.0461
23221W        W39355   2.488  16.801  11.661 -0.3253  0.1177  0.4873
23222W        W39356  16.443  14.793  13.575  0.3194  0.2676  0.2369
23223W        W39357  13.180   2.984   5.745  0.1998 -0.1366  0.0832
23224W        W39358  10.602   8.516   1.041  0.2870  0.2725  0.0544
23225W        W39359   1.095  10.066   0.625 -0.1976 -0.0017  0.3723
23226W        W39360  16.461  11.744   1.003  0.0259  0.1973 -0.1140
23227W        W39361   8.408  18.621   0.835 -0.0265 -0.0073 -0.0645
23228W        W39362  16.288   7.824  13.090 -0.3225 -0.2082 -0.0446
23229W        W39363   1.002  17.852   4.303  0.0471  0.1769 -0.0357
23230W        W39364  10.285  11.881   4.316 -0.1874 -0.3527  0.0826
23231W        W39365  10.750   6.193  12.685  0.2649  0.1288  0.0298
23232W        W39366   4.014  15.695  12.283  0.0240  0.0157  0.1592
23233W        W39367  14.938  17.432  12.049  0.2091  0.0646  0.0661
23234W        W39368   4.165   1.493   5.043 -0.0730 -0.2309 -0.0065
23235W        W39369  13.141   8.180   1.278 -0.1411 -0.2225  0.0733
23236W        W39370  16.681   8.183  15.105 -0.1201 -0.0827 -0.3124
23237W        W39371  10.922  18.280  10.932  0.0679 -0.1323 -0.1489
23238W        W39372   9.179   8.947   1.478 -0.2880  0.0126 -0.0050
23239W        W39373   3.045   7.017  13.872  0.3358  0.1738 -0.0641
23240W        W39374  18.642  18.213   4.350 -0.0252 -0.2616 -0.0329
23241W        W39375  18.055   2.001  11.936 -0.0379 -0.3108 -0.0169
23242W        W39376   1.731   0.907   1.534  0.1127 -0.1508 -0.1253
23243W        W39377   9.291   8.331   4.623  0.1537  0.1906  0.2813
23244W        W39378   2.195   8.443   1.342 -0.2360  0.0894  0.1496
23245W        W39379   8.298   9.575  10.973 -0.3037  0.0971  0.4000
23246W        W39380  13.963   7.726   0.006 -0.1351 -0.0413 -0.3182
23247W        W39381   2.443   5.107  14.221 -0.1764  0.6771  0.0700
23248W        W39382  10.278  10.830   0.672 -0.1371 -0.1233 -0.0080
23249W        W39383   5.713  15.194  11.363 -0.0418  0.1330  0.0903
23250W        W39384   7.938   6.732   2.132  0.1480  0.0084  0.2007
23251W        W39385  16.290   3.388  12.211 -0.1806 -0.0438  0.3620
23252W        W39386  11.809   0.123  12.134  0.0046  0.3799 -0.6572
23253W        W39387  12.677   8.517   0.212  0.1975 -0.0208 -0.0789
23254W        W39388   0.918  17.981   2.707 -0.0117  0.0783  0.1371
23255W        W39389   9.891   5.684   2.022  0.0101  0.0518 -0.1962
23256W        W39390  12.613  16.765  12.195  0.1174  0.0854 -0.0982
23257W        W39391  14.506   8.043   3.071 -0.1015  0.2831  0.1355
23258W        W39392   3.269   4.074  14.917  0.5353 -0.2158 -0.1623
23259W        W39393  15.042  16.710  14.630  0.2274 -0.1427  0.0422
23260W        W39394  15.658  15.449   3.354  0.1958  0.1174  0.1420
23261W        W39395  13.362   4.465   1.087 -0.0945 -0.2687  0.0590
23262W        W39396   0.153   9.568  10.268  0.0588 -0.1539  0.1138
23263W        W39397   9.123   8.737  14.423  0.0803 -0.0607 -0.1327
23264W        W39398   2.538   8.199   9.808  0.1235  0.1573 -0.1124
23265W        W39399  14.209  16.416  11.134  0.0813 -0.4458 -0.3613
23266W        W39400   7.005  16.966  15.055 -0.0586 -0.1429  0.2067
23267W        W39401  13.597   2.721  11.353  0.0783 -0.4538 -0.1782
23268W        W39402   8.605  10.690   5.149  0.0401 -0.2672 -0.3888
23269W        W39403  13.328   0.247  14.161  0.3222  0.0114  0.1841
23270W        W39404  17.982  14.993  12.149  0.1232 -0.0975 -0.0482
23271W        W39405  12.950   5.205  11.500 -0.0260  0.1936  0.0803
23272W        W39406   8.234  18.332   4.843  0.2019 -0.0848 -0.2154
23273W        W39407   9.587   2.850  12.660 -0.3388  0.2448  0.0174
23274W        W39408  13.025  15.340  13.983 -0.0753  0.1501  0.3354
23275W        W39409  13.785  15.311   0.978  0.2425 -0.1053 -0.0480
23276W        W39410  10.934  17.380  10.532 -0.0134 -0.1618 -0.6469
23277W        W39411   9.616   1.543   2.767 -0.1673  0.0583  0.0504
23278W        W39412   9.943   9.792  12.945 -0.4167 -0.3338  0.0679
23279W        W39413  10.612  18.727   2.074 -0.4664 -0.4907  0.0880
23280W        W39414   0.172   2.816  13.547 -0.0546 -0.0734 -0.3073
23281W        W39415   0.952  18.390   3.175  0.1682 -0.1809 -0.2898
23282W        W39416   2.492  19.117   4.522  0.0672 -0.1597 -0.2156
23283W        W39417  12.658   9.463   2.421  0.3427 -0.1678  0.2389
23284W        W39418  15.831   9.350  13.453  0.0753 -0.1561 -0.0965
23285W        W39419  14.619  16.165   2.260  0.1940 -0.2308  0.3294
23286W        W39420   9.626   9.821  11.552 -0.4251  0.2591 -0.0586
23287W        W39421   7.315  12.931  10.771 -0.0824  0.0893 -0.2246
23288W        W39422  10.740  15.870   5.258  0.1431 -0.1045 -0.2094
23289W        W39423   4.788   2.949   1.313 -0.1468 -0.1167  0.1347
23290W        W39424   4.813  10.836   1.385  0.1479 -0.0921  0.1002
23291W        W39425  12.634  18.371   4.088  0.0233  0.2528 -0.0539
23292W        W39426   9.357   0.373  13.548  0.1257  0.0329 -0.3383
23293W        W39427  17.783  12.038  13.771 -0.0570  0.1219  0.0512
23294W        W39428   9.576  18.383  10.780  0.0021  0.0403 -0.0204
23295W        W39429  17.637   4.825  12.606 -0.1505  0.1428 -0.0519
23296W        W39430   2.881   8.225  11.205  0.1673 -0.0272  0.1058
23297W        W39431  12.179   9.417  13.786 -0.1968 -0.1259 -0.3738
23298W        W39432   8.623   1.522  11.704 -0.0711  0.0995 -0.1210
23299W        W39433  17.826   5.079  13.033 -0.1268 -0.0910  0.0095
23300W        W39434   0.502  16.426   3.231 -0.0083 -0.0980 -0.0553
23301W        W39435   6.147   2.258   1.346  0.0810  0.2364  0.2010
23302W        W39436   8.600   9.847   3.769 -0.1396  0.3251 -0.1496
23303W        W39437   4.421   1.039   3.510 -0.0515  0.0532  0.1168
23304W        W39438   4.099   4.322   3.976 -0.1395 -0.0096  0.0948
23305W        W39439   0.068   4.697   4.147  0.5047 -0.0708  0.1202
23306W        W39440   2.881  10.364  10.629 -0.1345  0.0836  0.3641
23307W        W39441   9.896  18.321   0.800  0.1268  0.0018  0.0712
23308W        W39442  18.865   5.441  11.379 -0.0138  0.1282  0.2612
23309W        W39443   9.619   5.317   4.439 -0.1944  0.2662  0.1847
23310W        W39444  15.595  17.796   4.157  0.3445  0.2879 -0.1074
23311W        W39445   6.484   5.902   0.002 -0.2188  0.1108  0.3086
23312W        W39446   2.437   6.529  11.036  0.2791 -0.1602  0.0463
23313W        W39447  15.943   5.532  12.095 -0.1639  0.0307  0.1924
23314W        W39448  13.326  13.371  12.297 -0.1906  0.0355  0.0491
23315W        W39449   0.092  14.763   5.153 -0.2885  0.1972 -0.2594
23316W        W39450  18.812   0.682   1.700  0.1374  0.0110 -0.2032
23317W        W39451  10.217   5.924  14.927  0.0015  0.1725  0.3424
23318W        W39452   0.103  14.918   1.192 -0.0385  0.1977  0.2631
23319W        W39453   9.851  18.023   1.947  0.0702 -0.1245  0.0067
23320W        W39454  13.750   3.301   0.811  0.1637  0.1198  0.1310
23321W        W39455  12.082   5.272   4.189  0.0465  0.2658  0.1307
23322W        W39456   0.846  13.789  11.780  0.1763 -0.1166  0.0011
23323W        W39457   0.691  11.805   0.740 -0.2136  0.0849 -0.1144
23324W        W39458   7.475  15.369  13.216  0.2838  0.4758  0.0880
23325W        W39459  10.207  18.657   1.864  0.2533 -0.2879 -0.3132
23326W        W39460   1.467  18.183  11.767 -0.0230 -0.1005  0.1740
23327W        W39461  12.362  19.140  13.475  0.1949 -0.0138 -0.1228
23328W        W39462  14.682   0.573   5.580 -0.3592 -0.1863  0.0472
23329W        W39463  11.117  12.010   0.121  0.1424  0.2793  0.0994
23330W        W39464  11.830   9.207  15.080 -0.1797  0.3265 -0.2065
23331W        W39465   3.994  11.349   1.973 -0.0041 -0.0108  0.0692
23332W        W39466  15.217  16.098   0.187  0.1909 -0.0857 -0.0509
23333W        W39467   8.439   1.566  13.382 -0.0923  0.1276  0.0270
23334W        W39468   7.605   6.805   0.643 -0.0962  0.4293 -0.1081
23335W        W39469  15.523   1.886  10.627 -0.0461 -0.0360  0.0665
23336W        W39470   4.329   1.532  12.735 -0.0584 -0.0226 -0.2908
23337W        W39471  18.663   4.884   3.771 -0.1933  0.3500  0.1850
23338W        W39472   1.137   9.532  13.255  0.0535  0.2148 -0.0269
23339W        W39473  10.933   4.219   2.372  0.1002 -0.1806  0.1422
23340W        W39474   2.473   4.770   3.223  0.0791  0.4437  0.0943
23341W        W39475   8.310  10.912  12.703 -0.2719  0.0962  0.0553
23342W        W39476   0.992  12.215  11.561 -0.1825  0.5557 -0.0330
23343W        W39477   1.427  10.464  10.885  0.0965  0.4022  0.0894
23344W        W39478   7.681   1.235  13.576  0.0859  0.0730  0.1535
23345W        W39479  18.003  12.952   4.208  0.2959  0.0746  0.3314
23346W        W39480   6.523   7.352  12.426  0.3505 -0.1708  0.0953
23347W        W39481  16.878  12.652   0.785  0.0422  0.3692  0.2396
23348W        W39482   2.426  16.113   4.237 -0.0926  0.2397  0.0839
23349W        W39483   1.808  17.662  10.097  0.1534  0.0669 -0.1955
23350W        W39484  15.686  13.234   1.354  0.0737 -0.2355 -0.2320
23351W        W39485   2.148  16.805  12.304  0.0982 -0.0629  0.0601
23352W        W39486  10.386  11.187   4.748 -0.3114  0.0792 -0.0202
23353W        W39487   8.001   4.678  12.175  0.2686  0.0458 -0.1904
23354W        W39488  15.464  15.908   2.539 -0.0156 -0.0674 -0.4815
23355W        W39489   9.700   3.089   2.302  0.2677  0.0621 -0.1693
23356W        W39490   5.452  16.653  12.658  0.0008  0.2346  0.0395
23357W        W39491   5.288   9.268  12.168  0.3297 -0.0517 -0.1498
23358W        W39492   5.833  10.753  10.803  0.0677  0.4930 -0.3631
23359W        W39493   2.506   5.309  13.405  0.1482  0.0829  0.0303
23360W        W39494  16.469   1.408   5.189  0.3056  0.0864  0.0841
23361W        W39495   0.946  15.635   3.384 -0.0607  0.0260  0.0191
23362W        W39496   8.760  17.195   2.624  0.1024  0.1279 -0.0638
23363W        W39497  16.189   6.336  11.476  0.3056  0.1336 -0.2731
23364W        W39498   1.894  18.040  12.993 -0.1759 -0.1536  0.0287
23365W        W39499  11.120   7.951  12.681 -0.0780  0.1167 -0.0422
23366W        W39500   7.848  10.887   4.067 -0.0589  0.0327  0.1082
23367W        W39501  12.316  16.816   3.247  0.1695 -0.2054 -0.2379
23368W        W39502   8.561  19.110   5.561 -0.0123  0.0829  0.1105
23369W        W39503   0.202  13.434   0.826  0.2280  0.0935 -0.1265
23370W        W39504   4.104  14.164  14.639 -0.1584 -0.0163 -0.1501
23371W        W39505   2.088  16.330   1.928 -0.0627  0.2731  0.0841
23372W        W39506  10.266   3.503   0.891  0.3233 -0.0404  0.0183
23373W        W39507   9.266  14.553  14.937 -0.1882  0.2723 -0.3375
23374W        W39508  14.528  14.760  13.390 -0.1223 -0.5375  0.2406
23375W        W39509  10.752   6.760  13.467  0.0395  0.3247 -0.0266
23376W        W39510  11.859  11.757   5.636 -0.1096  0.4082  0.0923
23377W        W39511  18.667   9.990   1.142  0.0444  0.0495 -0.3349
23378W        W39512  14.507   0.729  13.905  0.0814 -0.2469  0.0445
23379W        W39513  14.201   2.101   0.459  0.2652  0.2081  0.0489
23380W        W39514   3.390  19.000  13.427 -0.0142 -0.2519  0.0028
23381W        W39515   2.230  14.912   2.871  0.1002  0.1624 -0.1695
23382W        W39516  15.121   6.379  11.764 -0.0489 -0.0618 -0.1108
23383W        W39517  16.434  17.798  14.219 -0.4123 -0.0561 -0.0141
23384W        W39518   2.343  10.546   0.867  0.0757  0.1105 -0.0614
23385W        W39519  17.422   3.292  11.678 -0.2793  0.2492  0.3211
23386W        W39520  14.099  16.239   0.947 -0.1585  0.3014  0.1530
23387W        W39521   1.756   2.347   3.683  0.1018 -0.2621 -0.4083
23388W        W39522   0.348  16.343  12.430  0.1923 -0.0937  0.0845
23389W        W39523  15.825  18.951  13.267 -0.1474  0.2821  0.6276
23390W        W39524   8.260   8.873  13.936  0.3546 -0.2604 -0.0167
23391W        W39525  18.197   6.579  14.230  0.0715 -0.1989  0.2859
23392W        W39526  17.597  17.978   3.254  0.0139  0.3782 -0.0340
23393W        W39527  14.447   1.574   2.255 -0.1845  0.0028  0.0807
23394W        W39528  12.975   7.082  11.346 -0.3976 -0.1425  0.0520
23395W        W39529   8.507   1.096  13.198  0.0822 -0.2880  0.0238
23396W        W39530  16.420   9.595   4.373  0.0617 -0.0169 -0.1032
23397W        W39531  13.113   8.696  12.332  0.0642  0.2744 -0.1472
23398W        W39532   8.270   6.540  12.155 -0.1104  0.1112 -0.1792
23399W        W39533   3.469  15.146  13.296  0.0825 -0.3270  0.1578
23400W        W39534   5.846  11.959   3.759 -0.0161 -0.1453 -0.1140
23401W        W39535   4.578   1.898   2.645  0.2648  0.2505 -0.1428
23402W        W39536  12.885  18.206   1.740  0.4036 -0.1123 -0.2320
23403W        W39537  14.823  11.280   4.612  0.0912 -0.3239 -0.0082
23404W        W39538   4.395   2.076   9.650 -0.1671 -0.3458 -0.0101
23405W        W39539   4.538  12.631  11.942 -0.0924 -0.1870  0.1830
23406W        W39540   6.626  17.699   3.182  0.0510  0.1394 -0.3100
23407W        W39541  14.229  13.614   1.305  0.3520  0.0912 -0.0933
23408W        W39542  11.751  14.632   4.233 -0.0524 -0.1519 -0.0677
23409W        W39543  18.256  12.333   0.216 -0.0077  0.3406  0.1788
23410W        W39544  18.474  13.811   1.230  0.0287  0.2245 -0.0845
23411W        W39545   7.936  17.891   4.668  0.0112 -0.0226  0.1157
23412W        W39546  12.732  17.402  13.081 -0.0374  0.1041  0.1937
23413W        W39547  18.869  15.265  10.566  0.0581  0.0422  0.2680
23414W        W39548   7.767   3.425   4.225  0.3483  0.0248 -0.1920
23415W        W39549  18.834  11.358  15.124  0.1021 -0.2208  0.1137
23416W        W39550  13.712   9.479  10.204 -0.6318  0.0461 -0.0981
23417W        W39551  14.227  13.811   3.340  0.1149 -0.4178  0.2589
23418W        W39552  13.504   5.723   9.570 -0.2542 -0.0317 -0.0824
23419W        W39553  15.847   9.418   2.950  0.0406 -0.0987  0.1618
23420W        W39554   6.913   1.904   9.810 -0.0953  0.4108 -0.1390
23421W        W39555  19.083   7.354  10.371 -0.0003 -0.0091 -0.2871
23422W        W39556  16.108   2.375  14.611  0.1929 -0.1379 -0.0270
23423W        W39557   9.872   3.446   1.217 -0.1078  0.0182 -0.0018
23424W        W39558   1.793  14.348   1.571 -0.2734 -0.0175 -0.1605
23425W        W39559   8.659  18.634  12.764 -0.0748  0.1339  0.2254
23426W        W39560  14.329   7.122   2.003 -0.1158  0.0444 -0.1255
23427W        W39561  13.810   8.574  14.135 -0.1023 -0.0193  0.1549
23428W        W39562   3.375  10.995   0.967 -0.2829 -0.0235 -0.1390
23429W        W39563   4.680   1.740  11.248 -0.0217 -0.0883  0.0939
23430W        W39564   1.963  16.681  13.776 -0.0321 -0.1130  0.0121
23431W        W39565   0.508  18.048   1.161 -0.0311 -0.0077  0.3022
23432W        W39566   3.183   3.846   9.978  0.0954 -0.0459  0.0556
23433W        W39567  16.302   5.850  14.656 -0.1952 -0.0386  0.1170
23434W        W39568  18.904   1.258  13.473  0.3690  0.3922 -0.0405
23435W        W39569   6.716   7.932  11.113  0.1877  0.0337  0.0874
23436W        W39570  13.657   2.565   4.716 -0.0816 -0.1717  0.3773
23437W        W39571  17.233  17.627  10.232  0.2277  0.0067 -0.2725
23438W        W39572  17.965  13.524  14.270  0.0678 -0.3903 -0.0350
23439W        W39573  13.781   0.187  10.674 -0.1766  0.0376  0.1587
23440W        W39574  17.265  17.682   1.457 -0.2012 -0.3040  0.1196
23441W        W39575   4.575   9.556   1.865  0.0722  0.2124  0.2474
23442W        W39576  10.747  13.302  11.683  0.2042 -0.2107  0.1124
23443W        W39577   3.463   8.951   0.494  0.2973 -0.2778  0.1230
23444W        W39578   9.775   8.129  10.557  0.0781  0.3582  0.1222
23445W        W39579   3.944   8.817   2.776  0.7245 -0.0521  0.1022
23446W        W39580   8.072  17.640  11.524 -0.3732 -0.1705  0.2887
23447W        W39581   6.520  10.043   4.743 -0.0959 -0.1710 -0.0677
23448W        W39582  14.335   0.046   1.333 -0.3748 -0.1602  0.2124
23449W        W39583  11.088  19.110   3.747 -0.1338 -0.0905 -0.0770
23450W        W39584   2.426   8.087  11.370 -0.1087  0.0875 -0.5037
23451W        W39585  14.477   3.190   2.777  0.3940 -0.0807 -0.2035
23452W        W39586   6.084  12.391  11.528  0.0870  0.3917  0.2668
23453W        W39587  13.700  17.874  10.985  0.0769  0.0452 -0.3377
23454W        W39588   0.028  17.359   4.896  0.1219  0.3410  0.0016
23455W        W39589  10.314   7.128  12.875 -0.2476  0.0840  0.0722
23456W        W39590   6.743  13.681  13.742  0.1953  0.1578  0.1758
23457W        W39591  16.012  16.572  13.201 -0.0191 -0.2446  0.2799
23458W        W39592   8.026  10.071   5.359 -0.1128 -0.2119 -0.0140
23459W        W39593  13.419   3.039  13.688 -0.0818 -0.3641 -0.1423
23460W        W39594   7.650   2.848   3.584  0.2927 -0.0568  0.0653
23461W        W39595  19.040  13.168  10.146 -0.0486  0.3385  0.5972
23462W        W39596  14.966  16.581   3.981 -0.1001 -0.0875  0.2431
23463W        W39597   6.485   8.089   4.759 -0.1138 -0.0649  0.0042
23464W        W39598   7.002  12.084  13.025  0.0015  0.1204 -0.2245
23465W        W39599  14.943  15.563  11.588 -0.3007 -0.0197 -0.1594
23466W        W39600  15.332   6.797   0.175 -0.0884 -0.0898  0.3641
23467W        W39601  15.987  11.345   2.279  0.1143 -0.2792  0.3977
23468W        W39602   8.575   5.134  11.841  0.6768 -0.2524  0.0977
23469W        W39603  15.272  19.149   4.383  0.0966 -0.1771 -0.0608
23470W        W39604  18.142  10.711   2.298  0.0848 -0.2037  0.0060
23471W        W39605  14.525  15.293  13.536 -0.0107  0.1189  0.2899
23472W        W39606  11.951   3.864   2.765  0.1864 -0.0409 -0.2929
23473W        W39607  14.734   7.332   0.874  0.3427 -0.2570 -0.6267
23474W        W39608   5.389   3.236   4.533 -0.2247  0.2455  0.0383
23475W        W39609  15.663  10.538   4.556  0.2863 -0.1439  0.0763
23476W        W39610   4.235   3.289  11.982  0.1830 -0.2400  0.0340
23477W        W39611   6.375   0.891  13.819 -0.1746  0.0509 -0.0138
23478W        W39612  16.206  14.612   3.392 -0.1465 -0.1130 -0.0973
23479W        W39613  10.964  11.016   0.480  0.0824 -0.3366 -0.2571
23480W        W39614  13.487   5.352   4.158  0.1442 -0.0614  0.1704
23481W        W39615   6.524  13.690   4.191  0.1846  0.0586  0.2993
23482W        W39616   7.501  11.007   3.700  0.3266 -0.1430 -0.1648
23483W        W39617   1.471   7.647  11.009 -0.3020  0.1074  0.1911
23484W        W39618  14.290   2.585   0.575  0.0368  0.0115 -0.2776
23485W        W39619  18.544   2.826   2.123  0.3155  0.0972  0.0184
23486W        W39620   8.823  17.156   5.733 -0.0029  0.1904 -0.2351
23487W        W39621   0.640  19.002   2.030  0.1519 -0.3488 -0.1438
23488W        W39622   5.893   4.778  11.240 -0.3428 -0.2729  0.1849
23489W        W39623  10.910   0.711   1.992  0.2228  0.1537  0.0283
23490W        W39624   5.991  15.315   5.774  0.0981 -0.3384 -0.0193
23491W        W39625   6.721   9.875  14.872  0.0848 -0.2183 -0.0988
23492W        W39626   9.544   0.762  14.409 -0.2028  0.1632 -0.0243
23493W        W39627   4.338   7.507  11.905  0.0304 -0.0082  0.1466
23494W        W39628  11.319   4.626  14.479  0.2048  0.1317  0.0359
23495W        W39629   1.718  10.970  14.484 -0.2364  0.0353 -0.0555
23496W        W39630   8.746   9.137   1.535 -0.0998  0.1934 -0.1130
23497W        W39631   2.193  12.693   0.043  0.1901 -0.2236 -0.1184
23498W        W39632   6.679  15.807  13.143  0.0490 -0.2278 -0.0846
23499W        W39633  11.430  10.597   0.036  0.2146  0.1791  0.3968
23500W        W39634   0.171  14.860   0.180  0.0686  0.0329 -0.1941
23501W        W39635   7.969  12.367   0.542 -0.0497  0.1210  0.0341
23502W        W39636   9.562  16.162  13.508  0.0760 -0.2266  0.0623
23503W        W39637   8.506   8.939   4.165  0.2372  0.1909  0.1634
23504W        W39638   7.502   4.859   4.991  0.2706 -0.3055  0.0882
23505W        W39639   7.174  18.588  11.972  0.0777 -0.0035 -0.4054
23506W        W39640  18.260  11.982  13.601  0.0250 -0.1763 -0.0780
23507W        W39641  16.085   3.498  12.818 -0.3867 -0.0482  0.1973
23508W        W39642   9.170   0.667  14.743 -0.1401  0.0966  0.2841
23509W        W39643   4.783   3.886   1.653  0.0742 -0.4118 -0.1760
23510W        W39644  16.818   7.465  11.468  0.0984 -0.1195 -0.2226
23511W        W39645   3.552  13.954  14.961 -0.0244  0.2076  0.2128
23512W        W39646   2.185   5.600   6.133 -0.1059 -0.2289 -0.2026
23513W        W39647   7.821  15.279   4.417  0.1041  0.1089 -0.1058
23514W        W39648   3.552   6.722   4.084  0.0486 -0.1025  0.0113
23515W        W39649   9.079  15.953   4.434 -0.2122  0.4128  0.1832
23516W        W39650  10.292   5.230   3.341 -0.0984 -0.1822  0.3472
23517W        W39651  17.901  10.570  13.331  0.0119 -0.2504  0.1975
23518W        W39652  14.112   6.908  12.463  0.2223  0.1211  0.1384
23519W        W39653  18.653  18.338   2.999  0.0309  0.2203 -0.0261
23520W        W39654   5.768  10.640   2.878  0.0883  0.0230  0.1509
23521W        W39655   4.775  10.327   0.279  0.0995 -0.0642  0.1972
23522W        W39656   7.236  17.406  12.622  0.2935  0.0427  0.3372
23523W        W39657  14.896   9.143   2.889 -0.0837 -0.1697 -0.2999
23524W        W39658  15.928   3.267  10.682  0.3965  0.0761 -0.5256
23525W        W39659   7.400   2.621  13.387  0.2666  0.0191  0.2046
23526W        W39660   1.394   9.556   2.796 -0.1569  0.0981  0.5190
23527W        W39661   1.061  16.192   0.270  0.1665 -0.0770 -0.1831
23528W        W39662   3.784   8.596  11.260  0.1827 -0.2079 -0.1382
23529W        W39663   8.197  13.765  14.431 -0.0756  0.0779  0.1396
23530W        W39664   8.564  14.329   0.097 -0.2255 -0.1349  0.3100
23531W        W39665  18.033  18.714   9.925 -0.0019 -0.1573  0.0019
23532W        W39666  11.570   6.946   1.453  0.0060  0.1053 -0.0420
23533W        W39667   9.389  17.059   2.494  0.0781 -0.1417  0.1631
23534W        W39668   3.714  16.592   3.329 -0.1308 -0.3024  0.0838
23535W        W39669   4.316  10.193   0.505  0.1495  0.0720  0.3208
23536W        W39670  14.836   1.348   2.541 -0.1371  0.1537  0.2278
23537W        W39671  11.678   1.990   3.566 -0.1567 -0.1584 -0.2608
23538W        W39672   9.797   9.002  13.581  0.0559 -0.0952  0.2774
23539W        W39673  18.237   9.584   3.077  0.2137 -0.2532  0.0092
23540W        W39674   5.761  15.946  10.886  0.3574 -0.2879  0.0548
23541W        W39675  18.702   2.719   2.583 -0.1487 -0.1449  0.1295
23542W        W39676  10.958  12.959   1.463  0.2008 -0.1097 -0.0777
23543W        W39677  19.141   6.777   2.348  0.0841 -0.1007  0.0005
23544W        W39678  12.440  14.870   3.157  0.0329 -0.0607  0.0016
23545W        W39679   8.343   0.480  14.505 -0.0957 -0.0825 -0.0353
23546W        W39680  11.643  15.780   1.226  0.1863  0.2705 -0.0186
23547W        W39681  10.259  13.419  10.575 -0.3979 -0.1056 -0.1274
23548W        W39682   8.309  16.133  12.769  0.0869 -0.0561  0.0801
23549W        W39683  12.451   9.729   3.490 -0.0045  0.0104 -0.1607
23550W        W39684   5.895   3.891   2.123 -0.4104  0.0508  0.2103
23551W        W39685  18.748  13.262  14.559 -0.2917  0.1197  0.0096
23552W        W39686  13.414   9.491   4.257 -0.0128 -0.1174 -0.0993
23553W        W39687  10.838  14.431  13.732  0.1896  0.3254  0.1936
23554W        W39688   4.032   5.680  11.422  0.1239  0.1451 -0.3710
23555W        W39689  13.286  13.536   0.336  0.1941 -0.1455 -0.1506
23556W        W39690  15.281  13.546   0.403 -0.0421  0.3570 -0.2441
23557W        W39691   2.949  13.283   4.692 -0.2150 -0.5950  0.1626
23558W        W39692  11.071   4.665  12.568  0.0391 -0.1636 -0.1880
23559W        W39693  11.654   3.371  12.083 -0.0873  0.2031  0.0529
23560W        W39694  14.811  13.880   2.760  0.0877  0.1651 -0.1757
23561W        W39695  13.271  10.412  13.829  0.0283 -0.1785 -0.2379
23562W        W39696   9.063   7.525   2.479 -0.2333 -0.1547 -0.2212
23563W        W39697  10.514   9.043  12.149  0.1224 -0.2842 -0.0635
23564W        W39698   2.051  10.349   2.218 -0.0887  0.0426  0.1175
23565W        W39699  18.517   8.954   2.337 -0.2943  0.1841 -0.1256
23566W        W39700   4.846  16.335   3.090  0.0203  0.1921 -0.0802
23567W        W39701   0.062   2.237  10.825  0.0655  0.2927  0.1163
23568W        W39702  17.701   5.916   0.393 -0.0856 -0.1282  0.3819
23569W        W39703  13.758  16.247  13.224 -0.1658 -0.1917  0.0888
23570W        W39704  11.544   3.523  14.021  0.3372 -0.1252  0.3388
23571W        W39705  16.075  15.330   4.421  0.1125 -0.0812  0.0617
23572W        W39706  16.027   0.580  12.190 -0.0219  0.0732  0.1511
23573W        W39707   7.015   4.094  11.540  0.0953 -0.1453 -0.0749
23574W        W39708  17.068  17.145  10.767  0.0086 -0.1733  0.1359
23575W        W39709   8.786  15.514   1.338 -0.1160 -0.2849 -0.1108
23576W        W39710   3.774   2.530   3.281  0.2302  0.1591 -0.0692
23577W        W39711   8.898  18.140   2.444 -0.3476  0.0718  0.3186
23578W        W39712   1.271   0.388  13.984 -0.0215 -0.0859 -0.1100
23579W        W39713   4.440  12.405   0.105  0.0186 -0.1351  0.1347
23580W        W39714   6.408   1.503  13.177 -0.0220  0.2876 -0.1008
23581W        W39715  12.886   7.591   3.088 -0.0974 -0.0606  0.1606
23582W        W39716   3.707  12.611   3.771 -0.0986  0.1556 -0.1651
23583W        W39717   3.407   8.325  14.455  0.2621 -0.2312  0.1283
23584W        W39718   8.156   0.678  11.488  0.0935  0.1574  0.0654
23585W        W39719  10.741   3.126  10.451  0.1212  0.0325  0.1249
23586W        W39720   1.517  14.022   1.821  0.0135  0.2106 -0.0551
23587W        W39721  13.941  14.487  10.649 -0.0866 -0.2277 -0.0494
23588W        W39722   1.339  18.887  14.542  0.0489 -0.0029  0.1499
23589W        W39723   9.217  16.207   1.911 -0.0219 -0.1434 -0.4265
23590W        W39724  17.931  17.536  14.586  0.0694 -0.1189  0.3427
23591W        W39725  18.290   8.454  13.139  0.2170  0.2639 -0.1652
23592W        W39726   4.645   0.181  12.030 -0.0413 -0.1189 -0.1768
23593W        W39727   1.137  14.382   0.888 -0.1963 -0.2684 -0.2612
23594W        W39728  12.172  17.202  12.861 -0.0325  0.2923  0.0378
23595W        W39729   0.403  10.989   2.805 -0.2204  0.1301 -0.2343
23596W        W39730   4.111  14.526   4.383 -0.3580  0.1749  0.0974
23597W        W39731   4.750  15.379  12.986  0.0896 -0.2978 -0.1120
23598W        W39732  17.066  11.618  11.445  0.3677 -0.2865 -0.0122
23599W        W39733  15.054   0.794   4.878  0.1543 -0.0316  0.0476
23600W        W39734   9.994  13.495  13.323  0.0227 -0.1243 -0.1472
23601W        W39735   0.780  18.289  11.039 -0.1398 -0.1078  0.3347
23602W        W39736  12.730  13.507  13.028 -0.0422 -0.0502  0.3578
23603W        W39737   8.876   0.097  12.624  0.0855  0.2702 -0.3456
23604W        W39738   7.745   6.505  14.639 -0.1925 -0.0177  0.0969
23605W        W39739   8.802   2.926  10.857 -0.1524 -0.0188 -0.0884
23606W        W39740   3.469  11.264  11.551 -0.1576 -0.0573 -0.1424
23607W        W39741   7.309   6.046  11.026 -0.0569  0.0290  0.0429
23608W        W39742   3.146  14.721   1.672 -0.3356 -0.0713 -0.3122
23609W        W39743  13.109  18.689  11.911  0.0467 -0.1352  0.2681
23610W        W39744   6.424   4.105   1.403 -0.1011  0.2557  0.2492
23611W        W39745  11.221   3.559  11.896 -0.1515  0.1739 -0.0091
23612W        W39746  15.323   2.062   1.065 -0.0504  0.0270 -0.1618
23613W        W39747  17.490  17.711   4.129  0.0722 -0.0265 -0.0654
23614W        W39748  18.759   4.587   0.870  0.1071  0.2192  0.5379
23615W        W39749   4.482  17.587  14.619  0.0928  0.1975 -0.1607
23616W        W39750  18.511  15.606   2.290 -0.3534  0.4430  0.0885
23617W        W39751   4.902  17.627  12.115  0.1068  0.3408 -0.1109
23618W        W39752   4.063   5.056   2.021 -0.0717  0.2943 -0.0822
23619W        W39753  11.966  16.166  11.214  0.0293 -0.1030  0.3878
23620W        W39754   3.394   4.119   1.519 -0.1169  0.0888 -0.4602
23621W        W39755  18.418   8.295   4.094  0.2909  0.1937  0.2193
23622W        W39756  14.133   3.275   4.854  0.0418  0.2226 -0.0319
23623W        W39757  10.210  18.755  15.125 -0.3555 -0.0223 -0.0459
23624W        W39758   8.751  12.684  11.578  0.3440 -0.2437 -0.1220
23625W        W39759   9.065   1.507   0.127 -0.0711 -0.0785  0.1805
23626W        W39760   2.329   7.983  12.899  0.2853  0.1011  0.1368
23627W        W39761  16.011   0.761   2.745  0.2934  0.0981 -0.0385
23628W        W39762  13.729  18.621   2.479 -0.1917 -0.0432  0.0241
23629W        W39763  18.303   4.527  14.755  0.1645 -0.1015  0.2387
23630W        W39764   3.700   1.174   0.856  0.1543 -0.2519  0.4106
23631W        W39765   2.692   4.039  12.113  0.2158 -0.3697  0.0052
23632W        W39766   4.563  18.311   3.533  0.3507  0.0250  0.0398
23633W        W39767  14.422  15.899  11.887 -0.1784  0.0680 -0.2041
23634W        W39768   0.182   2.921  14.571  0.1589 -0.1834  0.1159
23635W        W39769   0.533   1.859  15.049 -0.2042  0.0743  0.1539
23636W        W39770   7.956   3.105   3.278 -0.2704  0.1749  0.0688
23637W        W39771   4.053  16.222   1.228  0.1839 -0.2012  0.1714
23638W        W39772   9.258  12.685  11.373  0.3726 -0.3803  0.0548
23639W        W39773  10.496   1.985   2.006  0.4292  0.2212 -0.1728
23640W        W39774  10.210   4.672   2.143 -0.0463 -0.0515 -0.3461
23641W        W39775   6.168   8.084   1.265  0.2045 -0.0918  0.1979
23642W        W39776   8.804  18.915  14.910  0.1730  0.3268 -0.0074
23643W        W39777  10.764  15.541   4.910  0.0535 -0.0890 -0.1210
23644W        W39778   2.048  14.981   3.876 -0.2604 -0.2071  0.0201
23645W        W39779   1.769   3.196  12.301 -0.0174 -0.2628 -0.0181
23646W        W39780   5.541  14.150  14.630  0.1017 -0.0372 -0.1038
23647W        W39781  17.993   1.638   3.428  0.1335 -0.0979 -0.0226
23648W        W39782  12.105   8.059  11.967  0.0489  0.0682  0.2174
23649W        W39783  17.992  14.228  11.498  0.1356  0.1524  0.1229
23650W        W39784  15.662  11.199  15.197 -0.0729  0.0769  0.2182
23651W        W39785  17.034  12.637  13.161 -0.3143 -0.3450  0.2356
23652W        W39786  17.000  10.559   3.811  0.1376 -0.0401 -0.2902
23653W        W39787   1.955   0.436  11.602 -0.0413  0.1248  0.0469
23654W        W39788  17.260   3.675   3.732 -0.1112  0.3133 -0.0882
23655W        W39789   2.932  15.225   2.774 -0.2891  0.0409 -0.0196
23656W        W39790   6.620  18.477   1.641 -0.0575  0.0908 -0.2691
23657W        W39791  14.466  15.255  10.141 -0.3003 -0.1376 -0.4187
23658W        W39792  15.798   7.279   4.634  0.2503  0.1507 -0.0072
23659W        W39793  16.315   2.484   2.305 -0.5777 -0.0070  0.6830
23660W        W39794   0.357   9.986  12.970  0.0197  0.3132  0.1734
23661W        W39795  13.907   6.012  13.224  0.1476 -0.1224  0.1124
23662W        W39796   3.369  12.287  13.605 -0.1828 -0.0057 -0.0027
23663W        W39797   7.491   8.595  14.356  0.1424  0.0375 -0.2709
23664W        W39798   2.708   4.257  11.021  0.1425  0.0260 -0.0154
23665W        W39799  14.954   6.602   2.700 -0.0718  0.0194 -0.3422
23666W        W39800   6.927  13.281   5.041  0.1756 -0.0741  0.1373
23667W        W39801  11.795   7.665  12.112 -0.2367  0.1824  0.1466
23668W        W39802   0.285   0.578  13.761 -0.3268  0.3601  0.2532
23669W        W39803   2.923  14.862   4.039 -0.0355  0.3337  0.3692
23670W        W39804   3.626   4.822  14.611 -0.2432 -0.1072 -0.1295
23671W        W39805   7.703   9.478  12.195  0.1279 -0.2566  0.0017
23672W        W39806   4.940  14.237  15.131 -0.3349 -0.0459  0.3514
23673W        W39807  15.708   3.912  15.016 -0.0440  0.2266  0.1458
23674W        W39808  18.086   8.105   3.753  0.1583 -0.0467 -0.1421
23675W        W39809   5.431   5.157  15.127 -0.3485 -0.0388  0.0794
23676W        W39810   5.727  17.924  11.136 -0.0179  0.1366 -0.2206
23677W        W39811  11.209  18.705   1.646 -0.0498 -0.0242 -0.0051
23678W        W39812   5.516   7.866   0.446  0.0475 -0.2209 -0.2372
23679W        W39813   8.481  11.139   4.051  0.1106 -0.3379 -0.1007
23680W        W39814   3.033   6.576   3.839  0.1965 -0.1206 -0.1701
23681W        W39815   0.869  15.441   4.204 -0.1445 -0.0577  0.1652
23682W        W39816   8.328   8.767  14.959  0.2025  0.1271  0.0380
23683W        W39817   3.619  14.808  11.401  0.1811  0.0498  0.1357
23684W        W39818  11.070   8.457  12.768 -0.0901  0.0861  0.1443
23685W        W39819   6.300  13.659   5.200  0.1537  0.1327 -0.1457
23686W        W39820   3.920  11.017   3.321  0.0773  0.1530 -0.1794
23687W        W39821   6.777  11.882   4.951  0.0807  0.2642 -0.1872
23688W        W39822  16.805   7.545  12.506 -0.3150  0.2805  0.0270
23689W        W39823   6.333   0.489   2.015  0.4221  0.0051 -0.2799
23690W        W39824   5.313  17.065   4.932 -0.2686 -0.1295  0.0474
23691W        W39825   7.578   7.097   1.363 -0.1418 -0.0711  0.0917
23692W        W39826   5.496   3.093   0.211  0.3243  0.1260 -0.0527
23693W        W39827  16.627  16.220   3.983 -0.2987  0.2069  0.0626
23694W        W39828   8.776  17.097   0.606 -0.2683 -0.0367 -0.3324
23695W        W39829   2.317   8.223   2.753  0.0931 -0.0050  0.1708
23696W        W39830   1.870  19.067  12.759 -0.0520 -0.0631  0.1283
23697W        W39831  15.326   8.424  10.887  0.1342  0.0213  0.0363
23698W        W39832  18.629  10.519   3.877  0.2350  0.0663 -0.0529
23699W        W39833  18.249  17.449   3.009  0.2728 -0.0830 -0.1620
23700W        W39834  17.528  15.934   3.476 -0.0429 -0.1242 -0.0021
23701W        W39835  12.726  15.038   1.306 -0.3109 -0.1820 -0.2663
23702W        W39836   2.005   8.345  15.032 -0.3726  0.0847 -0.0845
23703W        W39837   7.407  14.684  12.517  0.0806 -0.0056 -0.2016
23704W        W39838   5.479  13.346  12.418  0.0119  0.1181  0.2108
23705W        W39839   1.372   5.423  11.570 -0.0808  0.4971  0.2599
23706W        W39840   5.518   0.747   3.654 -0.2624  0.1688 -0.0463
23707W        W39841   2.501  13.905   0.340  0.0228  0.0430  0.1721
23708W        W39842   5.443  17.749  15.177 -0.1018  0.2959 -0.2030
23709W        W39843   5.060   7.219  14.727  0.4162  0.1052 -0.0129
23710W        W39844   9.849  12.703   0.563  0.1990 -0.3554 -0.0426
23711W        W39845   0.108  18.808   3.213 -0.1640 -0.1727 -0.2524
23712W        W39846   4.927  14.551  11.558  0.0473 -0.2601 -0.1186
23713W        W39847  13.978   4.156   3.836 -0.0217 -0.1802 -0.0352
23714W        W39848  14.374  18.960  13.242 -0.2370  0.0263 -0.3964
23715W        W39849  18.479  18.413  14.988  0.2129  0.1862  0.1178
23716W        W39850  13.824   5.602  14.121  0.1087 -0.0704 -0.0809
23717W        W39851   5.195  11.395  12.798  0.1836 -0.1355 -0.4516
23718W        W39852  17.801  17.775  12.399  0.0088  0.2583  0.2885
23719W        W39853   1.396  12.112   1.301 -0.2863  0.2134 -0.1777
23720W        W39854  18.646  10.955  12.361 -0.1650 -0.2954 -0.0201
23721W        W39855  13.132   5.031   1.304 -0.2700 -0.0962 -0.2891
23722W        W39856   3.741   6.632  14.492 -0.1894 -0.1331  0.2302
23723W        W39857   6.934   7.773   1.759  0.3024 -0.0325 -0.5310
23724W        W39858   8.472   3.355   4.773  0.1024  0.2496 -0.1459
23725W        W39859   5.164   6.680  14.743 -0.1614 -0.3351 -0.0055
23726W        W39860   0.214  11.625  11.237 -0.0407 -0.0354  0.0779
23727W        W39861  13.371   3.552   3.376  0.0496 -0.0485 -0.5792
23728W        W39862  12.133   6.378   6.254 -0.1142 -0.1449 -0.1286
23729W        W39863  14.162   3.766  14.197 -0.2042 -0.3235  0.1272
23730W        W39864   8.114   0.619  11.982  0.1098 -0.2080 -0.0809
23731W        W39865  10.225   4.791  11.477 -0.2514 -0.1819  0.0261
23732W        W39866  17.999  13.645  10.737  0.2337  0.0147  0.0681
23733W        W39867   0.958  15.762   1.908  0.0822  0.0611  0.1748
23734W        W39868   6.562   5.155   3.155  0.2962  0.0776  0.0262
23735W        W39869   8.615  11.832  11.027  0.0314  0.3337 -0.2531
23736W        W39870   3.273   3.180   1.754  0.1325  0.1177  0.0794
23737W        W39871  16.799   1.564   4.813  0.2066 -0.1250 -0.4846
23738W        W39872  18.730  12.038  14.621 -0.1210 -0.1437 -0.0933
23739W        W39873  13.659   1.926   1.322 -0.2023  0.3159  0.2771
23740W        W39874  16.526  14.717  12.179  0.1126 -0.1339 -0.0945
23741W        W39875   8.964   6.733   5.485 -0.2501  0.2275 -0.2519
23742W        W39876  18.862   6.631  12.443  0.0288  0.5125  0.2927
23743W        W39877   5.570  16.028  10.348 -0.0204  0.3067  0.0964
23744W        W39878  17.317   7.558  13.751 -0.0215  0.0092  0.1529
23745W        W39879  12.218   0.682  10.773  0.0408  0.2186  0.2445
23746W        W39880   5.236  17.177  10.671 -0.0040 -0.0070 -0.0663
23747W        W39881  17.676   4.180  11.745 -0.2259  0.1309  0.3416
23748W        W39882   6.591  11.892   0.685 -0.1672 -0.2876 -0.2773
23749W        W39883  18.521   2.945   3.980  0.1360  0.0861 -0.1103
23750W        W39884   6.052   4.149   3.615 -0.3628 -0.0154  0.1601
23751W        W39885   8.330  18.874  11.074  0.1051 -0.1708 -0.2759
23752W        W39886   2.315  11.434   2.241 -0.0712  0.0682  0.0999
23753W        W39887   2.515   4.760  13.755 -0.2269  0.1681 -0.0257
23754W        W39888   9.587  18.056  14.813 -0.1450 -0.0121  0.1907
23755W        W39889   8.537   1.423   9.339  0.1167  0.3129  0.0643
23756W        W39890   3.548  13.773  11.892 -0.1188 -0.1731  0.0894
23757W        W39891  15.885  18.358   0.448  0.2236 -0.2969  0.2223
23758W        W39892  17.974  14.180   0.678 -0.0374 -0.0955 -0.0479
23759W        W39893   7.131   2.671  14.880 -0.3227  0.1237  0.2034
23760W        W39894  17.690   5.472  14.178  0.1747 -0.2979 -0.0022
23761W        W39895  11.978  12.694   1.614 -0.1347  0.0279 -0.1759
23762W        W39896   3.689   1.220   4.332 -0.0379  0.1233 -0.1063
23763W        W39897   7.821   6.294   1.701  0.0520  0.1436 -0.3873
23764W        W39898   9.661  14.262  14.601  0.4393  0.1079  0.1890
23765W        W39899  16.086   5.698   5.047 -0.3343 -0.2623  0.0980
23766W        W39900  11.440   1.356  13.800 -0.2087 -0.2312 -0.2405
23767W        W39901   7.355  16.598   4.073 -0.1179 -0.1499 -0.1852
23768W        W39902   1.401   1.419   0.494  0.1900 -0.1336  0.4031
23769W        W39903  17.146  10.452  12.351  0.2165 -0.0142  0.0455
23770W        W39904  13.882  16.156   4.983  0.2450  0.1746 -0.1129
23771W        W39905  16.218  13.163  11.500 -0.2114  0.0788  0.2293
23772W        W39906   1.435  13.223  14.740  0.1225 -0.1002 -0.0199
23773W        W39907  17.563   6.411   0.511 -0.1082 -0.2626  0.0889
23774W        W39908  15.644   4.811  13.821 -0.1919  0.0327 -0.0545
23775W        W39909   4.314  15.429  12.732 -0.1154  0.2548 -0.1616
23776W        W39910  14.978   8.654  13.837  0.1618  0.0095  0.0435
23777W        W39911   1.550   7.940   1.103 -0.4387 -0.1351  0.1724
23778W        W39912   9.770   3.413   2.826  0.1012 -0.2816  0.0596
23779W        W39913   5.418   0.146   2.681  0.0166  0.3013  0.1206
23780W        W39914  11.056  12.389   1.451  0.0787 -0.1024 -0.0907
23781W        W39915   5.820  11.402   9.696 -0.2250 -0.3541  0.0043
23782W        W39916   1.299  19.039  14.058 -0.2355 -0.0367  0.4331
23783W        W39917   9.876  19.063   3.345 -0.0791  0.0905 -0.0750
23784W        W39918  13.922   4.362   3.331 -0.1704  0.1175 -0.0711
23785W        W39919   5.484  15.072   1.237 -0.0550  0.0917 -0.3171
23786W        W39920   4.143  12.264  14.831 -0.2612  0.4047 -0.3626
23787W        W39921  12.480  11.026  10.244 -0.0328  0.0966 -0.2224
23788W        W39922  11.947  14.517  11.063 -0.0300 -0.0982 -0.0494
23789W        W39923   8.801  14.245   2.847 -0.0404 -0.3390 -0.0294
23790W        W39924  12.184   5.019   1.677 -0.0301 -0.0217  0.2966
23791W        W39925  19.107   5.271   3.121 -0.0445 -0.0467  0.1782
23792W        W39926  10.310   0.542  13.676  0.2911  0.0903 -0.0529
23793W        W39927   7.345  14.695  13.437  0.2529  0.1589 -0.1558
23794W        W39928  10.529  17.297   1.089 -0.1042  0.3291 -0.0615
23795W        W39929  17.407   9.823   2.947 -0.1347 -0.0200 -0.1218
23796W        W39930  14.120   2.064   3.677  0.4835 -0.3938 -0.1669
23797W        W39931   8.655   2.634  10.432  0.0887 -0.1488  0.1616
23798W        W39932  15.451   8.898  10.786  0.0062 -0.0500  0.2775
23799W        W39933   5.259  19.111   2.121 -0.2737 -0.0847 -0.0877
23800W        W39934  13.103   8.034   4.669 -0.4346  0.0395  0.0231
23801W        W39935   1.784  11.423  14.652  0.3086 -0.0819 -0.1374
23802W        W39936   1.171  10.484   5.212  0.1117 -0.1314  0.0354
23803W        W39937   2.623   7.257  10.404 -0.1075  0.0723  0.1672
23804W        W39938  18.751  16.432   3.920  0.2891 -0.2223 -0.0968
23805W        W39939  15.843  15.805   4.440 -0.1569  0.1316 -0.0749
23806W        W39940   8.530   5.243   3.359  0.0022 -0.1958 -0.0949
23807W        W39941   3.612   2.807   0.011 -0.0081 -0.3692 -0.0354
23808W        W39942  12.660  16.559   2.489  0.1487 -0.0095 -0.1579
23809W        W39943  18.754  14.180  12.332 -0.0171  0.1010  0.1754
23810W        W39944  16.832   8.358  10.621  0.3131  0.0985 -0.3354
23811W        W39945   9.067   9.852   4.839  0.0453 -0.1535 -0.0818
23812W        W39946   6.781   1.025  10.483  0.1627  0.1043 -0.1517
23813W        W39947  12.774  16.287  12.521  0.1478  0.3188 -0.2895
23814W        W39948   9.733   4.054  11.022 -0.0816  0.3967 -0.1214
23815W        W39949   8.288  11.661   5.264  0.0926  0.0037  0.0121
23816W        W39950   7.126  16.559   0.113 -0.1195  0.0198 -0.2016
23817W        W39951   7.454  13.419   2.411 -0.1064 -0.2020  0.0816
23818W        W39952   2.992   5.330   4.191 -0.0053 -0.0515  0.0271
23819W        W39953   3.297  16.821   4.608  0.1391 -0.1254 -0.1497
23820W        W39954  13.695  15.123   5.433 -0.0542  0.1555  0.1262
23821W        W39955  11.147  18.592   4.035  0.1197 -0.1443 -0.0107
23822W        W39956  11.641  15.793   4.889  0.3388  0.0678 -0.1456
23823W        W39957  17.718   7.449  11.980  0.2265  0.0617  0.2657
23824W        W39958   0.173  14.864   0.695 -0.2788  0.2248  0.0628
23825W        W39959  13.933  12.737   4.198  0.1050  0.1354 -0.1151
23826W        W39960  18.248  16.333  14.170 -0.3735 -0.0280 -0.0256
23827W        W39961   5.114  16.485  11.425 -0.1486 -0.1895  0.2378
23828W        W39962  14.395  14.721   2.225 -0.1919  0.0629 -0.0649
23829W        W39963   9.291   6.225  12.201  0.5168  0.1654  0.0148
23830W        W39964  12.139   7.010   3.662 -0.4478 -0.0245  0.1547
23831W        W39965   7.056  14.776   2.833 -0.1386  0.0587 -0.0150
23832W        W39966   5.756  13.040  12.096  0.3673 -0.0022  0.0793
23833W        W39967   1.818  13.754  13.353  0.0277 -0.1248  0.1265
23834W        W39968  15.673   4.320  14.212 -0.1567  0.1335  0.0035
23835W        W39969   8.704   6.404   2.096 -0.4384  0.2001 -0.1342
23836W        W39970  15.058   4.535   0.156 -0.3731  0.0447 -0.3580
23837W        W39971  15.446  10.035   2.813 -0.0595  0.2005  0.0072
23838W        W39972  18.281  17.585   1.661 -0.0524 -0.3151 -0.0578
23839W        W39973  15.367  14.308   0.713  0.0301 -0.1842 -0.3134
23840W        W39974   1.956  15.446  13.616  0.0538 -0.1011  0.6615
23841W        W39975  10.534   8.269   3.583  0.0910  0.1732  0.1616
23842W        W39976   7.417   6.809   3.308  0.0471 -0.2098 -0.0766
23843W        W39977   3.426   1.660   4.130  0.1886  0.0815  0.0585
23844W        W39978  18.676  19.037  13.549  0.2596 -0.0580 -0.2137
23845W        W39979  17.893   4.590  10.732  0.1417 -0.1315  0.2061
23846W        W39980  17.124  13.217   2.914 -0.1200 -0.0325 -0.0746
23847W        W39981   8.103  14.659   3.084  0.0919 -0.1133  0.0227
23848W        W39982   4.612  11.468   9.920  0.2651 -0.4090 -0.3659
23849W        W39983  16.776  17.635   1.489  0.0819 -0.0026  0.2732
23850W        W39984   0.031   2.507   1.427 -0.1582  0.0429 -0.2414
23851W        W39985  17.281   1.448   1.236 -0.3044 -0.1393 -0.2904
23852W        W39986  16.094  10.942  10.131  0.0085  0.2309  0.2071
23853W        W39987   0.907   6.720   3.565  0.0272  0.1850 -0.1666
23854W        W39988   7.002   1.874   0.314  0.1389 -0.0919 -0.1353
23855W        W39989  14.188   6.766  11.611  0.2324  0.0452  0.1561
23856W        W39990   4.232  15.405   3.986  0.1959  0.2120  0.3586
23857W        W39991   6.038  13.671   4.050 -0.1236  0.1700 -0.0278
23858W        W39992  13.586   6.803   4.626 -0.2029  0.0604  0.2534
23859W        W39993   0.095  15.111   4.840 -0.1869 -0.0194 -0.2582
23860W        W39994   2.854   2.607  10.826 -0.0866  0.2124  0.3553
23861W        W39995   0.135   9.604  13.627  0.1054 -0.6567 -0.2126
23862W        W39996  11.734   2.095   3.068  0.0957  0.1533  0.1568
23863W        W39997   4.390   8.646   2.693 -0.1104  0.0146  0.1842
23864W        W39998   3.135   6.972   9.919  0.0953  0.1500 -0.2196
23865W        W39999   6.750   8.982  15.053 -0.3167 -0.1067 -0.0886
23866W        W40000  17.318   0.676  14.564  0.2717 -0.0606 -0.2867
23867W        W40001  12.673  11.098   4.564  0.1012 -0.1108 -0.1950
23868W        W40002  14.667   3.255   3.963 -0.3756  0.1761 -0.2104
23869W        W40003   0.875   6.883  14.801  0.1084  0.2490 -0.0341
23870W        W40004   3.690  12.850   0.907  0.0270  0.0492  0.2227
23871W        W40005  12.330  16.877   1.024  0.1058  0.0312  0.2218
23872W        W40006  17.048  14.897   3.610  0.2410  0.2317 -0.2105
23873W        W40007  15.991  12.177  10.731  0.1189 -0.0038  0.0051
23874W        W40008   8.305   6.190  12.554 -0.3789  0.2573  0.2191
23875W        W40009   6.650  11.097   3.267  0.2975  0.0975  0.1722
23876W        W40010   3.947  12.714   1.741  0.1403  0.2259  0.0643
23877W        W40011   5.832  16.436  10.653  0.0875 -0.0791  0.1857
23878W        W40012   0.385  16.205  14.646 -0.0851  0.2650 -0.1486
23879W        W40013   4.494  10.217   5.710  0.0971 -0.0868  0.3006
23880W        W40014   7.954  14.732   4.485 -0.0117  0.0553  0.0745
23881W        W40015   6.773   9.298   5.077  0.3175  0.1375 -0.1704
23882W        W40016   6.647  11.060  13.764  0.1864  0.0853 -0.2417
23883W        W40017   7.026   2.086  10.294  0.1591  0.1222  0.0411
23884W        W40018  14.249   9.725   1.112 -0.1191  0.0352 -0.0009
23885W        W40019  11.162   7.201   1.053 -0.1069 -0.4001 -0.0596
23886W        W40020   9.870   5.944   1.312 -0.0201  0.2074  0.0874
23887W        W40021  10.696  11.443   1.903 -0.0664 -0.0706 -0.0724
23888W        W40022   1.120   8.240  10.511 -0.1976 -0.2517 -0.3082
23889W        W40023  10.341  15.477  10.652 -0.0170  0.1442  0.1590
23890W        W40024   8.313  17.211  11.608  0.0013 -0.1466 -0.2797
23891W        W40025  16.890   7.566  14.124 -0.2158  0.0319  0.0694
23892W        W40026  12.937  10.925   0.894  0.0182 -0.0716  0.1745
23893W        W40027   5.868  14.436  13.935 -0.1465  0.3801  0.1099
23894W        W40028  15.905  13.488  10.550 -0.2736 -0.1383  0.0682
23895W        W40029  11.267  17.485   2.426 -0.4906  0.1662  0.1870
23896W        W40030   5.746   8.314  10.820  0.0647 -0.3200  0.0414
23897W        W40031  12.324  11.796  12.237 -0.0377  0.0991 -0.1148
23898W        W40032   0.897   8.002  11.359 -0.0599  0.0163 -0.1887
23899W        W40033   3.035  18.339  11.411 -0.0059 -0.0204  0.0129
23900W        W40034  14.341  15.672  14.389  0.1532  0.3390  0.0622
23901W        W40035   7.473  13.848  11.104  0.0168  0.1992 -0.1043
23902W        W40036   5.953  14.282   0.035 -0.3799 -0.1727 -0.1216
23903W        W40037   1.151  10.473   4.677  0.1865  0.1643  0.1366
23904W        W40038  16.903   5.642   2.344  0.1627  0.1601 -0.1716
23905W        W40039  13.360   5.387   1.015  0.1671 -0.1592 -0.1910
23906W        W40040   0.969  12.666  11.374  0.0767  0.0386 -0.1536
23907W        W40041   7.582   6.732   4.512 -0.0315 -0.1988  0.2957
23908W        W40042   6.683   2.445   4.606  0.3203 -0.1829  0.0076
23909W        W40043  18.506   4.185   1.809 -0.1249  0.1623 -0.0204
23910W        W40044  15.160   9.856  13.166  0.0115  0.1120 -0.1802
23911W        W40045   0.635  13.306  14.452 -0.3117  0.0514  0.0552
23912W        W40046   8.277  13.796   5.619  0.0487  0.0319 -0.0350
23913W        W40047   5.955   5.710   1.228  0.0400 -0.2041 -0.2553
23914W        W40048   9.974  14.214   2.759 -0.0251 -0.0896  0.1521
23915W        W40049   2.115   3.939   1.964  0.1132  0.2770  0.2230
23916W        W40050   9.294  16.207  12.674 -0.1703  0.3706  0.0739
23917W        W40051  11.656  10.428   3.402  0.1159  0.0390 -0.0417
23918W        W40052  18.232  12.393   5.405  0.0857 -0.1642 -0.0317
23919W        W40053   3.310   0.359  11.968  0.4554  0.3364 -0.1807
23920W        W40054  16.914   9.209   4.329 -0.0121 -0.2530  0.2011
23921W        W40055   3.184   8.873   4.190 -0.2949 -0.4301  0.1184
23922W        W40056   3.098   6.099   2.950 -0.1293 -0.2063  0.0970
23923W        W40057   1.838   8.584  13.759  0.1131 -0.0065 -0.0439
23924W        W40058   2.287   3.430   1.586 -0.1397  0.1079 -0.0789
23925W        W40059   8.257   9.131  11.353 -0.0220  0.0445  0.0689
23926W        W40060  15.826  18.432  10.354 -0.0661  0.0529 -0.0883
23927W        W40061  17.647   1.407   0.401  0.1777  0.0743  0.0255
23928W        W40062  19.107  17.883  12.945  0.1371  0.1598 -0.3150
23929W        W40063   9.740   4.748  12.916  0.1937 -0.2601  0.0991
23930W        W40064   7.154   6.161  14.618  0.0947 -0.1374 -0.1559
23931W        W40065  17.086  18.886  12.433  0.1852 -0.0035  0.0626
23932W        W40066   2.666  16.131  12.826 -0.0576  0.0275  0.1034
23933W        W40067  13.650   2.825  12.408 -0.2319  0.0652 -0.0905
23934W        W40068   4.654   4.171   2.057 -0.1854 -0.0188  0.1686
23935W        W40069  18.477  18.065   0.340  0.0922  0.0743 -0.0255
23936W        W40070  13.374   1.073   3.799  0.3449  0.3324 -0.1023
23937W        W40071   7.698   0.553   5.356 -0.0755 -0.1779 -0.2567
23938W        W40072  15.527   2.878   1.248 -0.3561  0.0330 -0.0425
23939W        W40073  15.728  14.931  11.290  0.0126 -0.2143  0.2371
23940W        W40074   6.371  10.876   2.696 -0.0526 -0.0808  0.1545
23941W        W40075   6.186   2.783  12.025 -0.3652  0.0789 -0.0388
23942W        W40076   9.804  10.513   2.274  0.0448 -0.1703 -0.1378
23943W        W40077   9.282  12.659  15.133 -0.0240 -0.0837 -0.1574
23944W        W40078  10.622   6.484   4.726 -0.1121 -0.3347 -0.2349
23945W        W40079  16.957  15.042  13.575  0.0642  0.4813  0.1981
23946W        W40080   6.601   2.888  13.929 -0.0554 -0.1445 -0.0990
23947W        W40081  13.903   6.224  10.831 -0.1067 -0.3249  0.2771
23948W        W40082   9.523  13.888   3.906 -0.0064  0.0904  0.2240
23949W        W40083   0.403   9.002  12.887 -0.1534 -0.5771 -0.0594
23950W        W40084  17.420  11.058   0.290 -0.2784 -0.3437  0.2039
23951W        W40085   3.024  12.399   9.350  0.3016 -0.0679 -0.0872
23952W        W40086  11.439   1.202   2.829  0.0492  0.1494 -0.0366
23953W        W40087   9.930   5.400  12.173  0.2224 -0.2349 -0.0475
23954W        W40088  10.383  10.266   4.541  0.6514  0.0314 -0.0406
23955W        W40089  16.805   6.381   2.799  0.1224 -0.2107 -0.1696
23956W        W40090  11.209  11.215  10.910 -0.0086  0.3016 -0.1154
23957W        W40091   3.598  18.995  13.920  0.0710  0.2122 -0.2447
23958W        W40092  13.067   8.993   0.446  0.2261  0.3896  0.0508
23959W        W40093   8.898  14.911   2.843  0.1685  0.1088 -0.1517
23960W        W40094  18.024   2.931   2.170  0.2299 -0.2807 -0.0171
23961W        W40095   5.503   0.966  10.476  0.0269 -0.1618  0.2165
23962W        W40096  15.294   2.675  13.148 -0.1229 -0.0947  0.0692
23963W        W40097   6.833  10.785   4.550 -0.0253 -0.2026 -0.2730
23964W        W40098   4.891  18.036  14.047 -0.1911  0.0101  0.4603
23965W        W40099  17.159   3.775   1.750 -0.3628  0.2429  0.0037
23966W        W40100  16.590   4.005  14.958  0.0644 -0.0334  0.1452
23967W        W40101  17.978   3.276  14.701  0.0105 -0.0361  0.0810
23968W        W40102  16.929  18.735   4.931 -0.0755  0.1853  0.1765
23969W        W40103  12.436   1.424   1.403  0.3406 -0.3120 -0.0797
23970W        W40104   0.951  13.571   3.737 -0.0864 -0.1430  0.1971
23971W        W40105   0.141   8.996   1.255 -0.2344  0.1856 -0.2370
23972W        W40106  16.572   4.664  13.388  0.1324 -0.0581 -0.2079
23973W        W40107  17.848   0.657  14.946  0.0640  0.1744 -0.0175
23974W        W40108  14.992   7.159  10.380  0.1637 -0.2932 -0.1050
23975W        W40109   5.772   0.717  11.355 -0.3789  0.1487 -0.3294
23976W        W40110  11.399  17.170  12.355 -0.0262  0.0728  0.0552
23977W        W40111  13.755   1.277   0.253 -0.0905  0.0677  0.0077
23978W        W40112   4.269   8.156  14.919  0.1307 -0.2667 -0.0425
23979W        W40113   0.349   8.194   2.012  0.0195 -0.1165 -0.0069
23980W        W40114   2.645   6.658  14.129 -0.2145  0.0134  0.3936
23981W        W40115  15.461  11.276  13.301  0.0921 -0.0963 -0.4009
23982W        W40116  12.217   6.677   4.399  0.0741  0.0314 -0.1862
23983W        W40117  11.379   1.960   2.244  0.3690 -0.1446 -0.1589
23984W        W40118   8.154   8.396  14.068 -0.0381  0.0907 -0.1560
23985W        W40119   1.153   5.839   9.962  0.0971 -0.0572  0.1463
23986W        W40120  16.157  19.039  14.164 -0.2323  0.0987  0.0739
23987W        W40121   2.295  18.668  12.599  0.2373  0.3217 -0.0241
23988W        W40122   4.652   9.544  15.120  0.0362  0.0238  0.1276
23989W        W40123  14.763  15.646  12.168 -0.2263  0.1797  0.1872
23990W        W40124  18.274  18.843  12.976 -0.0858  0.0302  0.0057
23991W        W40125  14.234  15.974  13.950 -0.2785  0.0539  0.0317
23992W        W40126  10.028   9.109  11.927  0.2631  0.0248 -0.1460
23993W        W40127  12.534  16.313  13.057  0.1541 -0.0872  0.0684
23994W        W40128  12.864   6.082   2.775 -0.3624 -0.0613  0.0989
23995W        W40129   9.514  13.789  10.606  0.0127 -0.1128 -0.2633
23996W        W40130   1.274  15.143   4.388 -0.3637  0.1267 -0.2094
23997W        W40131  14.952  14.217  12.286 -0.1097 -0.0083  0.1994
23998W        W40132  14.657  13.794  14.918  0.0092  0.2496  0.1055
23999W        W40133   6.613  17.490   4.034 -0.0325 -0.1365  0.0603
24000W        W40134   7.332   3.886  11.889 -0.3212 -0.2980  0.0951
24001W        W40135   6.687   7.676   3.618  0.1580  0.2316  0.1044
24002W        W40136  12.605   3.669  13.378 -0.3018  0.0692  0.2629
24003W        W40137   5.119  10.942   3.771  0.1285  0.4598 -0.1131
24004W        W40138   9.857   4.261  10.169  0.0039 -0.4538 -0.0549
24005W        W40139   9.648   7.904  13.293 -0.2238  0.0880 -0.0166
24006W        W40140  10.814   7.314  12.922 -0.1591 -0.2714  0.1592
24007W        W40141   2.296  16.379   0.588  0.1116  0.3096 -0.1512
24008W        W40142  12.784   0.844  13.404  0.0175 -0.1293  0.2075
24009W        W40143   2.740  18.261  10.527 -0.0382 -0.2427  0.2339
24010W        W40144  14.127   4.374  14.726 -0.0625 -0.1268  0.0900
24011W        W40145   7.433  17.123  14.051  0.2272 -0.2927  0.0066
24012W        W40146   8.913  10.771  11.115  0.2105  0.0772 -0.0791
24013W        W40147  12.314   6.080   3.397 -0.1653 -0.0517 -0.1471
24014W        W40148  17.401  14.225  13.867 -0.0343 -0.0938 -0.2025
24015W        W40149  17.341  14.643  14.458 -0.3942 -0.1827  0.1251
24016W        W40150   6.446   7.597  13.632 -0.0631 -0.0455  0.0310
24017W        W40151  14.150  12.282   4.144  0.0045  0.3639  0.0466
24018W        W40152   5.094   4.552   2.416 -0.1795 -0.0800 -0.1506
24019W        W40153   3.808  18.146   4.128 -0.1107 -0.2758 -0.1035
24020W        W40154  12.260  18.903   3.486  0.3400 -0.1088 -0.1207
24021W        W40155   0.231   7.109   0.013  0.0870 -0.0316  0.0159
24022W        W40156  17.549  19.113   1.288  0.0325  0.4676 -0.0059
24023W        W40157  14.903   0.991   5.362  0.0168  0.0800 -0.1885
24024W        W40158  18.593  14.297  12.749 -0.0694 -0.0381 -0.4031
24025W        W40159  15.276  14.768   3.842  0.1937 -0.0068  0.6250
24026W        W40160   3.646  15.517   1.328  0.2537 -0.0169 -0.0321
24027W        W40161   8.600   2.599  12.050 -0.0055 -0.4393  0.0711
24028W        W40162   5.880  16.995  11.856 -0.0355  0.1239 -0.0747
24029W        W40163   7.480  17.222  11.270  0.0465  0.4470 -0.0110
24030W        W40164   9.697   0.565  11.091 -0.3055 -0.1679 -0.0632
24031W        W40165   2.853   3.815  14.269 -0.1185 -0.2911  0.0305
24032W        W40166   2.930  12.551   3.952  0.3521  0.0952 -0.3032
24033W        W40167  14.603  10.594  11.085  0.2184  0.2560  0.1452
24034W        W40168   3.147   5.684   1.306  0.3224  0.1722 -0.0848
24035W        W40169  13.121  12.790   4.943  0.0198 -0.0692 -0.1474
24036W        W40170  16.460  13.847  12.727 -0.1846  0.1302  0.0093
24037W        W40171  10.605   2.554  12.680 -0.0798  0.0191  0.0547
24038W        W40172  18.960   5.336  11.838  0.0425  0.0427  0.1040
24039W        W40173   1.972  11.902   0.402 -0.0046  0.0196 -0.0992
24040W        W40174   1.240   7.845   2.850 -0.1371 -0.0970 -0.0202
24041W        W40175   0.656  13.995   5.337  0.2235  0.2643  0.3615
24042W        W40176  15.593  13.996   3.247  0.0320  0.1999  0.3003
24043W        W40177  15.090   3.629  14.405  0.0569  0.0378  0.1300
24044W        W40178   8.328   1.475   3.253  0.4306 -0.0234  0.0430
24045W        W40179   3.111  17.585   4.042  0.1766 -0.2750  0.2268
24046W        W40180  10.116   5.393   4.344  0.2241 -0.3057 -0.0241
24047W        W40181   7.434  15.742  12.843  0.3566 -0.1308 -0.0316
24048W        W40182  10.722   9.161   3.836  0.1725  0.0974  0.4566
24049W        W40183   4.620  18.576  13.770 -0.0501  0.1048 -0.1088
24050W        W40184  13.952  19.146  11.976 -0.2633  0.0565 -0.4479
24051W        W40185  16.740  10.232   1.034 -0.4739  0.0418 -0.0442
24052W        W40186   1.863  13.815   3.540  0.2153 -0.0183  0.0000
24053W        W40187   5.096   4.829   3.371  0.1845 -0.2435  0.3601
24054W        W40188   4.278   8.621  14.298  0.0274  0.2128  0.0824
24055W        W40189  12.533   6.033  14.287  0.0348 -0.2477 -0.1161
24056W        W40190   6.994   3.874   5.861  0.2827 -0.0826 -0.1486
24057W        W40191   2.515   6.509  12.452 -0.0998 -0.1220  0.1581
24058W        W40192   0.237  18.071   3.599 -0.0462  0.3454  0.3069
24059W        W40193   6.553   1.055   5.338 -0.1901 -0.1020  0.0885
24060W        W40194   2.651  13.471  11.848  0.1123  0.3197  0.0035
24061W        W40195   7.809  16.679  12.101 -0.1184 -0.0606 -0.0696
24062W        W40196   5.560   5.989   9.875 -0.1496 -0.0639  0.2054
24063W        W40197   9.677   6.467  10.689 -0.2261 -0.2964  0.1647
24064W        W40198   7.884  11.641  13.543 -0.0341  0.1628 -0.2711
24065W        W40199   2.557  14.193   4.014 -0.1265 -0.2543 -0.1565
24066W        W40200   5.507  15.556   2.543  0.1600 -0.3341 -0.0231
24067W        W40201   2.729   9.392  13.952  0.0648 -0.1424 -0.0096
24068W        W40202  15.551   2.132  11.476  0.1115 -0.1700 -0.1000
24069W        W40203  11.437   7.642  12.838 -0.1496  0.4384  0.2836
24070W        W40204  18.479  12.435   4.980 -0.1912  0.1673  0.3798
24071W        W40205  15.117  13.935   3.188 -0.3169 -0.1014 -0.0300
24072W        W40206   5.901   9.591   4.662 -0.0094 -0.3821  0.4634
24073W        W40207   9.935   1.370   4.265  0.0872 -0.0092  0.3530
24074W        W40208  14.333  10.983   0.265 -0.1100  0.0025  0.1921
24075W        W40209  11.368  12.879  14.341 -0.0124 -0.1544 -0.0282
24076W        W40210  15.539   4.216   2.706  0.0483  0.1966  0.0278
24077W        W40211  15.869  13.822   3.964  0.1971 -0.3039  0.3675
24078W        W40212   2.044   6.253  10.352  0.0509  0.1190 -0.0231
24079W        W40213   3.371   7.356   3.023  0.2182  0.2938  0.2616
24080W        W40214   1.264  12.384  10.560  0.0162 -0.0795  0.0731
24081W        W40215   2.694  10.642   4.283 -0.1239 -0.0740 -0.0810
24082W        W40216  17.546   2.416  11.936 -0.2034  0.0532  0.1438
24083W        W40217   6.806  14.843   1.959 -0.2551  0.0525  0.1516
24084W        W40218   0.279  15.627  11.900  0.0356 -0.1084 -0.1177
24085W        W40219  16.493   4.949  13.900  0.0097 -0.1532  0.0236
24086W        W40220  13.565  17.156   4.367 -0.0376 -0.0391  0.0489
24087W        W40221  10.367  17.865   1.874 -0.1157  0.1088 -0.0035
24088W        W40222  16.368   8.379  13.903  0.4264  0.2621  0.0713
24089W        W40223  17.723  12.499  14.257  0.0173  0.0067  0.0844
24090W        W40224   4.746  16.823   0.169  0.2681 -0.2309  0.0759
24091W        W40225   6.271  13.177   2.348 -0.2978 -0.1811 -0.4049
24092W        W40226  14.369  12.767   1.117 -0.0861  0.0156 -0.0348
24093W        W40227   6.282   0.553   4.615 -0.5041  0.1543  0.0934
24094W        W40228   9.255  13.187  15.091  0.1339  0.1188 -0.4115
24095W        W40229   0.398   6.860   2.047  0.0743 -0.4286  0.2531
24096W        W40230  12.117   2.493   3.031 -0.1587 -0.0831  0.4511
24097W        W40231   9.530   8.877   0.120 -0.2203 -0.0673 -0.1755
24098W        W40232  17.600   0.727   2.318 -0.1371  0.3345  0.0538
24099W        W40233   9.258  12.184  12.186  0.1370 -0.1252  0.0494
24100W        W40234  13.060   4.307  13.575  0.1021 -0.0333  0.4079
24101W        W40235   5.859   5.240   3.159  0.1043 -0.4007 -0.1033
24102W        W40236  13.591   4.735  11.956  0.0598 -0.1486  0.0261
24103W        W40237  17.818   3.361   3.399 -0.2084 -0.0388  0.2314
24104W        W40238  14.758  18.138   3.151  0.2037  0.0558  0.1025
24105W        W40239   2.046  18.214   1.481 -0.0611  0.0855  0.0067
24106W        W40240   6.903   6.834   0.168  0.2781 -0.0343 -0.0658
24107W        W40241  14.428  11.348  11.056  0.1405  0.3146 -0.1190
24108W        W40242   9.715   5.790   2.513 -0.1568 -0.0880  0.0844
24109W        W40243   3.480   2.066   3.149  0.0347 -0.2093  0.0744
24110W        W40244  12.463   3.492  12.381 -0.2367  0.1328  0.2650
24111W        W40245  16.080  17.923  13.403  0.1675 -0.0880 -0.0248
24112W        W40246  16.322   3.038   3.587 -0.1324 -0.1409  0.1760
24113W        W40247  14.758   2.962  12.123 -0.2575 -0.2332  0.3826
24114W        W40248  10.896   8.848  14.595  0.0703 -0.0128 -0.1388
24115W        W40249   4.033  16.636   3.756  0.2767 -0.0378 -0.2287
24116W        W40250   8.682   1.523  11.203 -0.0083  0.1579  0.2804
24117W        W40251  13.090   7.359  14.966 -0.0352 -0.0155 -0.1953
24118W        W40252  16.994   7.297   9.839 -0.2279 -0.0413 -0.1503
24119W        W40253  11.457  13.098  13.289  0.0361  0.3192  0.0919
24120W        W40254  13.273  18.023   3.474 -0.0365 -0.4968  0.1212
24121W        W40255   3.796  17.997  11.619  0.0209 -0.2857  0.1727
24122W        W40256   8.098   4.742   4.364  0.0717 -0.0882 -0.2798
24123W        W40257   6.390   2.021  14.503  0.1417  0.0562 -0.2590
24124W        W40258   9.269  13.966   0.626  0.1762  0.0099 -0.0769
24125W        W40259   4.156   1.136   1.321  0.2838  0.4010 -0.1223
24126W        W40260   6.634   5.708   3.994  0.0820  0.2564 -0.0855
24127W        W40261   2.229  10.703   3.428 -0.1286 -0.2131  0.0434
24128W        W40262   9.231  16.394   3.119  0.1712 -0.1499  0.0453
24129W        W40263  14.155  16.104  14.544 -0.0238 -0.3217 -0.0397
24130W        W40264  16.067   3.983   1.103  0.5093 -0.4035 -0.0901
24131W        W40265   0.878  15.981   4.078 -0.0342 -0.1180 -0.1751
24132W        W40266  17.973  13.019   5.654 -0.3882 -0.1120 -0.0305
24133W        W40267   5.620   0.342  11.613  0.0338  0.2729  0.0986
24134W        W40268  14.558   8.153  12.398 -0.0991  0.1212  0.1316
24135W        W40269   9.043  10.158   0.005  0.2780  0.3147  0.0682
24136W        W40270   1.991  13.343  13.723 -0.0194  0.1181 -0.0985
24137W        W40271  15.410  12.134   4.437 -0.1119  0.2569  0.1389
24138W        W40272  15.689  15.682  11.035 -0.3027  0.1240  0.3224
24139W        W40273   0.381  17.478  13.172 -0.1774  0.2972  0.0082
24140W        W40274   7.888   3.796   1.003 -0.0178 -0.3619 -0.1390
24141W        W40275   9.248  13.907   1.138  0.0397  0.0436 -0.0894
24142W        W40276  14.610  17.917   4.088 -0.0231 -0.1704 -0.1854
24143W        W40277  15.535  15.360   4.556  0.0940 -0.1532  0.2738
24144W        W40278   7.403   5.284   0.279 -0.1603 -0.0132 -0.0154
24145W        W40279  10.918   0.267  12.794  0.1445 -0.3696 -0.1037
24146W        W40280   7.601   2.448   0.835 -0.0321 -0.3756 -0.0430
24147W        W40281  11.212   2.721   5.115 -0.0438 -0.2202 -0.1801
24148W        W40282  10.178  18.789  13.155  0.0456  0.4063  0.0392
24149W        W40283  12.628  13.680   3.593 -0.4272  0.3488  0.4090
24150W        W40284   1.580  15.010  12.109  0.1589 -0.1287  0.0730
24151W        W40285   1.860   4.368  14.984 -0.0809 -0.0543  0.0133
24152W        W40286  12.665  16.637  14.570  0.0552  0.1137  0.1810
24153W        W40287  15.473  15.763   0.529  0.0820 -0.0468 -0.1775
24154W        W40288   1.780   7.484   2.284 -0.3200  0.1379  0.0791
24155W        W40289   2.784   8.319   3.021  0.3280 -0.1682  0.0665
24156W        W40290   5.804   2.334  13.512 -0.1671 -0.0551  0.1002
24157W        W40291   0.920   8.132   2.474  0.0291  0.1539 -0.3965
24158W        W40292   4.212  15.787  13.150 -0.2521  0.3483  0.1590
24159W        W40293  17.205  13.485  14.867 -0.1188  0.2198 -0.0565
24160W        W40294   4.609   0.118   3.090 -0.0943  0.4203  0.1024
24161W        W40295  16.309  18.874   1.751  0.1358  0.2777 -0.0856
24162W        W40296  12.152  10.137   3.738 -0.2753 -0.0853  0.3617
24163W        W40297   7.301   6.597  12.508  0.0981 -0.1113  0.2391
24164W        W40298  15.415   5.956  10.507  0.3029 -0.0986 -0.3177
24165W        W40299   9.113  15.444   3.354  0.0909 -0.0001  0.0756
24166W        W40300   9.632  16.571   0.824  0.2846 -0.2917  0.1050
24167W        W40301   6.012   6.007  10.581  0.0813 -0.0022 -0.0322
24168W        W40302   6.255  17.994   4.799 -0.0306  0.0866  0.0053
24169W        W40303   3.313  10.266  14.193  0.0178  0.0394  0.2475
24170W        W40304  18.991  15.487   2.294  0.0844  0.2935 -0.3471
24171W        W40305   7.912  16.547   0.346 -0.0277 -0.1554 -0.1754
24172W        W40306   6.884   7.357  15.006  0.1108  0.1922  0.0654
24173W        W40307  14.522  15.695  11.458  0.1477  0.0587  0.1947
24174W        W40308   9.206   6.300  11.169 -0.0357 -0.0673  0.1383
24175W        W40309  19.118   2.040  11.718  0.0200 -0.0534 -0.0154
24176W        W40310   3.200  10.568   3.735  0.0083  0.1645 -0.0781
24177W        W40311   6.273   6.540   3.738 -0.0535 -0.1489 -0.0049
24178W        W40312   5.270   5.883   0.537 -0.0535 -0.0429  0.0778
24179W        W40313  14.747  15.475  15.091 -0.2700 -0.0135  0.0729
24180W        W40314  13.222   5.234  11.911 -0.0287  0.2649 -0.0743
24181W        W40315   9.636   4.845  12.318  0.1104 -0.2565  0.0373
24182W        W40316   4.733  16.799   1.255  0.0005  0.1588 -0.0688
24183W        W40317  11.856  13.679   2.002  0.1521 -0.0637 -0.0053
24184W        W40318   6.451   1.039  14.353 -0.2939  0.1258  0.0900
24185W        W40319   4.456   4.830  14.428  0.2027  0.1110 -0.1578
24186W        W40320   7.705   0.977   1.767  0.0158  0.3706 -0.1292
24187W        W40321  11.235  18.060   5.252 -0.1552 -0.1757  0.1857
24188W        W40322  14.040   7.128   3.150 -0.2260 -0.1668  0.0372
24189W        W40323  14.278   7.633   3.401 -0.2399 -0.0189 -0.3169
24190W        W40324   0.273   1.182   4.583 -0.3075  0.3149  0.0379
24191W        W40325  13.735   2.132   4.399 -0.0720 -0.0541 -0.2216
24192W        W40326   7.101   8.517   5.509 -0.2063 -0.0598 -0.0523
24193W        W40327   5.121  13.226   1.534 -0.1149 -0.0603  0.1621
24194W        W40328   1.991  15.494   3.338  0.4253  0.1239 -0.4519
24195W        W40329  10.668  18.487  12.663  0.2644 -0.0665  0.2284
24196W        W40330   7.363   0.520   0.454  0.2482 -0.1198  0.0743
24197W        W40331  16.384   6.199   2.022 -0.2577  0.2630  0.2512
24198W        W40332  13.444   0.954   3.145  0.3010  0.2603  0.1312
24199W        W40333   5.670   8.224   0.124  0.0491 -0.0311  0.1242
24200W        W40334  13.421  15.456  10.410 -0.0865  0.0573  0.2328
24201W        W40335  15.018  15.087   0.081  0.0771  0.0697 -0.1786
24202W        W40336  13.564  18.134   4.442 -0.1956  0.5590 -0.2158
24203W        W40337   2.788  17.367   0.150 -0.1551  0.1178 -0.0532
24204W        W40338   2.286  18.313  14.911 -0.0329  0.0349 -0.0025
24205W        W40339   7.543   2.496  12.272  0.0523  0.1713  0.0505
24206W        W40340   6.200  17.576  13.874  0.1390 -0.0233  0.1482
24207W        W40341   6.966   5.783  14.392  0.0929  0.3327 -0.1766
24208W        W40342  18.077  11.306   0.661 -0.0364  0.0151  0.2127
24209W        W40343   6.917   0.551   4.474 -0.0909 -0.2989  0.0340
24210W        W40344   8.445   3.642   1.216 -0.0239 -0.1732  0.0326
24211W        W40345  11.065  16.461  10.975  0.2640  0.3225  0.0058
24212W        W40346   8.552   6.983  12.982 -0.1940 -0.0047 -0.0831
24213W        W40347   0.059  18.297   2.315 -0.0866 -0.2460  0.2183
24214W        W40348  11.343   3.978  13.806 -0.2492  0.2982  0.2244
24215W        W40349  18.021   5.280   4.305 -0.0322  0.0932 -0.0091
24216W        W40350   2.900  14.083  11.329  0.3683  0.0685  0.2233
24217W        W40351   6.046  16.125   2.366  0.2556  0.2421 -0.1787
24218W        W40352   0.651  11.441  11.707 -0.1963  0.0781 -0.3265
24219W        W40353  17.121  18.610  10.613 -0.0411  0.0779  0.1954
24220W        W40354   7.109  10.529  12.690 -0.2523  0.1686  0.0085
24221W        W40355  15.965  16.511   2.971 -0.0785 -0.3186  0.2476
24222W        W40356   7.929  14.711  12.133  0.1915 -0.2822  0.2910
24223W        W40357   3.757  14.791   4.751 -0.0688 -0.1571 -0.1208
24224W        W40358   2.394  11.000  11.954  0.1110 -0.1022  0.0578
24225W        W40359   7.958   2.844  11.434  0.1117 -0.1007 -0.1097
24226W        W40360  14.772  15.018  11.501  0.1401 -0.4270 -0.6556
24227W        W40361   2.872  11.996  13.329  0.0093  0.5993 -0.1256
24228W        W40362  18.690  11.515  12.584  0.0602  0.1187  0.1262
24229W        W40363  14.878  11.502  11.063 -0.0254 -0.1164 -0.0313
24230W        W40364  16.047  13.832   3.037  0.2490 -0.4492 -0.2132
24231W        W40365  12.039  15.548  11.056  0.0555 -0.1394  0.1099
24232W        W40366   0.241  10.424   4.750  0.0165 -0.1379 -0.0649
24233W        W40367  13.914   5.785   2.990  0.0948 -0.1114 -0.1597
24234W        W40368  18.628  18.284  14.464  0.0314 -0.1241 -0.0570
24235W        W40369   2.575   8.878   0.639 -0.2799 -0.1416  0.1464
24236W        W40370  18.275  18.129  12.886  0.2066  0.0434  0.0290
24237W        W40371   5.808  12.274  12.641 -0.0353 -0.2325 -0.1767
24238W        W40372  17.249   6.642   2.949  0.4011 -0.0951 -0.1691
24239W        W40373  11.627  13.022  12.691 -0.1682  0.1145 -0.0042
24240W        W40374  16.956   0.310  10.401 -0.3090  0.0300  0.0589
24241W        W40375  17.424   4.021  11.289  0.3000 -0.0765  0.0283
24242W        W40376  15.375   5.366   5.094  0.1114  0.0573  0.4718
24243W        W40377  18.096  16.091   0.537 -0.1979  0.0138  0.1224
24244W        W40378   3.726   7.379   1.314 -0.1965  0.0231 -0.2081
24245W        W40379  16.100   2.294   0.726  0.1084 -0.2495  0.0009
24246W        W40380   9.324  15.436  10.450  0.1029 -0.1071  0.1540
24247W        W40381  17.650   9.388   3.092 -0.0131 -0.2910 -0.0699
24248W        W40382  15.319  18.159   1.061  0.4339  0.1361 -0.2331
24249W        W40383   9.885  13.215  11.907 -0.2353 -0.3950 -0.1809
24250W        W40384  10.342   4.153  12.777 -0.0048 -0.3072 -0.3007
24251W        W40385   2.419  12.527  12.128 -0.1702  0.3134  0.3828
24252W        W40386  10.773   8.627   3.811 -0.1840 -0.0283  0.2040
24253W        W40387   1.477  10.916   1.036 -0.2235 -0.1793  0.0166
24254W        W40388   4.365  10.919   1.159 -0.1208  0.2536  0.0603
24255W        W40389  14.429   0.137   0.310 -0.1610 -0.0054 -0.3027
24256W        W40390  12.208  14.900  15.023 -0.0075 -0.5600  0.0325
24257W        W40391   6.563   5.115  14.842  0.0816 -0.0858 -0.0326
24258W        W40392   6.564   2.536   2.168 -0.1390 -0.3719 -0.3059
24259W        W40393  15.260  14.330  13.936  0.1151  0.0508 -0.0055
24260W        W40394   1.646   4.140   3.271  0.0461  0.1211  0.0214
24261W        W40395  12.558  14.382  14.196 -0.0169  0.0040 -0.1316
24262W        W40396  13.586  14.942  12.424  0.1791 -0.2803 -0.1470
24263W        W40397   4.943  15.618  14.228 -0.2293 -0.1564  0.0698
24264W        W40398   3.066   3.387  14.428 -0.0795 -0.0205 -0.4925
24265W        W40399   8.125  14.907   6.181  0.2080 -0.0770  0.2633
24266W        W40400   6.718  19.050   3.890 -0.2700  0.4323 -0.1742
24267W        W40401  11.629  16.184  14.416  0.1957  0.1455 -0.0971
24268W        W40402   1.273   6.813  10.840  0.2050  0.1044  0.0078
24269W        W40403  16.405  12.826   3.171  0.1289  0.1065  0.0209
24270W        W40404  14.186   5.394   3.607 -0.0422 -0.3018 -0.0047
24271W        W40405   9.944  11.382  13.076  0.0104  0.4444 -0.2358
24272W        W40406   6.263   1.457   0.652  0.1036  0.2449 -0.0435
24273W        W40407   0.239  15.832  12.348 -0.1365 -0.0270 -0.0977
24274W        W40408  11.057  14.621   9.955  0.0761 -0.1609  0.0787
24275W        W40409   8.718  19.031   2.610 -0.2708 -0.1349 -0.0724
24276W        W40410   2.168   0.170  10.501 -0.0977 -0.0195 -0.2162
24277W        W40411   1.317   2.408   2.475 -0.4074  0.0290  0.0905
24278W        W40412  16.236   8.976   4.846  0.1243  0.0157  0.1088
24279W        W40413   8.640  13.988  10.572  0.1645  0.0850 -0.2984
24280W        W40414   6.489  11.984   1.537  0.0471  0.0178  0.0889
24281W        W40415  17.820   5.311   0.015  0.1416 -0.0133  0.1236
24282W        W40416   5.351  12.757  13.388  0.3526 -0.3504  0.0305
24283W        W40417  15.010  15.324   1.844 -0.0802  0.1812  0.0852
24284W        W40418  12.239   8.030   4.429  0.2466  0.2198 -0.1192
24285W        W40419   7.954  10.093   0.387  0.1495 -0.0552 -0.0472
24286W        W40420   2.475   4.264   2.440  0.0178 -0.0324  0.1621
24287W        W40421   2.504  13.592   1.176  0.4017  0.0420 -0.0459
24288W        W40422   7.469   0.334  14.527 -0.1159 -0.2090  0.0161
24289W        W40423   0.892  10.012   1.561 -0.0504  0.2914 -0.2164
24290W        W40424  18.168  14.354   4.523  0.1150 -0.0681  0.1132
24291W        W40425   0.223  12.441  14.432 -0.0987  0.0680  0.0986
24292W        W40426  12.685  16.985   2.773 -0.3055 -0.2608  0.0938
24293W        W40427   1.267   0.126  13.150 -0.3288  0.2104  0.1514
24294W        W40428  16.417  16.212   0.008 -0.0605 -0.3480  0.2667
24295W        W40429  10.596  12.947   3.600 -0.2625 -0.0372  0.1139
24296W        W40430   6.259   1.786  12.026  0.5245 -0.1150  0.1039
24297W        W40431  13.354  18.072   1.620  0.0055 -0.1744 -0.3132
24298W        W40432   8.970   9.791  12.836  0.1762 -0.1303  0.1935
24299W        W40433  15.114   6.642  12.198  0.4507 -0.3044 -0.2259
24300W        W40434  14.483  13.699   9.421  0.0553 -0.1123  0.1829
24301W        W40435   5.863  12.646  14.029  0.2731 -0.2651 -0.1187
24302W        W40436  13.530   9.895   2.206  0.0393 -0.1254  0.2092
24303W        W40437   7.618  10.010   3.628  0.0085  0.3351 -0.0394
24304W        W40438  12.191   1.244   3.331 -0.1646 -0.1391  0.0401
24305W        W40439   8.162   4.062   2.856 -0.0895  0.3049 -0.1505
24306W        W40440   4.090  12.166  13.293 -0.0685 -0.0200  0.1966
24307W        W40441  18.704   0.959   2.902 -0.1065  0.2725 -0.0625
24308W        W40442   8.934  14.328  12.706  0.2235 -0.1508  0.1292
24309W        W40443   5.003   1.646   9.168 -0.0333  0.2186 -0.0752
24310W        W40444  10.115  11.724  14.835 -0.1144 -0.3119  0.0278
24311W        W40445   4.522  14.036  10.879 -0.2898  0.0203  0.1845
24312W        W40446  15.574  16.337  13.380 -0.1647  0.1838  0.2986
24313W        W40447   8.781   9.041  12.796 -0.1026  0.2832 -0.3509
24314W        W40448   1.030  12.202   3.353  0.3221  0.0828 -0.1010
24315W        W40449  18.504  12.311  11.296 -0.0506  0.0840 -0.1136
24316W        W40450  13.957   4.064   4.710 -0.0847  0.1353  0.1137
24317W        W40451  17.396   9.048   4.363  0.0049 -0.0327 -0.3021
24318W        W40452   8.275  18.106  12.466  0.3653 -0.1878  0.1008
24319W        W40453   4.970  16.650  12.201 -0.0184  0.1375  0.0154
24320W        W40454   9.483  16.980  13.487 -0.0613 -0.3484  0.3662
24321W        W40455  13.715  17.947  13.117 -0.1561  0.0694 -0.1483
24322W        W40456  17.392  16.863  13.978  0.1026 -0.2361 -0.1716
24323W        W40457   2.100  14.922   2.423 -0.0378 -0.0050 -0.2054
24324W        W40458  16.104   4.082  14.799 -0.2440 -0.2470 -0.2162
24325W        W40459   7.468   5.170   2.400  0.0729 -0.2457 -0.1201
24326W        W40460   2.379  15.901  13.783  0.0577 -0.2378 -0.0796
24327W        W40461   5.791   8.429   1.188 -0.0753 -0.1871 -0.2836
24328W        W40462  12.945  16.747   4.816  0.0627  0.2612 -0.0663
24329W        W40463   5.366   2.062   3.820  0.2557  0.1265 -0.0860
24330W        W40464  13.785  11.980   3.803  0.2901 -0.0659 -0.0328
24331W        W40465   0.096  19.111  13.498  0.0557 -0.0978 -0.2287
24332W        W40466  13.580   2.674   0.887 -0.3014  0.2291  0.1183
24333W        W40467   8.854   6.096  12.675 -0.0104  0.0448  0.2060
24334W        W40468   0.117   7.524  13.009  0.2465 -0.2854  0.0168
24335W        W40469  15.275   1.095  12.676  0.0007 -0.0137 -0.1157
24336W        W40470   8.270  14.826   2.336 -0.2441  0.2042  0.0435
24337W        W40471  15.491   4.209  10.872 -0.0223  0.0240  0.3001
24338W        W40472   5.476  12.852  12.522  0.2554  0.1311 -0.1550
24339W        W40473  12.042   0.897   2.464  0.4029 -0.3148 -0.1061
24340W        W40474   7.604  11.779  13.949 -0.3119 -0.0736  0.0946
24341W        W40475  15.763  10.952   0.484  0.0772 -0.1085 -0.1206
24342W        W40476  11.324  10.857   4.640  0.0540 -0.0082 -0.1267
24343W        W40477  15.985  16.775  10.643 -0.0159 -0.2253 -0.0341
24344W        W40478  14.379  13.382  11.461  0.1100  0.2394  0.2415
24345W        W40479  10.948  10.973  13.555 -0.1258 -0.1374  0.4090
24346W        W40480  17.151  18.611   0.030 -0.0815 -0.1732  0.2606
24347W        W40481  10.982  14.557   1.236 -0.2366  0.0053 -0.2803
24348W        W40482   7.217  15.656   2.437 -0.1860 -0.4025  0.3112
24349W        W40483  10.106   9.501   1.312  0.0758 -0.2409  0.2055
24350W        W40484   7.024   5.480   5.168 -0.2087 -0.1389 -0.5758
24351W        W40485   4.267   3.383  13.926 -0.1186  0.0203 -0.0930
24352W        W40486  11.160  15.022   1.620  0.1733 -0.4209  0.2722
24353W        W40487   0.264  14.293  11.388 -0.0392  0.2066  0.0323
24354W        W40488   0.789   1.816  12.339 -0.1169  0.2946 -0.1327
24355W        W40489  14.336   5.632   4.901 -0.2804 -0.0595 -0.0731
24356W        W40490   8.707  12.123   4.460 -0.0768 -0.3171  0.1452
24357W        W40491  12.436  14.366   4.264 -0.3244  0.4097 -0.2971
24358W        W40492   6.721   1.272  13.851  0.1570 -0.1638 -0.0629
24359W        W40493   6.422   8.971  11.319 -0.2585  0.0275  0.1332
24360W        W40494   9.176  11.844   5.261  0.2039 -0.0790  0.3345
24361W        W40495  11.131   1.333  11.817  0.2276  0.0280 -0.0501
24362W        W40496   4.658  10.984   2.288 -0.0464 -0.0190  0.0542
24363W        W40497   9.741   4.087  11.606  0.1272  0.2606  0.0905
24364W        W40498   2.983   6.840   1.834 -0.3455 -0.1157  0.0367
24365W        W40499   1.805   9.559  10.940  0.1612  0.1631  0.0592
24366W        W40500   9.197  11.378   2.258 -0.3079  0.5046 -0.1375
24367W        W40501  10.813  17.170  12.347  0.0216 -0.2120  0.0136
24368W        W40502  10.827  14.245   0.123 -0.2019  0.0045 -0.0106
24369W        W40503   9.285   3.370   2.518  0.3364  0.1158  0.0409
24370W        W40504   3.527  11.236   1.838 -0.0560  0.0550 -0.1053
24371W        W40505  14.851  19.019   1.755  0.1564  0.1835  0.1459
24372W        W40506  11.347  17.186  10.332 -0.3226 -0.2376 -0.0380
24373W        W40507   0.292   4.915  11.766 -0.1359 -0.2230 -0.1485
24374W        W40508   0.281  10.991   5.636  0.1634 -0.1768 -0.2823
24375W        W40509   6.891  15.347  10.882 -0.2346  0.1733 -0.2276
24376W        W40510  11.287  12.587  11.981 -0.0213  0.4252 -0.1023
24377W        W40511   8.520  17.454   0.344 -0.0985  0.3448 -0.3098
24378W        W40512   4.458  12.939   2.795 -0.2993  0.2723  0.0003
24379W        W40513   1.899  11.842  12.670  0.0592  0.2020 -0.1063
24380W        W40514  10.997  13.111  14.113 -0.0475 -0.0529  0.0411
24381W        W40515  10.537   9.163  13.249 -0.3248 -0.3014 -0.1387
24382W        W40516   1.546   3.530  12.817  0.0278 -0.1541 -0.0294
24383W        W40517   7.185   9.332  11.090 -0.1943  0.3200  0.3389
24384W        W40518   9.194   0.561   4.651  0.2336 -0.0650 -0.1310
24385W        W40519  10.346  15.573  12.283 -0.2492  0.0934 -0.2614
24386W        W40520  10.167  18.102  13.592  0.0966 -0.0706 -0.1445
24387W        W40521  17.028  12.209   3.535  0.1400 -0.1291  0.1431
24388W        W40522   6.556  15.206  11.201  0.2564 -0.3138  0.1347
24389W        W40523  13.197   6.921   1.193  0.1976 -0.1189  0.4573
24390W        W40524  12.321  13.952  14.368 -0.1161 -0.2898 -0.3705
24391W        W40525   7.044  11.190  11.037 -0.1672  0.5111  0.1727
24392W        W40526   0.444  15.235   4.387 -0.3289 -0.0636 -0.0473
24393W        W40527  10.891   1.416  11.182  0.0388 -0.0418  0.0093
24394W        W40528   1.208  13.559   3.290 -0.0748  0.1374  0.2630
24395W        W40529   4.635   4.008  12.559 -0.3121  0.3370 -0.1017
24396W        W40530   2.232   4.893   1.651  0.0544  0.1446 -0.0545
24397W        W40531  12.856   9.134   1.203  0.1769 -0.1676  0.1348
24398W        W40532   1.642   8.240   0.351  0.2494  0.1903  0.3739
24399W        W40533  11.263   2.245  14.174 -0.2794 -0.0310  0.0154
24400W        W40534   1.403  16.742   2.343 -0.0152 -0.0346  0.2033
24401W        W40535  12.205   3.769   2.327 -0.2940 -0.0647 -0.0635
24402W        W40536  13.048   8.184   0.340  0.2042 -0.1708  0.2086
24403W        W40537  11.766   4.700   5.061 -0.2205 -0.0129 -0.1911
24404W        W40538   7.683  14.916  13.123 -0.0149 -0.3495  0.1252
24405W        W40539   3.509  11.157   3.171 -0.2961 -0.2967  0.3326
24406W        W40540   1.586  19.121  12.347 -0.2983  0.2560  0.1467
24407W        W40541   5.989  11.588  12.114  0.0812 -0.0233 -0.2532
24408W        W40542   5.836   6.867  12.189 -0.0387 -0.1151  0.0789
24409W        W40543   3.544   4.042  14.396 -0.2303 -0.3967 -0.2735
24410W        W40544   8.661  15.752  12.007  0.1989 -0.0943  0.3699
24411W        W40545   9.984  18.658  11.619 -0.0584 -0.2039 -0.1660
24412W        W40546  18.174  10.727   3.734  0.0471 -0.1310 -0.0746
24413W        W40547   4.008   0.332   3.121 -0.1848 -0.2469 -0.0086
24414W        W40548  14.645   5.277  11.770  0.1066  0.0624  0.0822
24415W        W40549   6.525  14.924  11.610 -0.1591  0.1223 -0.0944
24416W        W40550  10.732  12.671   1.131  0.0371  0.3504  0.2295
24417W        W40551  18.368  10.431  14.140 -0.0719  0.0187  0.0272
24418W        W40552  14.883  17.433   3.455  0.1045  0.1685 -0.0846
24419W        W40553  11.224   7.417   3.697 -0.1333  0.2521 -0.1211
24420W        W40554  17.691   1.372   3.853 -0.4075 -0.1630 -0.0744
24421W        W40555   7.892   0.338   2.738  0.2446 -0.0685  0.2582
24422W        W40556  15.552  11.598  14.367  0.2941  0.0895 -0.5015
24423W        W40557   3.663  15.950   0.165 -0.0307  0.1778 -0.1093
24424W        W40558   7.273   3.678   5.504 -0.0297  0.0463 -0.1029
24425W        W40559  13.010  17.573  11.302 -0.1957  0.2298  0.2492
24426W        W40560   0.738   6.340  12.962  0.0855 -0.1002 -0.2761
24427W        W40561   2.732  14.162   4.893 -0.3427 -0.0112 -0.1424
24428W        W40562  14.750   6.959   4.087 -0.0382  0.0147  0.2075
24429W        W40563  10.191  18.103   2.788  0.1567  0.1969 -0.1165
24430W        W40564   5.675   3.379  10.007 -0.1644 -0.0027 -0.0439
24431W        W40565   7.550   3.492   5.055 -0.4913 -0.6139 -0.0314
24432W        W40566   8.197   0.344   3.183  0.1444  0.1251 -0.1803
24433W        W40567  13.700   4.280   2.601 -0.2131 -0.1441  0.3817
24434W        W40568  12.363   4.307   2.840 -0.3943 -0.2031  0.1618
24435W        W40569  13.598   2.067  14.910  0.2399 -0.0258 -0.0093
24436W        W40570   3.146  11.530   1.737  0.0048  0.0598 -0.1575
24437W        W40571  18.937   4.114   1.616 -0.2477  0.1648 -0.2078
24438W        W40572   3.666  13.727  14.102  0.0893  0.1789  0.1847
24439W        W40573   4.493   6.145  14.447  0.2058  0.1681  0.0609
24440W        W40574   5.538  12.301  11.633 -0.0685  0.0142 -0.0730
24441W        W40575  15.523  11.942  14.014 -0.3335 -0.0557 -0.1626
24442W        W40576  15.853  15.718   2.969  0.2385 -0.2343 -0.1955
24443W        W40577   9.676  13.901   0.402  0.1013  0.0294  0.1323
24444W        W40578  10.033   3.935   0.713  0.2775 -0.3046  0.2454
24445W        W40579  18.513   7.352   2.514 -0.0318 -0.1960  0.2293
24446W        W40580  11.467   1.199  13.293 -0.1863 -0.1279  0.1674
24447W        W40581   7.314  12.532   4.172  0.4407 -0.1632  0.2083
24448W        W40582  14.364   4.462   3.705 -0.3008 -0.1486 -0.2686
24449W        W40583   7.312   7.988  15.167 -0.0899  0.1997 -0.2847
24450W        W40584  17.272   2.888   4.788 -0.1140  0.2172 -0.1247
24451W        W40585   4.669  11.757  12.821  0.2374  0.3207  0.1705
24452W        W40586  18.829   4.884  11.655  0.0039  0.1376  0.2542
24453W        W40587   3.642   2.552  11.354  0.0680 -0.2210 -0.1002
24454W        W40588  18.023   7.148  12.787  0.1935 -0.2817  0.1352
24455W        W40589   2.938   2.372   4.442 -0.1525 -0.0058 -0.1770
24456W        W40590  17.937   5.845   4.514  0.2851  0.0546  0.1977
24457W        W40591  17.862  10.657   1.708 -0.2441 -0.0039  0.1480
24458W        W40592   3.474   0.368  12.679 -0.1058  0.0065  0.0202
24459W        W40593  18.492  14.050  14.660  0.0016 -0.2975  0.1348
24460W        W40594   8.353  16.366  13.636 -0.1024  0.3431 -0.3174
24461W        W40595  18.820   1.350   0.519  0.3453  0.0713 -0.1850
24462W        W40596   4.852  18.070   3.919 -0.1673 -0.3671 -0.0262
24463W        W40597  18.022   4.479   2.499 -0.0940 -0.1133 -0.0411
24464W        W40598   5.755   6.516   0.066  0.1903  0.2283  0.0440
24465W        W40599  16.830  10.680  13.904  0.0526 -0.0089  0.0812
24466W        W40600   8.173  15.620   4.180 -0.0634 -0.1728  0.1538
24467W        W40601   5.062  12.535   4.911 -0.0883  0.0991 -0.1836
24468W        W40602  18.671  12.366   3.858  0.0149 -0.2456  0.3084
24469W        W40603  12.122   5.747   2.754  0.0588 -0.0858  0.3671
24470W        W40604  12.761   8.383   1.118 -0.1457 -0.1101  0.1456
24471W        W40605   3.016  15.830   1.961 -0.0341 -0.0158  0.2978
24472W        W40606  11.259  10.245   1.464  0.0576 -0.0159  0.1406
24473W        W40607   5.997   5.129  10.904 -0.3838  0.0503  0.0535
24474W        W40608  16.042  11.623  14.548 -0.0236 -0.2763  0.0186
24475W        W40609   9.222  10.540   3.539  0.3377 -0.0034 -0.0310
24476W        W40610   8.341   1.175  11.290  0.1646  0.0257  0.0175
24477W        W40611   7.555  14.957   4.682  0.2347  0.0877  0.2018
24478W        W40612   9.720  12.439  12.483 -0.0869  0.0418 -0.0217
24479W        W40613  13.988   5.884  12.088 -0.1831  0.1773 -0.2713
24480W        W40614  17.331   9.966  11.805  0.1101 -0.2194 -0.1051
24481W        W40615  11.511  15.546  11.929  0.2970 -0.1772 -0.1693
24482W        W40616   0.295  15.924   3.132 -0.0238 -0.0277  0.2359
24483W        W40617  10.611   4.822  14.928  0.2057  0.1891 -0.1703
24484W        W40618  14.759   5.771   0.479  0.1288 -0.0950  0.2276
24485W        W40619  12.329  11.149  11.722 -0.3581  0.4110 -0.0243
24486W        W40620   4.639   5.573   1.145  0.0581  0.0592  0.0349
24487W        W40621   4.589   7.283  14.663  0.0404  0.0430  0.1987
24488W        W40622   7.516   3.967  12.412 -0.0006  0.0779  0.2069
24489W        W40623   3.256  10.704  13.806 -0.1656 -0.1117 -0.1088
24490W        W40624   9.222   2.245  11.183  0.1866  0.1174 -0.1627
24491W        W40625   9.162  14.353  14.498 -0.1626 -0.1329  0.0196
24492W        W40626  17.497   6.554   2.101  0.0518  0.2122 -0.1496
24493W        W40627  17.018   6.935   3.391 -0.1412 -0.1512  0.2288
24494W        W40628  10.699   5.854  10.634 -0.1737 -0.0502 -0.0449
24495W        W40629   4.656  18.343   2.285  0.1180 -0.2399  0.1875
24496W        W40630  17.479   6.072  12.196 -0.1057 -0.0969  0.3235
24497W        W40631  11.191  13.584   3.012 -0.2515  0.3666  0.1843
24498W        W40632   7.195   5.320  14.427  0.2596 -0.2852 -0.0735
24499W        W40633   6.636  13.554   0.028 -0.0327  0.2658  0.2940
24500W        W40634   5.453   3.144   2.603  0.3196 -0.3161 -0.0800
24501W        W40635  17.422   2.051   1.775 -0.2699  0.0357 -0.0581
24502W        W40636  18.558  17.483   2.136 -0.1697 -0.2545  0.0040
24503W        W40637   4.208  13.622   0.371  0.4489 -0.1686 -0.1245
24504W        W40638  16.429   7.081  11.034  0.2709  0.2509  0.1435
24505W        W40639   7.396   9.280  11.510  0.1122 -0.3224  0.0473
24506W        W40640  14.730  17.091   1.940  0.0169 -0.1386  0.0647
24507W        W40641   0.481   3.771  11.625 -0.0968 -0.1165 -0.0036
24508W        W40642   2.989   3.066  12.400  0.0031  0.1552  0.0374
24509W        W40643   1.778   9.148  12.706  0.0046 -0.0981  0.4047
24510W        W40644   1.718  12.443   2.778  0.3552 -0.2095  0.3052
24511W        W40645   4.326  11.901   0.637 -0.1656  0.0094 -0.3610
24512W        W40646  18.336  14.165   3.890  0.2978  0.1724  0.2079
24513W        W40647   1.046  11.434   0.588  0.0398  0.1073 -0.0551
24514W        W40648   2.442  15.070   1.237  0.0375 -0.4356  0.2699
24515W        W40649  13.423   9.333   3.015  0.0107 -0.0310  0.0823
24516W        W40650   1.290   6.392  14.234 -0.0494  0.2932 -0.0594
24517W        W40651  18.102   5.363   1.993  0.0740 -0.4106  0.1173
24518W        W40652  17.254  12.189  13.089  0.0391  0.0516  0.1990
24519W        W40653   0.654   3.058   4.121 -0.0371  0.0667  0.3585
24520W        W40654   3.587   0.666  14.588 -0.0982 -0.1905 -0.0348
24521W        W40655   1.028   5.771   1.285 -0.0744 -0.0560 -0.1870
24522W        W40656   1.714  12.980   0.171  0.0813 -0.0148 -0.2316
24523W        W40657   3.159   4.293  11.971 -0.0439  0.1914  0.1764
24524W        W40658   3.767  13.742  10.288  0.3818 -0.0988 -0.0465
24525W        W40659  18.688   3.886  10.762 -0.0103 -0.2653 -0.5769
24526W        W40660   3.874   1.166   2.160  0.0081  0.0675  0.1353
24527W        W40661   0.007   3.559  13.481  0.0803 -0.1265  0.0966
24528W        W40662   2.103   9.123   3.130  0.0652  0.1077  0.1612
24529W        W40663  12.549   0.134   3.800 -0.1615 -0.1329 -0.3113
24530W        W40664  17.476   3.341  12.204  0.0415 -0.3322  0.2162
24531W        W40665  13.971   0.607  12.588 -0.0397 -0.0808 -0.1293
24532W        W40666   8.347   0.547   5.184  0.1265  0.0291 -0.2315
24533W        W40667  14.152   5.173  14.256  0.1405 -0.3121  0.1837
24534W        W40668   5.419  11.504  15.112  0.0247  0.3692  0.1277
24535W        W40669  16.539  15.013   0.219 -0.0276 -0.0113 -0.1983
24536W        W40670   9.371  18.873   3.402 -0.1983 -0.1153  0.3636
24537W        W40671   2.378  15.126   5.225 -0.0045  0.0177 -0.0074
24538W        W40672   4.472   7.859   3.422 -0.2122  0.2353 -0.0399
24539W        W40673   1.271  10.448   0.868 -0.0562 -0.2445 -0.2297
24540W        W40674  12.674  13.541  13.518  0.1943 -0.0935 -0.0997
24541W        W40675  12.490  12.587   1.060  0.0631 -0.0038  0.1167
24542W        W40676  10.161   2.748   3.268  0.0970 -0.0313 -0.1659
24543W        W40677  14.768   4.625   2.870  0.3938  0.3322  0.3097
24544W        W40678   5.436  12.742   5.254 -0.2076 -0.0063 -0.0736
24545W        W40679  12.987   7.758  10.293 -0.1339 -0.0408 -0.0981
24546W        W40680  16.958  17.091  14.014 -0.0670  0.0014  0.3725
24547W        W40681  14.987  14.399  13.428 -0.0495 -0.3749  0.0774
24548W        W40682  14.037  18.326   1.830 -0.0519  0.0177  0.2138
24549W        W40683   0.742   3.534  11.008  0.1216 -0.1406 -0.0831
24550W        W40684  12.353  16.524  10.609  0.0956 -0.2439 -0.4903
24551W        W40685   4.117  15.519   4.874  0.0030  0.2358 -0.1362
24552W        W40686  10.802  16.567   9.379 -0.1035  0.0501  0.0328
24553W        W40687  14.875  18.723  11.948 -0.1468 -0.4279  0.1077
24554W        W40688   9.826   3.270  13.080 -0.0630  0.0293 -0.0236
24555W        W40689   2.712   9.985   1.662 -0.1009  0.2242 -0.1481
24556W        W40690   0.967   4.666   1.791 -0.2454 -0.2891 -0.0899
24557W        W40691  15.140  18.729   0.969  0.1118 -0.2621 -0.1878
24558W        W40692  14.191  16.897  11.001 -0.2146  0.0442  0.0358
24559W        W40693   1.024  13.733   5.094 -0.1249  0.1253  0.1202
24560W        W40694  18.242  11.906  14.514 -0.2168  0.1075 -0.1732
24561W        W40695  12.463  11.410   5.025  0.3173 -0.2770  0.0043
24562W        W40696  17.236   7.476  12.226 -0.2193  0.2124  0.0104
24563W        W40697   5.146   8.294   4.396  0.2009 -0.2382 -0.0359
24564W        W40698  13.845   7.668   3.135  0.4038  0.3495  0.2317
24565W        W40699  12.993  16.799  12.498  0.1066 -0.2233  0.0768
24566W        W40700   6.545  16.299   4.637 -0.3021 -0.0707  0.1454
24567W        W40701   4.412  11.184  15.051 -0.1210  0.0257 -0.2282
24568W        W40702   7.972   3.603   4.706  0.1108  0.1658 -0.0007
24569W        W40703  14.062   1.057  14.145  0.2842 -0.0684 -0.0960
24570W        W40704   9.082   6.723  13.686 -0.1174 -0.0864  0.1081
24571W        W40705  17.503  14.282  11.189 -0.1942 -0.0140  0.2794
24572W        W40706   4.258   2.436  12.736  0.1115  0.0637 -0.0800
24573W        W40707  11.662  18.884  14.627 -0.1554 -0.3173  0.1498
24574W        W40708  12.531  10.734   3.053  0.2165  0.0217  0.0598
24575W        W40709  11.427   8.935   4.198  0.2344  0.0770 -0.3508
24576W        W40710   6.530  19.032  12.289 -0.2133  0.2722  0.0308
24577W        W40711   3.661   2.923   4.577  0.2735 -0.0425  0.0596
24578W        W40712   4.108   9.637   3.147 -0.2365 -0.1877 -0.0221
24579W        W40713   1.445  10.775  11.712  0.0426  0.0007 -0.0724
24580W        W40714  14.615   5.495   5.873 -0.2042  0.0722 -0.0713
24581W        W40715  18.769   7.138  12.378  0.2384 -0.2912 -0.0174
24582W        W40716   3.800  16.951  15.077 -0.0250 -0.0338 -0.4740
24583W        W40717   5.674   5.096  14.216 -0.2454  0.3249 -0.0411
24584W        W40718  18.490   8.901  13.328  0.2424  0.1182 -0.1086
24585W        W40719   3.650  10.481  13.190  0.0711  0.4074  0.0976
24586W        W40720   9.326  10.687  10.831  0.0997 -0.1020  0.1835
24587W        W40721   8.955   9.487   0.636  0.0587  0.1003 -0.0392
24588W        W40722   5.657  16.293  14.035 -0.0597 -0.2863  0.2149
24589W        W40723   1.277  18.492  14.133  0.1425 -0.4299 -0.0215
24590W        W40724  13.472  14.884  11.352  0.1160  0.1736 -0.2206
24591W        W40725  16.628  17.566  13.731  0.0477 -0.0755  0.0751
24592W        W40726  17.800   8.169   0.529 -0.0394  0.0318  0.0030
24593W        W40727   0.857   4.315  11.303  0.0084 -0.3053 -0.2367
24594W        W40728  11.974   8.854   3.265  0.2889  0.0468  0.1596
24595W        W40729   9.806  17.479   9.574 -0.0158 -0.1207  0.0049
24596W        W40730   8.513   5.522   2.020  0.0605  0.0447 -0.0540
24597W        W40731  14.399  17.895   0.793  0.1974 -0.1603  0.0579
24598W        W40732  18.729   8.576   4.477  0.0782  0.0969 -0.2222
24599W        W40733  18.162  12.881   5.124  0.0407 -0.1326  0.3708
24600W        W40734  13.081   9.068   4.042 -0.2199  0.3622  0.0366
24601W        W40735   8.601  17.725  12.882 -0.0948  0.5010  0.1258
24602W        W40736   8.953  12.940   1.524 -0.2440 -0.0293  0.1570
24603W        W40737   6.240  14.587  13.586 -0.0555 -0.0080 -0.1525
24604W        W40738   5.644  15.274   3.038 -0.0392  0.0000 -0.4295
24605W        W40739  13.943   7.990   9.948  0.0961  0.0620  0.1987
24606W        W40740   5.448   9.468   5.389  0.0436  0.2467  0.1994
24607W        W40741   5.405   6.948  15.064 -0.0331 -0.1480  0.1358
24608W        W40742   1.297   1.359   4.600 -0.0411 -0.1582  0.0428
24609W        W40743  16.495  17.285  14.099  0.1197  0.0455  0.0689
24610W        W40744  18.293  15.488  13.446 -0.1577 -0.0971  0.1136
24611W        W40745  14.477   9.531   2.684  0.1032  0.0785 -0.3175
24612W        W40746  11.985   4.139  11.096 -0.0065  0.1965  0.1787
24613W        W40747  10.952   5.838  10.212 -0.0782  0.1770 -0.2981
24614W        W40748  12.968   5.823  14.379 -0.1648 -0.1006 -0.0836
24615W        W40749  18.783   2.280  14.715  0.3114 -0.0106  0.1969
24616W        W40750  16.922   9.791  10.414  0.0668 -0.1354  0.1491
24617W        W40751  16.826  10.828  11.686 -0.3268  0.3713 -0.2076
24618W        W40752  15.181  15.482   2.483  0.3788 -0.0204 -0.0062
24619W        W40753  15.903  15.388   2.077 -0.4870  0.0771 -0.0661
24620W        W40754  15.364  16.715   2.162 -0.0675 -0.1327  0.4218
24621W        W40755   2.843  10.357   2.232 -0.0814 -0.0726  0.1300
24622W        W40756  16.496  18.359   0.703 -0.2969 -0.0877 -0.2529
24623W        W40757  16.233   6.000  11.056  0.0366  0.0357  0.1096
24624W        W40758   5.151   1.335  12.113 -0.0504  0.1694  0.1061
24625W        W40759   3.180  11.086  13.086  0.0458 -0.0508  0.3043
24626W        W40760  13.761   7.522   0.920 -0.0533 -0.0475 -0.1934
24627W        W40761   7.495  14.060  12.758  0.3045  0.2688 -0.2210
24628W        W40762  19.147   7.197   3.087 -0.4158  0.3703  0.0634
24629W        W40763   0.629  15.384  13.711 -0.1066  0.1472 -0.3349
24630W        W40764  10.926   2.229   0.021 -0.0644 -0.3259  0.2076
24631W        W40765  10.979  18.314  13.070  0.0697 -0.1407  0.0141
24632W        W40766  13.069  13.968   2.059  0.0268  0.0745  0.0259
24633W        W40767  12.246   0.398   4.114  0.4340 -0.1993 -0.0294
24634W        W40768   4.477   9.256  11.783  0.2729 -0.0982 -0.0720
24635W        W40769   8.854  17.261  11.711  0.1014  0.3236 -0.1268
24636W        W40770   7.424   2.399   3.461  0.0479  0.1549 -0.0043
24637W        W40771   8.749   6.960  14.623  0.0425 -0.0933  0.1150
24638W        W40772   4.727   7.985  11.743 -0.3309 -0.0891 -0.2270
24639W        W40773  11.851  12.739   3.338  0.4582  0.0084  0.3396
24640W        W40774   3.029  13.296   0.473 -0.0719  0.0654 -0.0443
24641W        W40775  16.740  18.033   2.106  0.1712 -0.3120 -0.3526
24642W        W40776   0.618   2.578   3.090 -0.2236 -0.0195  0.0709
24643W        W40777   4.587   0.179   0.702  0.2164 -0.1117  0.2856
24644W        W40778   0.424  17.724   4.921 -0.0998 -0.1327 -0.0847
24645W        W40779  11.941   6.653  11.763 -0.1682  0.3722 -0.3033
24646W        W40780   2.888  14.519  12.694  0.0623 -0.1140  0.1419
24647W        W40781   8.138  12.711   2.082  0.1021 -0.2207 -0.0031
24648W        W40782  16.012   1.816  11.660 -0.0786  0.0320 -0.0416
24649W        W40783   8.310   2.810  10.790  0.0228 -0.2634 -0.1680
24650W        W40784   6.140  12.299   4.355 -0.0720 -0.1303 -0.3212
24651W        W40785  13.235  16.907  12.986  0.0610  0.0248  0.4869
24652W        W40786  10.309   3.087  14.357 -0.0035  0.1715 -0.2261
24653W        W40787  17.378  16.308  15.107  0.2441  0.1332 -0.2709
24654W        W40788  15.576  10.255   3.293  0.4308  0.0669  0.1758
24655W        W40789  11.168  12.891  11.597 -0.3478  0.2855  0.2221
24656W        W40790   6.585  13.377   2.961 -0.1847  0.2228  0.3347
24657W        W40791  14.957  18.271  10.687  0.0051  0.0238 -0.2579
24658W        W40792  11.313  15.867  13.399 -0.2052 -0.1014  0.0465
24659W        W40793   8.689   7.872   4.837  0.0849 -0.0457  0.1744
24660W        W40794  19.108  13.891  11.253 -0.0328  0.1263 -0.0415
24661W        W40795  12.862   7.508   2.560  0.1162 -0.1302 -0.2208
24662W        W40796   9.679  16.331   1.979 -0.2375 -0.0738  0.4527
24663W        W40797  13.975  14.083   2.452  0.1038 -0.1663 -0.1458
24664W        W40798   2.270   3.429  12.088 -0.2340  0.2674 -0.0569
24665W        W40799  12.116  15.561  14.783  0.1810  0.2151 -0.2556
24666W        W40800   0.657   1.849  12.855  0.0973 -0.1420 -0.0580
24667W        W40801  12.312  12.585   4.035 -0.2417  0.3244 -0.3727
24668W        W40802  16.228  10.776   2.916  0.1256  0.0794  0.0269
24669W        W40803  13.107  11.689  11.182  0.2531  0.0903 -0.1920
24670W        W40804   0.589   4.282  12.893 -0.0303 -0.0087 -0.0744
24671W        W40805   0.015  15.267  11.969 -0.1604 -0.1122 -0.3717
24672W        W40806  17.108  11.512  10.285 -0.2082 -0.1541 -0.0156
24673W        W40807   5.818   5.626   3.495  0.0430 -0.0301 -0.2257
24674W        W40808   8.617  14.496   5.201  0.1480  0.5268 -0.0863
24675W        W40809   7.810  17.534   9.935  0.2969  0.1163  0.0481
24676W        W40810  12.947   7.020  13.939 -0.2978 -0.0638  0.0096
24677W        W40811  11.289  16.225  14.765 -0.0947  0.2301 -0.5647
24678W        W40812   5.714   4.747  11.697  0.2032  0.4852  0.1077
24679W        W40813   2.980   0.690   4.118 -0.1951  0.1537 -0.2422
24680W        W40814   0.587   5.944  14.663  0.0030  0.0631  0.0725
24681W        W40815   5.315   5.953  11.387  0.0490  0.0119 -0.3075
24682W        W40816   9.514  15.122   3.598 -0.1866  0.2793  0.3131
24683W        W40817   4.768  15.112   2.408 -0.3081 -0.2010 -0.2754
24684W        W40818   9.266  11.770  12.462  0.5425 -0.1497 -0.1680
24685W        W40819   7.354   9.745  11.231  0.0633  0.1412  0.1552
24686W        W40820   6.984  18.326   4.768 -0.2149 -0.0417  0.4367
24687W        W40821   6.664   4.369   1.033 -0.4333  0.0249  0.3419
24688W        W40822   3.974  15.577  11.094  0.0952  0.3348  0.1802
24689W        W40823   1.907   4.399  11.563 -0.0738  0.1800  0.3036
24690W        W40824  17.541   3.591   0.836 -0.1218 -0.2538 -0.3463
24691W        W40825   4.007   3.820   4.517  0.0457  0.2960  0.2764
24692W        W40826   2.078  14.061   0.515  0.0374 -0.3252  0.1167
24693W        W40827  15.533  13.115   1.903 -0.0362 -0.0746  0.3452
24694W        W40828  18.100   1.801   4.103  0.1353  0.0333  0.2012
24695W        W40829   5.283   6.985   4.184  0.0973 -0.1750  0.0386
24696W        W40830   3.678   0.600   3.390 -0.0830 -0.0622  0.1190
24697W        W40831   0.958  16.407   1.197 -0.0466 -0.0539 -0.0919
24698W        W40832   1.262  12.641   1.935  0.4125 -0.0883 -0.1975
24699W        W40833   1.025  13.094  12.457  0.3540 -0.0300  0.1431
24700W        W40834  11.002   4.048   1.037  0.2418  0.1758  0.1378
24701W        W40835  17.887   7.341   3.025  0.5285 -0.0154 -0.2465
24702W        W40836   0.235   9.989   3.846 -0.0945 -0.1131 -0.2453
24703W        W40837  18.709  13.635  11.034  0.0880  0.3973 -0.0726
24704W        W40838  14.053   8.064  11.744  0.0567 -0.0166  0.0764
24705W        W40839  18.387   4.743  10.791 -0.3268  0.0140  0.1582
24706W        W40840   2.669   3.785  13.415  0.0490 -0.0777  0.3091
24707W        W40841  10.489  16.736   0.481  0.1714 -0.0640 -0.3482
24708W        W40842   8.843  13.163   2.713 -0.0346  0.0212  0.0756
24709W        W40843   1.229   0.754   0.088  0.0224 -0.0901  0.0268
24710W        W40844  14.321  10.203   0.218 -0.0702 -0.1859 -0.0101
24711W        W40845  15.317   7.626  11.947 -0.3236 -0.0153  0.1828
24712W        W40846   3.563   0.523   1.483  0.0312 -0.0955 -0.0817
24713W        W40847   1.723   7.923  11.824  0.1243 -0.2700 -0.0023
24714W        W40848   9.946   6.332   4.066  0.3024 -0.1485  0.0706
24715W        W40849  10.479  10.643   4.890 -0.0085  0.1932  0.0603
24716W        W40850  10.169   0.207  12.098 -0.0055  0.1061  0.2636
24717W        W40851   2.186   6.556   3.034 -0.0100  0.2569  0.0681
24718W        W40852   9.570  10.707  13.864 -0.0658  0.2608 -0.1355
24719W        W40853   5.942  19.069   3.694  0.1400  0.2031  0.0766
24720W        W40854  14.980   7.908   3.070  0.0239  0.2130  0.0360
24721W        W40855  12.337   9.203   1.315  0.0769 -0.0709 -0.3490
24722W        W40856  17.242   4.070  13.859 -0.2584 -0.0613  0.1238
24723W        W40857   6.775   5.464   2.480  0.3833 -0.2825  0.1267
24724W        W40858  12.016   2.751   5.279  0.2284  0.0019 -0.2334
24725W        W40859  18.161   9.740  11.602 -0.2405  0.0836 -0.0703
24726W        W40860  11.651   2.524   4.993 -0.1645 -0.0291 -0.2338
24727W        W40861  10.857  14.384  12.432 -0.1540  0.4208 -0.0223
24728W        W40862  10.391   9.213   4.594  0.1211  0.4982  0.1038
24729W        W40863   1.013   4.771   2.319 -0.1916  0.1383  0.0638
24730W        W40864   3.249  18.053   3.218 -0.1259 -0.2091 -0.2172
24731W        W40865  10.349   4.142   2.251 -0.0414  0.0312 -0.2328
24732W        W40866   4.745   8.875  11.529  0.3137  0.1400 -0.2132
24733W        W40867   5.980  15.493  12.693  0.0603 -0.0697 -0.1202
24734W        W40868  16.943   4.332  14.801  0.0353 -0.0387  0.2992
24735W        W40869  13.727   7.423  14.806  0.0609  0.3472 -0.1147
24736W        W40870  15.391  11.021   4.398  0.3398 -0.0089 -0.4111
24737W        W40871  19.106  18.032  12.297 -0.0478  0.1591  0.0550
24738W        W40872  11.856   0.192  12.628 -0.4400 -0.0699 -0.1249
24739W        W40873  15.312   5.523   0.513 -0.0868  0.1797  0.5660
24740W        W40874  18.906  15.700  12.718 -0.4808  0.0096 -0.3498
24741W        W40875   9.850  12.181  11.982  0.3292 -0.1531  0.0509
24742W        W40876  14.990  11.475  13.167 -0.1949  0.2220 -0.0251
24743W        W40877   3.701  15.079  14.285 -0.1858 -0.2631 -0.2156
24744W        W40878  15.652   1.729  12.711 -0.1114 -0.0570  0.1801
24745W        W40879  13.401  19.018  12.235 -0.0256 -0.2088  0.1080
24746W        W40880  16.181  15.600  12.451 -0.0591  0.2923  0.1038
24747W        W40881   7.115   5.596   2.159 -0.4914  0.0678 -0.1975
24748W        W40882   6.339   0.542  12.105 -0.1883 -0.1178  0.0929
24749W        W40883  19.092  10.688  10.891 -0.0455 -0.1663  0.3500
24750W        W40884   9.651   9.859  10.490  0.1148  0.3466 -0.2605
24751W        W40885  17.900   8.640  13.687 -0.0891 -0.0400  0.4065
24752W        W40886  11.154   6.673  12.756  0.1589  0.0088  0.1144
24753W        W40887   9.759  18.527   3.329  0.0857 -0.2199  0.4105
24754W        W40888   7.370  15.550  12.227 -0.3264 -0.1355  0.1652
24755W        W40889  16.673   6.577  11.077  0.1756 -0.2450 -0.1099
24756W        W40890  16.786  11.848  13.513 -0.0040 -0.1781 -0.0511
24757W        W40891  10.022   3.917  12.497 -0.1199 -0.1876 -0.0373
24758W        W40892   5.767   1.867   4.198 -0.0455 -0.0367  0.0980
24759W        W40893   1.996   3.606  13.942 -0.0373  0.0225  0.0502
24760W        W40894   6.500  18.845   3.467  0.0641 -0.1804  0.1805
24761W        W40895  18.730  15.344   1.883 -0.1963 -0.0754  0.2504
24762W        W40896   9.759   5.202  12.636  0.1036  0.4160  0.0333
24763W        W40897  11.497   7.521  14.881 -0.2343 -0.3241 -0.0667
24764W        W40898   2.589  16.586  12.664 -0.4784  0.2274  0.1188
24765W        W40899  17.958   9.049   0.311  0.1712  0.0366  0.0604
24766W        W40900   8.091   0.975  10.851  0.3566 -0.0642  0.0344
24767W        W40901   9.011  12.371   2.296 -0.1112  0.1356 -0.0734
24768W        W40902   5.277  17.281  14.555  0.1933  0.3222 -0.0791
24769W        W40903  13.550  12.055   3.365 -0.1294 -0.1795 -0.3667
24770W        W40904   1.033  13.505  12.174  0.1795  0.0987  0.0048
24771W        W40905   0.696  16.013  12.495 -0.0119  0.1802  0.0897
24772W        W40906   1.909   6.814  14.719  0.0816 -0.0213 -0.0046
24773W        W40907  10.133  14.799   2.798 -0.3538  0.0251  0.2878
24774W        W40908   3.378   0.400   9.533 -0.1347  0.1333 -0.0950
24775W        W40909   5.412   4.745   1.526  0.0954  0.0191 -0.1319
24776W        W40910   0.363   5.444   0.285 -0.0351 -0.1132  0.0599
24777W        W40911   2.702   4.660   0.231 -0.3527  0.2675  0.0564
24778W        W40912  13.558  16.769  13.335 -0.2272 -0.1119  0.1551
24779W        W40913  14.224  12.366  10.547  0.0287 -0.0071 -0.0154
24780W        W40914  17.094  13.598   1.137 -0.2367  0.1743 -0.0554
24781W        W40915  15.865  10.331   5.050  0.2276 -0.0220  0.3653
24782W        W40916  17.422  13.619  12.255  0.0023 -0.1015  0.2357
24783W        W40917  10.974   5.056   0.998  0.1261 -0.0662 -0.1583
24784W        W40918   7.691  10.583  11.497 -0.0039 -0.0517  0.2901
24785W        W40919  14.302   7.640  11.596 -0.0085 -0.0282  0.2759
24786W        W40920   2.976   5.401   2.539 -0.0044  0.1451  0.0510
24787W        W40921   3.900   2.855  12.904  0.1580  0.0860 -0.1022
24788W        W40922   8.648  11.358   3.268  0.0750 -0.0595  0.0973
24789W        W40923  15.689   1.096  13.250  0.1675  0.0285 -0.0994
24790W        W40924  12.533   0.155  10.681  0.0709 -0.1121 -0.1426
24791W        W40925   6.310   6.971   5.564  0.0670  0.1627  0.2230
24792W        W40926  11.548  10.548  12.971 -0.0928 -0.0217 -0.0137
24793W        W40927   8.065  16.151  13.228 -0.0008  0.0155 -0.4578
24794W        W40928  17.597   2.695   1.487  0.1709  0.0327 -0.1263
24795W        W40929   4.991   0.459   2.894  0.0209 -0.1761  0.2006
24796W        W40930   6.161   8.914   5.752  0.1388 -0.0663 -0.1358
24797W        W40931  11.617  15.024  12.733 -0.0418  0.1479  0.2721
24798W        W40932  15.093  15.810  14.921  0.0467 -0.0115 -0.0260
24799W        W40933  15.282   7.401   4.812  0.1250 -0.0063  0.2514
24800W        W40934   7.296   0.730   1.556  0.2441 -0.1171  0.2864
24801W        W40935   7.000   4.617   4.719  0.0462 -0.0949  0.1889
24802W        W40936   5.455   9.095   1.053 -0.0977  0.0115  0.0962
24803W        W40937   2.740  18.638   0.491 -0.0799  0.1357  0.1526
24804W        W40938   3.944   8.823   3.276 -0.3611  0.1728  0.0226
24805W        W40939  12.323   1.689   2.390  0.0708  0.0255 -0.1493
24806W        W40940  13.851  10.252   3.984  0.3987 -0.0946 -0.0086
24807W        W40941   3.553   4.634   2.739  0.0595  0.1362  0.0592
24808W        W40942  18.425   7.475   3.480 -0.0015 -0.1018  0.1805
24809W        W40943   9.370  18.865  14.880  0.1690  0.1622  0.0229
24810W        W40944   8.824  16.109  12.716 -0.0618  0.1240  0.1301
24811W        W40945  17.762   7.529  12.460  0.0643  0.0796 -0.3108
24812W        W40946  18.453   6.179   1.497  0.1645  0.2537  0.0636
24813W        W40947  15.418   9.983  13.959  0.1360  0.0392 -0.3479
24814W        W40948  11.516   0.309  13.924  0.1991 -0.0946 -0.1441
24815W        W40949   5.628  18.534  13.062 -0.0093 -0.1726  0.0303
24816W        W40950   6.674   0.402   4.104  0.1603 -0.0636  0.1183
24817W        W40951  15.755   0.742   0.299 -0.1951  0.1566 -0.0538
24818W        W40952   2.804  16.493  15.026  0.3295  0.1571  0.0188
24819W        W40953  15.172   1.426   5.108  0.0730  0.0796 -0.1646
24820W        W40954   0.357  17.885  11.928 -0.2298 -0.2485 -0.2704
24821W        W40955  10.750  13.456   4.900  0.0866 -0.0362 -0.2472
24822W        W40956  10.411  12.324   4.122  0.3716 -0.3541 -0.1466
24823W        W40957  12.107  18.899   2.982  0.0172  0.0607  0.1230
24824W        W40958  13.160   3.167  11.751  0.1665  0.1037  0.0292
24825W        W40959  18.614   1.088   4.166  0.0265 -0.2615 -0.0008
24826W        W40960  10.415   7.112  12.004 -0.1496 -0.0264 -0.1403
24827W        W40961  16.423   9.994  11.559 -0.1143  0.1338  0.1418
24828W        W40962  19.001   0.608   3.123  0.0613  0.0760 -0.0351
24829W        W40963   8.752  14.066   3.843  0.3695  0.1709  0.1257
24830W        W40964  18.838  16.908   4.213  0.4534  0.1714 -0.1639
24831W        W40965  10.760   3.677  10.919  0.1152 -0.3309  0.3120
24832W        W40966  12.924   9.073  12.152  0.1106  0.1635  0.2064
24833W        W40967   3.179  16.597  14.621 -0.1567 -0.0911  0.1463
24834W        W40968  17.838  10.584  10.806  0.0257 -0.2617 -0.0254
24835W        W40969   7.355  13.992  11.622  0.0994  0.0887 -0.0214
24836W        W40970   5.497   8.649   3.742  0.1096 -0.1348  0.0730
24837W        W40971  13.156   5.786  13.406  0.1034 -0.2000  0.0508
24838W        W40972  17.461  14.241   5.294  0.0342  0.1869 -0.1128
24839W        W40973  12.051   0.583  12.986 -0.0647  0.4040  0.3751
24840W        W40974  10.615   7.188   0.847 -0.4734 -0.1221  0.0956
24841W        W40975  10.350  17.136   2.888 -0.0701 -0.0992  0.0698
24842W        W40976  10.888   2.837  11.755 -0.0553  0.0070  0.0624
24843W        W40977   4.185   2.260   4.435 -0.4609 -0.1642  0.2372
24844W        W40978  17.074  11.234   5.087  0.0151 -0.3222  0.2107
24845W        W40979   1.357   2.098   4.500 -0.0664  0.0873  0.2256
24846W        W40980  12.760   4.979   4.704 -0.0162 -0.0372  0.0795
24847W        W40981  15.761  10.071   4.397 -0.2344  0.0403  0.0566
24848W        W40982  18.405  12.421   1.583  0.2151  0.1417  0.0699
24849W        W40983  16.300  15.456  15.206  0.2852 -0.1074 -0.1753
24850W        W40984   7.016  18.551   0.857 -0.3884 -0.1960 -0.0518
24851W        W40985   6.748  16.398  11.931  0.1805  0.2906 -0.0777
24852W        W40986   9.616  15.659   0.704  0.1142 -0.1611  0.3087
24853W        W40987  16.336  17.139  13.113 -0.0309 -0.1982 -0.0824
24854W        W40988  18.530   3.390  10.636 -0.2932 -0.0675 -0.2263
24855W        W40989  14.015  14.359  14.617 -0.0900  0.0321  0.2032
24856W        W40990  17.523  11.198  13.140 -0.0006 -0.0741  0.1499
24857W        W40991  10.754   3.971  13.020  0.1020  0.4101 -0.2044
24858W        W40992   1.279  18.984   0.164  0.0013  0.1029 -0.1453
24859W        W40993   9.933  12.120  10.811 -0.0137  0.2783 -0.2252
24860W        W40994  16.037   2.987   0.095  0.2019 -0.2455  0.0313
24861W        W40995  11.540  13.287  10.751 -0.5438 -0.1301  0.3790
24862W        W40996   0.587   2.712  14.285 -0.0634  0.2483  0.2847
24863W        W40997   6.569  14.558   3.747  0.0838  0.1842  0.0340
24864W        W40998  17.650   6.471  12.994 -0.0084 -0.1595 -0.0105
24865W        W40999  14.111  15.068   3.962  0.2164  0.1318  0.3174
24866W        W41000   6.899   2.758   2.496  0.0153  0.1589 -0.1852
24867W        W41001   5.290  14.655  14.755 -0.1227 -0.1036 -0.0397
24868W        W41002  12.795  13.035   1.792 -0.1095  0.1271 -0.2144
24869W        W41003   4.643   3.557  13.543 -0.0896 -0.0457  0.3100
24870W        W41004   8.859   4.859  11.543 -0.2128  0.1688  0.0973
24871W        W41005  14.983   4.733  11.298 -0.1755 -0.0846  0.1488
24872W        W41006  11.530  16.391   0.593  0.2513  0.0972 -0.4631
24873W        W41007   4.738   1.384  11.779  0.1222 -0.0329 -0.0193
24874W        W41008   9.279  12.167  11.178 -0.2546  0.2929 -0.2327
24875W        W41009   2.931   3.506   4.034  0.1704  0.2381  0.0434
24876W        W41010  11.117   6.192   2.245 -0.2381 -0.1552 -0.1295
24877W        W41011   8.403   9.380  14.035 -0.2688  0.1429  0.3248
24878W        W41012   7.156  17.398  12.108  0.0650 -0.0573 -0.0860
24879W        W41013   6.535  15.791  14.380  0.0604 -0.2455 -0.2385
24880W        W41014   5.284   9.648   1.775  0.0695  0.3604  0.2287
24881W        W41015  19.076  11.968   2.774  0.2140  0.0641  0.0821
24882W        W41016   2.304   2.393  10.221 -0.2459  0.3372 -0.0183
24883W        W41017  13.839   2.768   2.777  0.2015  0.1370 -0.1290
24884W        W41018  17.606  17.914  13.696 -0.0901  0.2025  0.3814
24885W        W41019   4.320   4.521  13.985  0.2995 -0.1159  0.2890
24886W        W41020   5.403  11.079  11.387  0.0079 -0.0160 -0.0647
24887W        W41021  11.333  11.390  14.249 -0.1137  0.0126  0.1692
24888W        W41022   5.930  18.068   3.877  0.0375 -0.1879 -0.0403
24889W        W41023  17.150   5.671   4.370 -0.0079  0.0114  0.1387
24890W        W41024   9.959  14.344  12.210 -0.1634  0.1512  0.0863
24891W        W41025  16.941   8.018   0.974  0.0508 -0.1722 -0.3660
24892W        W41026   5.071  14.798  14.204  0.1366  0.4092  0.2049
24893W        W41027   4.605   0.395   3.567  0.0102 -0.1849 -0.1824
24894W        W41028  18.394  11.166   2.176  0.1917  0.1301  0.0627
24895W        W41029   1.520   6.424  10.665 -0.1160 -0.1637  0.0246
24896W        W41030   7.311   0.408   3.816  0.0816 -0.1764  0.3474
24897W        W41031   2.640   6.676   4.150  0.2301  0.0131 -0.1321
24898W        W41032  16.162  13.983   4.801 -0.0627  0.0006  0.0562
24899W        W41033   3.199   5.322   0.499  0.1863  0.0602  0.0507
24900W        W41034  11.784   4.463  14.440  0.1246 -0.0200  0.1458
24901W        W41035  17.484   1.122  14.088 -0.2283 -0.3006  0.2235
24902W        W41036   5.498  17.499   1.543  0.2269 -0.0132 -0.1077
24903W        W41037   2.079  10.714   0.357 -0.2727  0.1192 -0.1717
24904W        W41038  14.271   4.244   1.239 -0.0142  0.0256  0.1639
24905W        W41039  10.514  12.051   3.248  0.0336  0.0981  0.0427
24906W        W41040   6.083   8.512  15.141  0.2902 -0.2018  0.6882
24907W        W41041  14.254  16.305  13.009  0.4191 -0.3095 -0.1695
24908W        W41042   3.005  14.832   1.226  0.0489 -0.0293 -0.0779
24909W        W41043   2.550  15.171   2.465 -0.2659  0.0674  0.1210
24910W        W41044  11.254   8.593   2.122 -0.2123 -0.2931 -0.1899
24911W        W41045  18.499   1.321  14.608  0.1141  0.0800  0.2143
24912W        W41046  12.641   9.617   1.090 -0.0351 -0.0436 -0.1408
24913W        W41047  18.168   3.807   0.061 -0.3675  0.1294 -0.2503
24914W        W41048   3.877  14.924   0.908  0.0420 -0.1791 -0.0021
24915W        W41049   3.171   2.251   3.579 -0.0839  0.2853  0.0791
24916W        W41050  13.523  11.761  10.897 -0.0197 -0.3820 -0.0181
24917W        W41051  12.354   1.680   0.375 -0.1862  0.1204 -0.0659
24918W        W41052  16.969   8.854   3.157  0.0956  0.1829  0.1180
24919W        W41053   2.709   2.727  10.342  0.4102 -0.0816 -0.0882
24920W        W41054   2.243   1.632  13.044  0.1134 -0.0822  0.3608
24921W        W41055  16.139   5.835   0.584 -0.0964  0.0138 -0.2806
24922W        W41056   9.971   4.257  13.085 -0.0198 -0.3405  0.0685
24923W        W41057  11.200   7.468   2.750  0.0257  0.1296 -0.1606
24924W        W41058   9.306   5.697  11.425  0.0704 -0.0074  0.0166
24925W        W41059   3.360  10.218  15.100 -0.0351 -0.1310  0.3943
24926W        W41060   0.968   5.914   2.606 -0.0456 -0.0596  0.0002
24927W        W41061   6.387  10.487   1.308 -0.2063  0.0473  0.0820
24928W        W41062   8.236   4.058   1.441  0.0296 -0.1996  0.1003
24929W        W41063  12.488   1.274  11.211  0.1933 -0.0020 -0.2492
24930W        W41064  12.244   8.419  10.450  0.3041 -0.2950 -0.1959
24931W        W41065   3.398  11.419  13.517  0.0730 -0.2757 -0.1609
24932W        W41066   5.712   2.080  12.153 -0.0109 -0.0200  0.1681
24933W        W41067  13.357   2.685  11.838  0.4375 -0.0566  0.0808
24934W        W41068  16.052  15.097  13.631 -0.0944 -0.3527 -0.2654
24935W        W41069  15.907  12.928   3.374 -0.0991  0.2441  0.0386
24936W        W41070  18.138   7.113  11.179  0.0726 -0.0718 -0.0635
24937W        W41071   6.450  10.957   4.214  0.1630 -0.1002 -0.3908
24938W        W41072   3.502   2.453   4.650  0.0249 -0.0749  0.0262
24939W        W41073   9.278   7.660   3.337  0.0511  0.0192  0.2791
24940W        W41074  12.912  14.737  11.309 -0.0675  0.1907  0.0846
24941W        W41075   2.773  13.479  14.941 -0.3498  0.1854 -0.2298
24942W        W41076   9.463  13.895  11.572  0.0199 -0.1273 -0.1754
24943W        W41077   0.025  12.196   3.244  0.0126  0.2659 -0.1078
24944W        W41078   8.790  11.234  13.804  0.1017 -0.1079  0.1350
24945W        W41079   5.321   5.654   4.996 -0.0380 -0.0368 -0.2587
24946W        W41080   4.043   3.105  12.495  0.0820 -0.3311  0.0375
24947W        W41081   3.763  10.893   2.145  0.2262  0.0160 -0.2135
24948W        W41082   8.276  14.363  11.190 -0.0647 -0.1152 -0.2328
24949W        W41083  17.764  15.286  13.153  0.2342 -0.3169 -0.0157
24950W        W41084  11.939  10.973   1.727  0.1557 -0.2366 -0.2381
24951W        W41085   4.113  14.657   2.862 -0.0732 -0.2157  0.0682
24952W        W41086  18.754  14.466  11.897  0.2595  0.0124 -0.1904
24953W        W41087  15.332   5.892  12.606 -0.2527  0.1120 -0.3011
24954W        W41088   1.187   3.977  14.355  0.1966 -0.0238  0.1071
24955W        W41089   9.860   2.206  10.798 -0.2962  0.3179 -0.0974
24956W        W41090   5.976  18.641  11.256 -0.1348 -0.1968 -0.4314
24957W        W41091  17.834  16.960   2.306 -0.2571  0.0419 -0.0783
24958W        W41092  10.634   7.879  14.815 -0.0728  0.0137 -0.1742
24959W        W41093   2.818   8.077   2.578  0.2774 -0.0165 -0.0243
24960W        W41094  13.841  17.677   1.066 -0.0382  0.0611  0.0831
24961W        W41095  10.260  13.820  10.874  0.0006  0.0892 -0.0481
24962W        W41096   8.732  16.723  10.010  0.0344  0.0499 -0.2360
24963W        W41097   4.549   9.860  11.203  0.2711 -0.2294  0.2459
24964W        W41098   1.238  17.827  14.818  0.0556  0.3273  0.5301
24965W        W41099   7.686  13.357   4.567 -0.1828  0.2114  0.0351
24966W        W41100  17.730  18.277   5.036 -0.1431 -0.1907 -0.1572
24967W        W41101   4.951   3.085   0.459 -0.0631  0.0628  0.1825
24968W        W41102   8.326   8.150   2.407  0.2443 -0.2401 -0.0074
24969W        W41103  14.823  17.339  13.882  0.4654  0.0423 -0.0180
24970W        W41104   9.803  18.559  14.861 -0.2263  0.0624 -0.3463
24971W        W41105  14.040  10.959  11.804  0.0589  0.0327 -0.0808
24972W        W41106   1.209   8.659   1.086  0.0594 -0.1478  0.2649
24973W        W41107   8.338  15.171  14.824  0.1229  0.1181  0.0344
24974W        W41108  14.253  18.822   5.682 -0.1721  0.1104 -0.1670
24975W        W41109   7.952  16.872   4.514  0.0123 -0.1861 -0.2408
24976W        W41110   1.947   8.898   1.444  0.2161 -0.1605  0.1593
24977W        W41111  10.234   6.029   0.497 -0.2054  0.0417 -0.0961
24978W        W41112   9.379   1.780  12.429 -0.0312 -0.1650 -0.2551
24979W        W41113  18.057   3.489   3.790  0.1107  0.1751 -0.5786
24980W        W41114   4.543  15.905  13.844  0.0532 -0.1800  0.0109
24981W        W41115  17.840   9.585  12.403 -0.3285 -0.0512  0.0793
24982W        W41116  12.927  15.258   0.556  0.1736  0.0507 -0.1868
24983W        W41117  19.037   7.624   4.055 -0.0801  0.0818  0.2468
24984W        W41118   7.602   8.822  12.357 -0.5776 -0.2703  0.2896
24985W        W41119   1.089   6.075  12.092  0.1742  0.0805 -0.4456
24986W        W41120   7.761   9.194   2.271  0.0248 -0.2129  0.2438
24987W        W41121   1.721   8.586  12.857 -0.0638 -0.0412  0.1901
24988W        W41122  17.843  19.062   0.931 -0.0889 -0.3055  0.0106
24989W        W41123   4.797   3.735   3.047  0.2135  0.0022 -0.0673
24990W        W41124   1.048   4.804  15.028 -0.0405 -0.2570  0.0784
24991W        W41125   5.863   2.901   1.035 -0.0517  0.1554  0.0135
24992W        W41126  15.715   7.974  11.900 -0.0406 -0.1083 -0.0792
24993W        W41127   6.818  10.613   3.481  0.3178 -0.0611 -0.1800
24994W        W41128  15.470   8.799   1.917  0.3544 -0.3641 -0.1601
24995W        W41129  16.395   5.516   3.124  0.0838 -0.2002  0.2363
24996W        W41130   3.196   6.279  13.967 -0.2340 -0.1250  0.1430
24997W        W41131  13.122  15.394   9.979 -0.0954 -0.0713 -0.0669
24998W        W41132  13.255   2.107   2.710  0.0355  0.2049  0.0894
24999W        W41133   3.519  15.461  13.725 -0.0578 -0.0457 -0.2930
25000W        W41134   8.148   6.771  13.780 -0.1267  0.0386 -0.1725
25001W        W41135   2.602   7.698   4.112 -0.0395 -0.0302 -0.0428
25002W        W41136  16.135  17.958  12.649  0.1653  0.0918  0.0906
25003W        W41137  11.212  13.985  14.431 -0.2342  0.3072  0.2613
25004W        W41138   9.839   1.829  12.816 -0.1320  0.2119  0.0060
25005W        W41139   7.541   6.027  13.341 -0.1971 -0.1560 -0.0559
25006W        W41140  18.562   1.703   0.132  0.1155 -0.2410  0.2971
25007W        W41141  13.356   1.823  12.897  0.0758  0.2361 -0.3757
25008W        W41142   2.436   4.379  12.913 -0.3750 -0.0274  0.3977
25009W        W41143  14.399   6.850  13.804 -0.0574  0.0078  0.1209
25010W        W41144  15.411   1.881   0.187  0.0136 -0.0316  0.2852
25011W        W41145  16.466   0.173   0.031 -0.0538  0.0603 -0.0853
25012W        W41146  17.037   4.923   3.440 -0.3029 -0.0885  0.1565
25013W        W41147   6.893   2.521   3.654  0.2892 -0.0327 -0.3703
25014W        W41148   9.331   9.052   1.054 -0.3547  0.0346 -0.0331
25015W        W41149  11.202  12.571   0.997  0.3279  0.0984 -0.0487
25016W        W41150   8.345  15.862   1.438  0.0597 -0.4174 -0.0481
25017W        W41151  10.377  12.997  11.930  0.1600  0.0339 -0.1284
25018W        W41152   8.429  14.932  12.421 -0.0155 -0.4303  0.2389
25019W        W41153   9.526  13.300  12.737  0.0328 -0.0194 -0.0485
25020W        W41154  11.800  17.627  14.019 -0.1862  0.1242 -0.2512
25021W        W41155  12.962   2.977   5.297  0.0402 -0.0761  0.2143
25022W        W41156   9.404  17.107  14.003 -0.3677  0.2328 -0.0388
25023W        W41157   6.563  16.737   2.376  0.0921  0.0851 -0.0079
25024W        W41158  10.310  17.784   4.997 -0.1452  0.1945 -0.3992
25025W        W41159  10.800  11.443  10.602 -0.0093  0.0884  0.0610
25026W        W41160   0.853  10.166   5.026  0.1021 -0.2415 -0.1451
25027W        W41161  17.571   9.632   0.887  0.0987 -0.0133 -0.1037
25028W        W41162  17.560   3.287   4.946  0.0001  0.1458  0.4105
25029W        W41163   8.723  16.061   5.201 -0.1238 -0.3002 -0.0322
25030W        W41164   7.164   5.830   1.495  0.0055  0.0516  0.3340
25031W        W41165   6.256  13.974   1.050  0.2315  0.2224 -0.2330
25032W        W41166  16.592   9.980  13.038  0.1448  0.3491  0.2382
25033W        W41167   6.838  18.726  11.516  0.1588 -0.5243  0.0515
25034W        W41168  12.617   3.907   4.242 -0.2481 -0.0632 -0.2005
25035W        W41169   7.282   0.083  12.265  0.0524  0.1745 -0.4484
25036W        W41170  13.391  14.437  10.972 -0.3349  0.0681 -0.1535
25037W        W41171   5.809  16.255  13.060 -0.2424  0.1998 -0.0314
25038W        W41172   8.931  14.408   1.880 -0.2151 -0.0812 -0.1819
25039W        W41173   9.672   5.428  11.714 -0.2573 -0.0733  0.0745
25040W        W41174   7.987   4.840  13.429 -0.1006  0.4361 -0.2208
25041W        W41175   0.917   7.652   2.417  0.1165 -0.2134 -0.1693
25042W        W41176  14.810   9.811  12.803 -0.1440 -0.0077  0.0537
25043W        W41177   0.236   2.997   0.945 -0.1616 -0.0997 -0.0924
25044W        W41178   4.484   7.052   0.772  0.2651  0.1178  0.0185
25045W        W41179  14.437   9.228   1.169 -0.0504  0.1475 -0.0253
25046W        W41180   5.005   8.424  11.886 -0.2520 -0.1107 -0.1726
25047W        W41181  11.501  16.348   0.073 -0.1515 -0.1624  0.1507
25048W        W41182  10.334  16.500   3.821  0.3574 -0.2815 -0.2183
25049W        W41183   4.812  10.621  12.552  0.2127  0.1974 -0.4319
25050W        W41184  18.105   5.616   2.974  0.0603 -0.0437  0.1459
25051W        W41185   7.723   2.298  11.483 -0.4104  0.1106 -0.1256
25052W        W41186   2.367   4.163  12.499  0.1184 -0.1998 -0.1960
25053W        W41187  16.974   0.713   1.024  0.1385 -0.2668  0.1553
25054W        W41188   1.455   6.942  12.697 -0.0556 -0.0166 -0.2542
25055W        W41189   6.486  16.431  14.535  0.0147 -0.2049 -0.0055
25056W        W41190  17.550  18.090  11.827  0.0941  0.1182 -0.0986
25057W        W41191  11.045   2.775   1.585 -0.0415  0.3421 -0.1886
25058W        W41192   9.140   3.272   4.081 -0.1649 -0.0431 -0.3134
25059W        W41193   4.421  14.602   1.099 -0.1872  0.1378 -0.4048
25060W        W41194   6.340  14.958   3.531 -0.0600 -0.2877 -0.0401
25061W        W41195  11.985   5.161   5.123 -0.2561  0.0313 -0.1262
25062W        W41196   0.439  10.355   1.413 -0.1315 -0.2987  0.1418
25063W        W41197   8.875   3.858   2.008 -0.1659  0.0816 -0.1206
25064W        W41198  12.054  11.569  10.985  0.1071  0.0672  0.1071
25065W        W41199   7.329   2.348  10.817  0.0331 -0.0754  0.0201
25066W        W41200   7.020  13.477  14.293  0.1907  0.1937  0.1834
25067W        W41201   3.205  16.800   0.773 -0.1605 -0.0513  0.0749
25068W        W41202   1.182   6.386  10.090 -0.1189 -0.0306  0.2264
25069W        W41203  10.947   7.819  14.376 -0.0885  0.1011  0.2950
25070W        W41204   3.189   7.120   0.982  0.1441 -0.0392  0.2138
25071W        W41205  11.916  10.461  11.970  0.0726 -0.1895 -0.3230
25072W        W41206  14.179   5.029   5.177 -0.2244  0.2774  0.1166
25073W        W41207   1.466   6.520   1.745 -0.3711 -0.2349  0.1063
25074W        W41208   8.245   6.627  14.732 -0.1638 -0.1597 -0.0110
25075W        W41209   0.759  17.322   4.492  0.2707 -0.1297  0.0998
25076W        W41210   2.438  10.009   0.903 -0.0082  0.1412 -0.1623
25077W        W41211   1.154  14.416   1.799  0.0629 -0.1841  0.1360
25078W        W41212   6.006  10.930  13.136 -0.0935  0.2886  0.1106
25079W        W41213   1.660  13.478   1.765  0.1461 -0.1831 -0.2880
25080W        W41214   2.592  15.378   2.011 -0.0672  0.2918 -0.0868
25081W        W41215  12.220   9.711   0.724  0.0544  0.1891 -0.0845
25082W        W41216   8.655   8.454   1.895 -0.2829  0.1175  0.3202
25083W        W41217  16.931  12.590   2.050 -0.3750 -0.1078 -0.1555
25084W        W41218  11.007  15.262  12.057  0.0617  0.1190 -0.1367
25085W        W41219  14.373  14.122   3.756 -0.4454  0.0392  0.0117
25086W        W41220   1.362   7.553  14.551  0.1798  0.0969 -0.0691
25087W        W41221   4.854  12.567   1.988  0.1528 -0.1194  0.0798
25088W        W41222   3.268  13.660   2.140  0.2701  0.0203 -0.2706
25089W        W41223   5.856  14.780   1.084 -0.2207 -0.4307 -0.1747
25090W        W41224  16.483   2.872   4.470  0.0232 -0.0735 -0.1908
25091W        W41225   3.588   0.940   2.953 -0.0288 -0.0722  0.0619
25092W        W41226   2.797   2.030  11.099  0.0026  0.0557  0.0416
25093W        W41227   3.526   2.737  13.812  0.0760 -0.2317 -0.1853
25094W        W41228  15.246   0.881   0.420 -0.1782  0.0790  0.0534
25095W        W41229  14.726  13.209   4.134  0.2559  0.2018 -0.1858
25096W        W41230  16.648  16.326  11.259  0.0694 -0.1302  0.2196
25097W        W41231   2.989  15.082   2.223 -0.0059 -0.3185  0.0165
25098W        W41232   4.256  10.929  14.672  0.3147  0.2250  0.2399
25099W        W41233   9.776   5.580  11.235  0.0623 -0.1033 -0.0384
25100W        W41234  14.605   8.799   4.085 -0.2182 -0.1138  0.2347
25101W        W41235   0.078  16.736   5.597 -0.0188 -0.2979  0.1237
25102W        W41236  16.505   4.084  14.502  0.0385 -0.3963 -0.0186
25103W        W41237  13.382   2.886   2.161 -0.0414 -0.0498 -0.0932
25104W        W41238  12.003  12.958  13.494  0.2790 -0.1116  0.0713
25105W        W41239  14.516   2.125   2.917 -0.0303  0.0480  0.1804
25106W        W41240  12.283  10.311   0.627 -0.2392  0.1478 -0.0319
25107W        W41241  18.814   1.969   1.484 -0.1353  0.1757  0.2238
25108W        W41242   4.434   8.848   0.136 -0.2134 -0.2176  0.0159
25109W        W41243  18.690   5.151  12.206 -0.2389  0.2758  0.0668
25110W        W41244  17.804   6.029   2.930 -0.3528 -0.0469  0.0354
25111W        W41245  16.195  15.838   0.264 -0.3267  0.4048 -0.0021
25112W        W41246  18.366   3.962  12.361 -0.0173 -0.1408  0.1297
25113W        W41247   2.453  11.688  10.742  0.1177 -0.2067  0.1112
25114W        W41248   0.166   1.278   0.637 -0.0767 -0.1694 -0.0310
25115W        W41249   4.701  18.455   4.822  0.1743 -0.0874 -0.1565
25116W        W41250   2.206   2.901   0.577 -0.1596 -0.0781 -0.0932
25117W        W41251   2.443   9.050  11.081  0.0410  0.3255  0.1068
25118W        W41252  10.117   2.405   0.499 -0.1682  0.2267 -0.1330
25119W        W41253   4.991   4.298   9.505  0.4224  0.2817  0.3170
25120W        W41254  18.438   8.452  13.625  0.0755 -0.1749 -0.0049
25121W        W41255  11.376  15.839   3.534 -0.1659  0.2262  0.1982
25122W        W41256  10.914   1.486   5.078 -0.0231  0.2413  0.4884
25123W        W41257  16.229   6.138   5.329  0.0463 -0.1486 -0.0670
25124W        W41258  17.400  10.360   3.491  0.0981  0.1275  0.1267
25125W        W41259   7.767  10.235   5.764  0.0357  0.0548  0.2032
25126W        W41260  11.242   3.649   2.016 -0.0575  0.1641  0.1573
25127W        W41261   5.917  12.027   0.613 -0.0061  0.0648  0.1046
25128W        W41262   6.235  11.753   0.292  0.2529  0.0761  0.1434
25129W        W41263   4.618   4.746   2.170  0.1752  0.1523 -0.1058
25130W        W41264   7.201  11.231  11.851  0.1178 -0.0187  0.1595
25131W        W41265  16.718  16.614  15.046  0.1271  0.1238 -0.3264
25132W        W41266   1.717  16.359   2.249  0.2017  0.0036 -0.0831
25133W        W41267  14.007  15.822   3.625  0.1977 -0.0893 -0.1990
25134W        W41268  14.908  16.892   3.349  0.0707  0.0888 -0.0479
25135W        W41269  11.170   8.546   4.092  0.1584 -0.4188 -0.0710
25136W        W41270  17.576  17.927   5.619  0.0702 -0.2634 -0.2226
25137W        W41271   6.283   5.612  10.992 -0.1793  0.3228  0.1630
25138W        W41272   0.047  14.382   0.499  0.1397  0.1902 -0.0741
25139W        W41273   0.672  16.198  13.212  0.1003  0.0884 -0.3236
25140W        W41274  11.054  13.037   0.963 -0.1275 -0.0646 -0.0508
25141W        W41275   0.630   4.139   9.542 -0.1819 -0.1398 -0.0758
25142W        W41276   3.453  12.772   0.443  0.0110  0.2921  0.4422
25143W        W41277  18.603  12.879   1.532  0.0583  0.0192  0.0843
25144W        W41278   4.196   1.232   4.507 -0.0873 -0.0830  0.0925
25145W        W41279  17.503  18.516  14.501 -0.1010  0.2095  0.1029
25146W        W41280  15.146  12.675  13.803 -0.1664  0.2946  0.0388
25147W        W41281   6.860   6.969  10.972 -0.2489 -0.1490 -0.2893
25148W        W41282   0.163   7.201  11.151  0.1664 -0.2258 -0.3268
25149W        W41283  10.207  16.096   4.014  0.0005 -0.0304 -0.0981
25150W        W41284   0.040   3.565   4.281  0.0954 -0.0945 -0.0429
25151W        W41285  15.112  16.274  11.469  0.2814  0.1725 -0.1358
25152W        W41286  17.067   8.550   4.650 -0.1060  0.2509  0.0615
25153W        W41287  16.776  15.132   2.256  0.1664  0.4625 -0.0822
25154W        W41288  10.437  16.591  15.189  0.2092  0.0292  0.1211
25155W        W41289   3.040  13.587  10.636 -0.2764 -0.3658  0.3607
25156W        W41290  12.455  14.931   3.666  0.1444  0.0706  0.1549
25157W        W41291   1.320   6.813  10.355 -0.0415 -0.3323  0.1191
25158W        W41292   8.400  14.284   5.624  0.0837 -0.0639  0.1160
25159W        W41293  17.014   6.724   1.991 -0.0780 -0.0800 -0.0364
25160W        W41294  18.112   8.033   2.318  0.1657  0.0034  0.1537
25161W        W41295   0.759   4.434   3.412 -0.1887  0.3576 -0.3513
25162W        W41296   5.044   7.368  13.133  0.3318  0.0137 -0.1308
25163W        W41297  15.106  16.796  10.940  0.1240 -0.0239  0.2098
25164W        W41298   2.560  13.296  12.339 -0.0363 -0.3176 -0.0470
25165W        W41299   0.739   8.585   1.266  0.1703  0.2494  0.3622
25166W        W41300   0.380  14.026  14.029  0.0257 -0.0403 -0.1590
25167W        W41301  14.253  19.033  10.603  0.1380  0.0013 -0.2244
25168W        W41302   6.223   8.993  14.724  0.1849 -0.0187  0.2212
25169W        W41303   1.923  15.711  14.111 -0.2680 -0.0630 -0.1892
25170W        W41304   4.584  17.996  12.135  0.1187  0.0048  0.0003
25171W        W41305  18.263   3.561   3.390 -0.1268 -0.0663 -0.0304
25172W        W41306   7.610   8.338   2.808 -0.0871  0.3083  0.3019
25173W        W41307   5.749   3.371   1.015  0.3636 -0.3413 -0.0260
25174W        W41308   9.868   7.335   9.837  0.2511 -0.0241  0.0416
25175W        W41309   7.609   6.674   4.027  0.1376  0.1675  0.1643
25176W        W41310  11.329  14.714  14.775 -0.2510 -0.0126 -0.0887
25177W        W41311   6.290   6.586  12.950  0.0207  0.0128 -0.0180
25178W        W41312  10.090  16.955  10.939  0.1605 -0.2372  0.0506
25179W        W41313  15.620   9.702   0.199 -0.0039 -0.1441  0.1102
25180W        W41314   0.905  15.538   1.406  0.2024 -0.1938  0.1438
25181W        W41315  17.637   0.359  10.867 -0.4615  0.1448  0.2430
25182W        W41316   1.227  16.010   1.549 -0.1764 -0.0344 -0.2289
25183W        W41317  13.068   6.496   3.758  0.0053 -0.2495 -0.2380
25184W        W41318  14.188   6.632  14.631 -0.4160 -0.1925 -0.0410
25185W        W41319   8.628   0.064   0.071  0.2361  0.0313  0.1625
25186W        W41320   7.740   9.139   4.658  0.1699  0.5483 -0.0827
25187W        W41321  15.832   8.500  10.975 -0.1127 -0.3113 -0.1243
25188W        W41322   1.545   9.313   4.093 -0.3051 -0.0778  0.3042
25189W        W41323  18.013  10.423  12.747 -0.5343  0.1154 -0.0003
25190W        W41324  10.740  11.735   9.648  0.2637 -0.0576  0.1668
25191W        W41325   8.126   9.443   1.978  0.1298  0.1192  0.3642
25192W        W41326   4.426  12.368  12.982  0.2023 -0.1066  0.1288
25193W        W41327  16.367   3.889  12.301 -0.0192  0.1114 -0.1721
25194W        W41328  16.566  10.712   0.148  0.0633 -0.1188 -0.0367
25195W        W41329  18.255   9.403  14.171 -0.1138 -0.5754 -0.0115
25196W        W41330   8.769  15.268  15.106  0.1594  0.1298 -0.2340
25197W        W41331  11.736   1.912  13.485  0.0882 -0.2515  0.1234
25198W        W41332  12.058   5.878  14.165 -0.0612  0.2662  0.0333
25199W        W41333  18.976  12.954   1.143 -0.0969 -0.0764  0.1849
25200W        W41334  13.997  13.104  13.772 -0.0691 -0.1504 -0.4088
25201W        W41335   3.909  11.715  13.282  0.1311  0.1275  0.2486
25202W        W41336  12.740  14.056  10.574  0.0360  0.2045  0.0726
25203W        W41337  12.094  17.979   1.492  0.0242 -0.2118  0.1481
25204W        W41338   6.751   1.246  12.771  0.0367  0.1966 -0.3423
25205W        W41339   6.114  16.206  11.128 -0.3039  0.0876  0.4152
25206W        W41340   4.167  11.378   1.368  0.1490  0.4225  0.1894
25207W        W41341   6.705   2.340   1.290  0.1638 -0.0112  0.1334
25208W        W41342   9.232  18.013  13.022 -0.1581 -0.1191 -0.1616
25209W        W41343  16.193  14.347   2.134  0.0888  0.2200  0.3756
25210W        W41344   9.279  18.714   4.514  0.0386 -0.1380  0.0692
25211W        W41345  11.047   5.572  11.098  0.1274  0.1046  0.1121
25212W        W41346  11.268   2.262   3.231  0.0936 -0.2074  0.1322
25213W        W41347   7.611   4.399  10.411  0.1266  0.2026 -0.1497
25214W        W41348   4.400  17.874   2.231  0.2298  0.1398  0.1792
25215W        W41349   5.382   5.711   1.040 -0.1951  0.3962 -0.1319
25216W        W41350   1.699  18.714   0.825 -0.3129  0.4113  0.0530
25217W        W41351   4.744   6.310   0.366 -0.2423 -0.1552  0.3221
25218W        W41352   2.124  15.393   0.248 -0.0026  0.1712  0.0687
25219W        W41353   7.187  17.846  12.813  0.3435  0.0021 -0.2558
25220W        W41354   3.427   3.878   3.144  0.2435  0.1635  0.2760
25221W        W41355   6.993  18.020  10.548  0.4081 -0.1322  0.3480
25222W        W41356  13.688   3.810   0.888 -0.0247 -0.0482 -0.0408
25223W        W41357  18.024  17.660   0.368  0.4283  0.0855 -0.0430
25224W        W41358  14.611  11.317   9.441  0.1735  0.2850 -0.0140
25225W        W41359  18.055   1.610  14.607 -0.0385 -0.5261 -0.2235
25226W        W41360   9.980   5.457   0.563 -0.2192  0.0427 -0.1734
25227W        W41361  10.978   6.658   5.203  0.1424 -0.2091 -0.1698
25228W        W41362  11.140  14.147  13.992  0.1453 -0.0247  0.0445
25229W        W41363   3.063   9.795  14.947  0.5930 -0.0740  0.1455
25230W        W41364  11.185  13.945  11.218  0.1348  0.1574 -0.0648
25231W        W41365  14.012   8.002  12.227 -0.1175 -0.1774 -0.1018
25232W        W41366  12.423  10.088   0.160 -0.1901 -0.1824 -0.1480
25233W        W41367   5.462  12.376   2.131  0.0446 -0.2799 -0.0857
25234W        W41368  14.201   2.721   1.480  0.2473  0.2827 -0.1431
25235W        W41369  12.349   3.841  13.961 -0.0288 -0.2053  0.0671
25236W        W41370   9.987   2.159   1.807 -0.0828  0.2130  0.5778
25237W        W41371   4.549  19.096   1.399  0.0481 -0.2308  0.2683
25238W        W41372  14.148   6.304   1.939  0.3744 -0.0412 -0.0173
25239W        W41373  16.431   1.963   1.718 -0.1949 -0.0375 -0.1712
25240W        W41374  12.068  18.375   4.149  0.1230 -0.2168 -0.0780
25241W        W41375  17.315   2.278   3.362  0.2288 -0.0159 -0.6853
25242W        W41376  17.582   0.165  10.440 -0.6409 -0.0518 -0.0996
25243W        W41377  18.176   0.537  11.085 -0.0006  0.0303  0.1985
25244W        W41378   4.606   1.487  10.841 -0.0928  0.3117  0.0818
25245W        W41379  16.387  10.828  11.954  0.0746  0.1225 -0.1797
25246W        W41380   2.613  10.456  14.804  0.2871  0.1830  0.2800
25247W        W41381   5.121  13.758   3.851 -0.0877 -0.3259  0.1463
25248W        W41382  17.493  13.742  10.821  0.0708 -0.2861 -0.1313
25249W        W41383   9.415   6.038   3.372 -0.3362 -0.0656 -0.1248
25250W        W41384  16.176   7.204   2.961 -0.1107 -0.2398  0.2291
25251W        W41385   0.226  14.640  14.021 -0.1503  0.2165  0.0589
25252W        W41386   2.706  16.832  10.678  0.0271 -0.4286  0.1417
25253W        W41387   6.682  16.040   5.899  0.1108  0.0442 -0.1034
25254W        W41388  13.953  15.645  14.737  0.2966 -0.0850 -0.0201
25255W        W41389  13.522  11.674   2.962  0.0934  0.1684 -0.2459
25256W        W41390  17.441  15.623   2.301  0.2691  0.1528  0.0277
25257W        W41391  18.598   6.284   1.949 -0.1063 -0.1528  0.1003
25258W        W41392  14.240  10.745   3.830  0.0461  0.1727 -0.0559
25259W        W41393   0.668  17.518  12.227  0.3042  0.2672 -0.3969
25260W        W41394   3.827  14.295   0.707 -0.0742  0.0773  0.0183
25261W        W41395  12.432   3.482  14.525  0.0631 -0.1683 -0.2842
25262W        W41396  15.443  12.310  13.657 -0.3555  0.1694 -0.2018
25263W        W41397  11.799  12.289   4.213  0.2001 -0.0070 -0.0327
25264W        W41398  13.748  11.719  10.393 -0.2049 -0.0219  0.1860
25265W        W41399   8.167   2.137  12.653 -0.0145 -0.0694  0.0988
25266W        W41400  10.398   8.405  12.208  0.2139 -0.1053  0.3056
25267W        W41401  14.660   9.647   1.395 -0.1869  0.0697 -0.1378
25268W        W41402   3.798  14.833   4.162 -0.1109 -0.0071 -0.1569
25269W        W41403   8.846   9.556  11.126  0.0387 -0.1021 -0.0959
25270W        W41404   7.929   1.911   3.962 -0.1224 -0.2166  0.0290
25271W        W41405   6.592   2.773  13.072 -0.0955  0.0412 -0.1811
25272W        W41406  17.725  14.616   4.767  0.0606  0.3736 -0.1628
25273W        W41407   1.352   1.587  14.090  0.0993 -0.2406 -0.0365
25274W        W41408   2.656   3.309  14.144 -0.2990 -0.4607  0.2242
25275W        W41409   4.977  15.512   0.153  0.0295 -0.0428 -0.3926
25276W        W41410  10.011  15.618   4.747 -0.3485  0.2421  0.0692
25277W        W41411  12.732  14.734   4.331 -0.0617  0.2372 -0.0813
25278W        W41412  15.710   4.144  13.197 -0.1492  0.0071 -0.1336
25279W        W41413   9.130   0.162  13.097  0.0914 -0.1178 -0.2152
25280W        W41414   1.025  13.896  13.869 -0.0962  0.2135 -0.0643
25281W        W41415   0.957  15.072   3.253  0.3344  0.3026 -0.0837
25282W        W41416  15.756   6.758  13.676  0.0039 -0.4456 -0.0628
25283W        W41417  15.016  12.519  10.458  0.1947  0.2877 -0.0739
25284W        W41418  14.394  17.818  12.061 -0.1318  0.2122 -0.0573
25285W        W41419   0.336   9.350  13.210 -0.0589  0.0709  0.1006
25286W        W41420   1.806   9.518   3.133 -0.0982 -0.0601  0.2887
25287W        W41421   4.533   6.496   3.014  0.0677 -0.1449 -0.2568
25288W        W41422   3.230   9.261  10.545 -0.0533  0.2734 -0.1409
25289W        W41423  14.564   5.924   1.831  0.0690 -0.0330  0.1314
25290W        W41424  14.635  13.240   3.569  0.1817  0.1958 -0.0654
25291W        W41425  14.201  17.611   4.123 -0.1428  0.1750  0.0832
25292W        W41426   7.212   9.030   3.232  0.1448 -0.1373  0.0223
25293W        W41427   3.084   4.838  12.994 -0.2122  0.3204 -0.1227
25294W        W41428  15.622  13.107  15.174  0.2652 -0.2647 -0.2094
25295W        W41429   9.454  10.580   1.886 -0.0105  0.2736  0.1457
25296W        W41430   4.301  18.639  11.562  0.1258 -0.0500  0.1855
25297W        W41431   8.331  11.049   2.294  0.1999  0.1335  0.3207
25298W        W41432   9.754  13.749   2.995  0.1591  0.1800  0.2182
25299W        W41433   4.643   5.991  11.515  0.1780 -0.0607  0.0474
25300W        W41434  16.558   0.392   1.457  0.0740  0.1290 -0.0316
25301W        W41435   5.156   4.477   4.236  0.1868  0.5830 -0.1639
25302W        W41436  13.107  14.408  13.308 -0.1614  0.0695 -0.1034
25303W        W41437   2.684   5.627   5.242 -0.0695  0.1134  0.0309
25304W        W41438  16.582   7.979   3.949  0.2516  0.1080  0.2622
25305W        W41439  15.609  10.785  13.115  0.0820 -0.0145  0.0682
25306W        W41440  11.020  17.452   4.887 -0.2337 -0.1247  0.2930
25307W        W41441  11.725  14.599  13.853 -0.3667 -0.0277 -0.1640
25308W        W41442  16.224  17.710   2.035  0.0974  0.2303 -0.1565
25309W        W41443   9.007  12.931   0.293  0.0906  0.0298  0.1003
25310W        W41444   7.481   0.559   2.503 -0.0056 -0.4168 -0.0405
25311W        W41445   3.619  16.714  10.534  0.0173 -0.0620 -0.0153
25312W        W41446  14.570  11.563   4.244  0.0660  0.0027 -0.1522
25313W        W41447   1.425   4.435  10.320 -0.1038  0.1680 -0.1895
25314W        W41448  13.277   6.064  14.718 -0.1570  0.0766  0.5617
25315W        W41449  14.243  18.116   3.219 -0.4414  0.1865 -0.1310
25316W        W41450  10.615  12.631  11.594  0.0833 -0.0727  0.1651
25317W        W41451  12.696   5.179  13.157  0.0476  0.1070  0.1156
25318W        W41452   8.958   0.534  14.239  0.2633  0.0241  0.1831
25319W        W41453  18.234  17.389  14.210 -0.0373  0.1267 -0.6218
25320W        W41454  13.274  18.425   5.120  0.2242 -0.1116  0.0578
25321W        W41455  15.717   6.227  11.244 -0.3079 -0.1585 -0.2964
25322W        W41456   3.290   3.924   4.195 -0.0541 -0.0259  0.0867
25323W        W41457   8.184   1.942  13.130 -0.1114 -0.1123 -0.0216
25324W        W41458   8.611   7.476  11.748 -0.3099  0.1077 -0.2120
25325W        W41459  16.332  18.968  14.609 -0.3576 -0.0651 -0.0964
25326W        W41460   9.540  13.536   1.013 -0.0836  0.2224  0.2457
25327W        W41461   4.973   6.997  14.295  0.4233 -0.5027 -0.1890
25328W        W41462   0.674   6.596  14.328 -0.1232 -0.1681 -0.2713
25329W        W41463  11.665  16.508   5.510 -0.1329 -0.2831  0.0485
25330W        W41464  13.428  16.851  11.637  0.3466 -0.2554  0.0875
25331W        W41465  11.787  16.009   1.763 -0.0217  0.2321 -0.2968
25332W        W41466   2.881  14.368   0.941 -0.0282  0.2043 -0.3254
25333W        W41467  11.055  10.009  13.411 -0.2009  0.0563 -0.0353
25334W        W41468   0.502  15.723   0.263  0.1792  0.1527 -0.2559
25335W        W41469   2.837  13.126   2.952  0.2623  0.1157 -0.2792
25336W        W41470   3.307   9.607   4.197 -0.2650 -0.1536  0.3106
25337W        W41471   8.546  15.508   3.112  0.2434  0.0201  0.2842
25338W        W41472  13.596   0.344   0.006 -0.0642  0.0118 -0.0402
25339W        W41473   4.196  14.025   2.306 -0.0845 -0.0448  0.1400
25340W        W41474  11.458   2.795  13.228  0.2707 -0.2303  0.1400
25341W        W41475   6.391   8.906   2.254  0.2165  0.0972  0.1797
25342W        W41476  13.411   6.275   3.458 -0.0224  0.0802 -0.0109
25343W        W41477  18.142   7.265  11.805 -0.1000  0.0057  0.1085
25344W        W41478  15.055   2.455   4.620 -0.0747 -0.1708 -0.1874
25345W        W41479  16.512  17.095  13.627 -0.1202  0.0813  0.3043
25346W        W41480  16.633   2.652  13.742  0.0863  0.3257  0.1238
25347W        W41481  10.033  15.380   0.543  0.2294  0.0816  0.0562
25348W        W41482  13.706   2.897   3.901 -0.2084  0.0738 -0.3594
25349W        W41483   2.151   3.140  13.947  0.0438 -0.0379 -0.1868
25350W        W41484   4.436  15.845  11.081  0.0160 -0.3265 -0.0442
25351W        W41485  14.414   0.425   3.075  0.1331 -0.0460 -0.1190
25352W        W41486   2.680  19.137   5.605  0.2839 -0.1600  0.1079
25353W        W41487   4.742   2.497  10.901 -0.1462 -0.2604  0.0253
25354W        W41488  17.283  17.144  14.429 -0.1673 -0.0128 -0.1326
25355W        W41489   7.100  18.555   3.487  0.1712  0.2085 -0.3026
25356W        W41490   0.325  16.927   3.345 -0.1428 -0.4175  0.1428
25357W        W41491   8.271  17.006  10.813  0.0136  0.0420  0.3866
25358W        W41492   5.270   9.132   3.671  0.0146  0.2056 -0.0065
25359W        W41493   5.077  17.850   2.977 -0.3358 -0.1315  0.1182
25360W        W41494   6.109  17.773   3.159 -0.2268 -0.1736  0.0301
25361W        W41495   3.505  14.819  10.920 -0.1961 -0.1433  0.0217
25362W        W41496   7.637  17.325  11.779 -0.4032  0.3077 -0.1068
25363W        W41497  17.541   7.098  15.151 -0.0385 -0.0927  0.0118
25364W        W41498   0.898   6.706   0.573  0.1827  0.1611 -0.0847
25365W        W41499  17.471  13.929  14.850 -0.0617  0.0876  0.2646
25366W        W41500  14.937   7.563   4.106 -0.0140 -0.0161  0.0950
25367W        W41501  16.748  13.726   4.263 -0.0692  0.1332 -0.0596
25368W        W41502  17.602  16.453  14.143 -0.0322 -0.2319 -0.1214
25369W        W41503   7.010   6.260  12.767  0.2129 -0.0589  0.0634
25370W        W41504  17.453   9.477   2.032  0.2947 -0.2883  0.0288
25371W        W41505  14.767  18.909  14.586  0.2663 -0.1028  0.2363
25372W        W41506   4.236  13.065  11.162 -0.3329  0.0653 -0.0480
25373W        W41507   2.330   0.842   4.601  0.0905  0.0139  0.1934
25374W        W41508   7.126   6.209   0.111  0.2099  0.2026  0.0161
25375W        W41509   2.180  17.262   2.479  0.1106 -0.0314 -0.1156
25376W        W41510  16.868   4.527   0.089 -0.3117  0.0262 -0.0822
25377W        W41511  19.073  12.993   1.666 -0.0079  0.2066 -0.3305
25378W        W41512   0.918   2.322   0.534 -0.0645  0.1587  0.0403
25379W        W41513  14.879  18.586  11.054 -0.1773 -0.2111  0.1331
25380W        W41514   9.329  13.460   2.817  0.3264 -0.2866 -0.0052
25381W        W41515  14.637  18.965  12.741 -0.3171  0.0933 -0.0408
25382W        W41516   1.196   9.387  12.654 -0.3048  0.1754  0.1280
25383W        W41517  14.688   6.240   0.630 -0.0435 -0.5046 -0.2377
25384W        W41518   1.354   9.049   9.755 -0.1371 -0.0975  0.0931
25385W        W41519   6.613   3.056   5.658 -0.0524 -0.1343 -0.0808
25386W        W41520  14.545  13.255  13.213 -0.0067 -0.1622 -0.0547
25387W        W41521   6.614   1.182   2.744 -0.4293 -0.4024  0.1182
25388W        W41522  15.537   4.192   5.131  0.1333  0.1057  0.1956
25389W        W41523   1.629   5.843   5.170  0.2311  0.1318 -0.1175
25390W        W41524   3.833   8.470   0.361 -0.0277 -0.2373  0.0816
25391W        W41525  10.106   7.785   4.883 -0.5035 -0.0848 -0.0350
25392W        W41526   1.699   4.906  11.620 -0.1080 -0.0423  0.2534
25393W        W41527   1.434  17.858  13.048 -0.3381 -0.2367 -0.0923
25394W        W41528  14.705   5.784  13.817 -0.2805 -0.0055 -0.2797
25395W        W41529  12.532  17.745   1.511  0.0671  0.1176  0.5085
25396W        W41530   2.841   2.172  12.402  0.0449  0.0083  0.0020
25397W        W41531   4.083  19.015  13.005 -0.1849 -0.0155 -0.4756
25398W        W41532  11.718   8.687  15.163  0.3894 -0.0671 -0.0847
25399W        W41533  17.123  10.702   0.619 -0.0489 -0.1470  0.2092
25400W        W41534  10.250   3.082   4.935  0.5480 -0.1817 -0.1358
25401W        W41535   7.687   6.536   2.994  0.4052 -0.1355 -0.1018
25402W        W41536   0.110  17.775  13.479  0.1611 -0.1111 -0.0531
25403W        W41537  13.195  12.602   0.221 -0.0876  0.1171 -0.0764
25404W        W41538  16.957   8.969  12.622 -0.0730 -0.1013  0.3584
25405W        W41539   9.112   5.115  11.170 -0.0981  0.1168 -0.2184
25406W        W41540   1.307  15.100  14.177 -0.0289 -0.3090 -0.3578
25407W        W41541   1.394  11.163   0.133  0.0722 -0.1673  0.4112
25408W        W41542   4.570  14.924   0.677 -0.0014 -0.1712  0.2509
25409W        W41543  15.966  17.519   0.858  0.1878  0.0400  0.1449
25410W        W41544  15.210  10.455  10.706 -0.0919 -0.0360  0.3023
25411W        W41545   7.471   6.165   3.282  0.0375  0.0858 -0.0335
25412W        W41546   7.063   0.232  10.916  0.1545  0.1206  0.2239
25413W        W41547   6.124   8.807   3.510 -0.2525  0.0451 -0.0099
25414W        W41548  16.715   8.470   3.797  0.1414  0.0334  0.0373
25415W        W41549   5.263   3.874   4.189 -0.2018  0.0211 -0.3448
25416W        W41550  10.928   9.517   2.727  0.0130 -0.3294 -0.1517
25417W        W41551   4.066   0.332   0.853  0.2031 -0.4687  0.1313
25418W        W41552  13.060  17.111   4.393 -0.0395  0.1587 -0.0756
25419W        W41553  17.967  11.468   4.143 -0.2693 -0.2436 -0.1621
25420W        W41554  11.350   7.609  11.928 -0.2067  0.1988  0.3051
25421W        W41555   0.165  17.066  13.151  0.2333  0.1286  0.2237
25422W        W41556  13.408   8.615  10.724  0.1145 -0.2045 -0.2133
25423W        W41557   6.349  16.724   5.023 -0.0177 -0.3199  0.2910
25424W        W41558   4.849   9.439   1.487 -0.0622 -0.0054  0.1966
25425W        W41559  15.382  14.386   5.104  0.2752 -0.2385  0.1051
25426W        W41560   5.608  13.690   4.464  0.0022  0.1204  0.0222
25427W        W41561   8.737   5.230   1.680  0.0202  0.1486 -0.0915
25428W        W41562   8.094   7.432  14.393  0.4450  0.0312  0.0090
25429W        W41563   9.887   6.433  14.073 -0.2956 -0.0514 -0.2410
25430W        W41564  13.267   8.436  11.612  0.0131  0.1963 -0.1392
25431W        W41565   2.577  13.008   4.926 -0.0875  0.0459 -0.0655
25432W        W41566   2.455  14.519  13.759 -0.0802  0.0532 -0.2216
25433W        W41567   6.728  13.675   2.463 -0.0143  0.0514  0.1168
25434W        W41568   1.871  10.044   1.420 -0.0100 -0.1845 -0.4487
25435W        W41569   7.134  13.094  11.705  0.0043  0.2438 -0.2224
25436W        W41570   4.472   6.309  10.690  0.1373 -0.0461  0.3166
25437W        W41571   8.575   1.193  10.787 -0.0176 -0.2511  0.4646
25438W        W41572  13.020   7.686   2.087 -0.1422 -0.1202  0.1236
25439W        W41573  10.220  17.868   3.344  0.3309  0.0517 -0.1324
25440W        W41574   1.002   3.489   4.359  0.0813  0.0109 -0.0854
25441W        W41575   0.888   1.551   1.593 -0.1839  0.0834 -0.0973
25442W        W41576  17.874  13.062  14.072 -0.0827  0.1040  0.2089
25443W        W41577   2.358  14.064   2.716 -0.2156  0.2697 -0.2454
25444W        W41578   8.819   8.369   4.779  0.1407  0.0095 -0.1595
25445W        W41579   4.112  18.962   0.886  0.0280  0.1824  0.2272
25446W        W41580   0.380   6.358   1.690 -0.0403 -0.1884  0.1303
25447W        W41581   1.815  11.389   2.723  0.3439 -0.1877 -0.0744
25448W        W41582   4.910   1.603  13.490  0.0179  0.2008  0.4617
25449W        W41583   2.546  19.145   5.056 -0.0216 -0.2815 -0.0050
25450W        W41584   2.798  11.575  14.777 -0.1817 -0.1991  0.0610
25451W        W41585   5.157  17.679  10.777 -0.2173 -0.0408 -0.0754
25452W        W41586  10.580  16.467   0.911  0.0351 -0.0702 -0.2303
25453W        W41587   2.783  15.903   5.108  0.0607 -0.0777 -0.1442
25454W        W41588   3.023   8.040  14.889  0.2953 -0.1302  0.0854
25455W        W41589  14.042  13.115   1.239  0.2846  0.0759 -0.0525
25456W        W41590  12.704   4.180   5.840 -0.0604  0.0089  0.1940
25457W        W41591  10.378  11.737   6.190  0.1569 -0.1336 -0.2595
25458W        W41592   6.505  17.311   0.424 -0.3388 -0.1136 -0.2117
25459W        W41593   0.916   3.368  13.544 -0.0767 -0.1636 -0.3121
25460W        W41594  13.534   1.737   0.678 -0.0751  0.2198  0.0258
25461W        W41595   5.637   7.316  13.828 -0.1977  0.0450 -0.2867
25462W        W41596  17.877  14.109   4.883 -0.2969  0.3594  0.2902
25463W        W41597   0.773  12.576   2.077  0.2208 -0.4283 -0.1363
25464W        W41598   0.168  13.145  12.256 -0.1287 -0.0691  0.4070
25465W        W41599   3.477  15.906   5.649  0.0501  0.0079  0.0794
25466W        W41600   4.748   3.496   3.621 -0.0288 -0.0165 -0.5629
25467W        W41601  10.744   9.572   0.559  0.0846 -0.2162  0.2401
25468W        W41602  13.077   0.513  12.088 -0.1878  0.0583 -0.1048
25469W        W41603   9.721  15.538   3.258  0.2315 -0.0740 -0.1725
25470W        W41604  15.562  14.153  10.283  0.0142 -0.2754 -0.2715
25471W        W41605   5.534  16.953   3.301  0.0846  0.1345  0.1005
25472W        W41606  11.018   6.808   3.810 -0.0661  0.2981  0.4930
25473W        W41607   4.901  14.571   2.182 -0.2042 -0.0160 -0.0814
25474W        W41608   5.965  13.887   3.594  0.0152 -0.0427  0.2269
25475W        W41609   8.806   4.581  12.483  0.0310  0.1269 -0.2788
25476W        W41610  16.402   8.190   3.557  0.2256 -0.1158  0.3440
25477W        W41611  11.803   9.561  11.399 -0.1213 -0.5181  0.0002
25478W        W41612   9.189   1.611  14.034 -0.1160 -0.0990  0.2323
25479W        W41613  11.153  10.815   2.368 -0.1123 -0.1784  0.2756
25480W        W41614  13.233   8.176  10.487 -0.3264 -0.1267 -0.0232
25481W        W41615  18.142  15.177  13.795  0.0149  0.2114 -0.0875
25482W        W41616  15.359  14.018  11.627  0.2360  0.0864 -0.3495
25483W        W41617  13.359  17.435  13.900  0.2152 -0.0092  0.0963
25484W        W41618   8.113  12.441   1.201 -0.0135  0.2291  0.0809
25485W        W41619   2.543   8.462   0.319  0.0765 -0.0580  0.2663
25486W        W41620  18.558  10.450   0.981  0.0909  0.0288 -0.0639
25487W        W41621  15.978   4.585   4.303 -0.0081  0.0158 -0.0853
25488W        W41622   6.432   5.926   0.511 -0.1371 -0.0143  0.1678
25489W        W41623  13.483  10.334   1.312  0.3325 -0.6694 -0.2824
25490W        W41624   5.621   8.651   5.242 -0.2804  0.3312 -0.3195
25491W        W41625  18.710  14.256   0.398  0.0491 -0.1674  0.1756
25492W        W41626  18.876  11.494   1.869  0.0143  0.5447 -0.0669
25493W        W41627   5.817   3.651   2.573 -0.0463 -0.0513 -0.2574
25494W        W41628  13.319  12.680   1.182 -0.2027  0.3001 -0.2752
25495W        W41629   9.681  13.431  10.273  0.1313 -0.1430  0.1006
25496W        W41630   1.916  15.917  14.578  0.0618  0.0227  0.0398
25497W        W41631   8.924   4.563  11.067 -0.1534  0.0498  0.1509
25498W        W41632   8.620  17.671  11.373 -0.0623 -0.1863  0.0028
25499W        W41633  12.746   4.738   2.284  0.0070 -0.1142 -0.2286
25500W        W41634   2.844   8.385  13.391  0.0874  0.1950 -0.4696
25501W        W41635  16.990   9.650   2.695  0.3108 -0.1023 -0.0911
25502W        W41636  16.060   6.411   0.987 -0.4082  0.0686  0.2459
25503W        W41637   3.581   0.327  13.556  0.0015 -0.2740 -0.1610
25504W        W41638  10.955   8.232  12.317  0.1977  0.1121  0.1561
25505W        W41639   5.144  15.853  13.721  0.2051  0.0376 -0.0656
25506W        W41640  17.583   3.533  11.246 -0.0407  0.0095 -0.0822
25507W        W41641  17.071   5.582   9.566  0.2571  0.0100 -0.1090
25508W        W41642   8.739   6.718   0.324  0.0851 -0.0097 -0.0842
25509W        W41643   7.005  15.457  12.996  0.4636 -0.0766 -0.2758
25510W        W41644   0.556   1.369   0.306 -0.1166  0.1260  0.0845
25511W        W41645  17.660   4.499   3.971 -0.1482 -0.2618  0.2684
25512W        W41646  19.101   1.829   2.784  0.0043  0.1618  0.0648
25513W        W41647  13.487   3.694   1.706 -0.2638  0.1559  0.3026
25514W        W41648  16.343  13.513  13.839 -0.2869  0.0166  0.2634
25515W        W41649  14.900   4.337  13.690  0.1341  0.0903 -0.1447
25516W        W41650   2.249   2.322   3.639 -0.1363 -0.0719 -0.3743
25517W        W41651  12.503   7.614   4.344  0.0881  0.0599 -0.1107
25518W        W41652  11.893   0.183  10.673 -0.0717 -0.3860  0.0805
25519W        W41653  13.342   1.611  14.697  0.0995  0.1864  0.1953
25520W        W41654  17.884  13.619   3.263  0.3268  0.1282 -0.1392
25521W        W41655   0.444  11.932  14.271 -0.1045 -0.0199  0.3757
25522W        W41656   2.610  14.389  12.206  0.0994  0.1714 -0.1278
25523W        W41657  11.542   4.323   1.411 -0.1629 -0.3783  0.1306
25524W        W41658   1.392   6.896   0.601 -0.1969 -0.2731  0.1635
25525W        W41659   4.655   6.807  11.788  0.2484  0.2001 -0.2942
25526W        W41660  11.635   6.670  12.590 -0.0139  0.2402 -0.1512
25527W        W41661  11.372   7.140  11.131 -0.1645  0.2377 -0.1006
25528W        W41662   4.018  11.920   3.556 -0.2835  0.1503  0.3049
25529W        W41663  17.982  10.274  13.760 -0.0063  0.1517 -0.0019
25530W        W41664  13.987  18.653  15.143 -0.1336 -0.1086  0.0591
25531W        W41665   1.678   4.786  12.462 -0.1993  0.0986  0.3827
25532W        W41666  12.203   0.519   3.627 -0.1485 -0.1453  0.0814
25533W        W41667  11.901  18.159   2.048  0.0140  0.0350  0.0298
25534W        W41668   8.757  16.769  11.799 -0.0165  0.0143  0.1510
25535W        W41669   7.192   0.314   2.065 -0.3063  0.0809  0.2517
25536W        W41670  17.354  19.133   0.271 -0.2693  0.0362  0.5005
25537W        W41671   8.804  12.662   4.404  0.4364 -0.1743  0.0612
25538W        W41672  16.582   0.017   3.627  0.0739 -0.2859  0.1023
25539W        W41673  14.492  15.345   3.770 -0.3936  0.2033 -0.1180
25540W        W41674  16.336   2.428  12.488 -0.0713 -0.0650 -0.0120
25541W        W41675  16.720   2.866   0.126  0.0214  0.2282 -0.1811
25542W        W41676   7.217   3.248  11.245  0.2484  0.0556 -0.1921
25543W        W41677  11.138  12.745   2.813 -0.0803  0.1911  0.1022
25544W        W41678   5.056   1.655  14.162  0.0325  0.1175 -0.2963
25545W        W41679   2.409   9.721  15.145  0.0790 -0.2979  0.2918
25546W        W41680  18.323   4.932   5.046 -0.1761  0.0177 -0.1007
25547W        W41681  10.800   4.811   0.624  0.1007 -0.0852  0.2603
25548W        W41682   2.779   9.400  14.871  0.1048  0.4595 -0.0806
25549W        W41683   5.565   7.844  10.738  0.1435 -0.1051 -0.1784
25550W        W41684   3.598   1.886  13.937 -0.2012  0.0740  0.0502
25551W        W41685   2.820  18.306  12.804  0.2351 -0.0047  0.2210
25552W        W41686  17.013   3.156   0.498  0.1031  0.1712 -0.2661
25553W        W41687   1.404   2.664  10.740  0.0714 -0.1191  0.2188
25554W        W41688  11.427   1.701   3.083 -0.2342  0.2291 -0.0639
25555W        W41689   9.891  17.263   2.344  0.0964  0.0590  0.0016
25556W        W41690   9.524   9.362   0.107 -0.0988 -0.3061  0.0807
25557W        W41691   0.022   6.300  13.500 -0.1735  0.1482  0.1857
25558W        W41692   6.160  14.857   4.438 -0.2693 -0.1730  0.0997
25559W        W41693   1.544  13.941   3.937 -0.2288 -0.2839  0.0639
25560W        W41694  15.519   0.661   0.860  0.1857 -0.2456  0.1684
25561W        W41695   0.045   8.154  14.145  0.0084 -0.0146 -0.4398
25562W        W41696  12.871  13.965  13.140 -0.1595  0.0731 -0.1470
25563W        W41697   4.356   4.838   4.094 -0.1735 -0.1370 -0.1914
25564W        W41698   2.954   0.828   3.637  0.2060 -0.1131 -0.2117
25565W        W41699   1.554  18.005   1.369 -0.0878  0.2398 -0.0617
25566W        W41700   1.065   1.586  12.719 -0.3694  0.1694  0.0955
25567W        W41701   6.856   0.696   0.899 -0.1266 -0.1748  0.1749
25568W        W41702  10.582  10.038  12.989 -0.2937  0.0670 -0.0443
25569W        W41703   9.835  12.597   2.396  0.1757  0.0071 -0.1261
25570W        W41704   7.854  11.417   0.336 -0.1479 -0.0273 -0.0333
25571W        W41705   7.918  14.907  14.600 -0.0083  0.1134 -0.1064
25572W        W41706   9.843   6.467   4.572 -0.3252 -0.2610  0.1610
25573W        W41707  13.251   2.574  12.528 -0.3234 -0.1538  0.2591
25574W        W41708   4.189   9.449  13.067  0.2505  0.1433 -0.1578
25575W        W41709  17.721   8.229   4.726  0.1499 -0.0308  0.3687
25576W        W41710  12.711   2.357  14.317  0.1272  0.3404 -0.1615
25577W        W41711   1.114  12.157  12.081  0.1161 -0.5684  0.1744
25578W        W41712  12.787   8.914   2.560  0.1942 -0.2838  0.1160
25579W        W41713  14.435  18.555   3.138 -0.2787  0.0036  0.1111
25580W        W41714   8.119   4.249   2.333  0.2177  0.0059 -0.1274
25581W        W41715   0.233  12.458  12.503 -0.0391 -0.3990  0.0516
25582W        W41716   9.360   5.053   4.797  0.1697  0.1277 -0.5015
25583W        W41717   0.833  13.389  12.787 -0.0521  0.0044 -0.0593
25584W        W41718  12.794   4.744   1.006 -0.1355 -0.0863  0.0284
25585W        W41719   5.371   6.573   2.600  0.5541  0.3182  0.3654
25586W        W41720   1.902  10.293  13.743 -0.0489 -0.0028 -0.0041
25587W        W41721   5.454   3.265  12.509  0.1715  0.1691  0.0458
25588W        W41722   4.364   5.093  15.126 -0.0353  0.3361  0.1450
25589W        W41723  18.314  16.019   3.195  0.0007  0.3484  0.1324
25590W        W41724  10.672   6.580   0.009  0.3090 -0.0687 -0.1784
25591W        W41725  12.451   2.136   3.792  0.3448 -0.2546 -0.1762
25592W        W41726   3.004   9.098  11.095 -0.1072  0.0705  0.1615
25593W        W41727  11.860  10.667   2.543 -0.1117 -0.1199 -0.1033
25594W        W41728   2.981   2.301  10.431  0.0769  0.0122  0.1247
25595W        W41729   0.858   9.141   9.521 -0.1487  0.2485 -0.1670
25596W        W41730  13.289   6.598  14.739  0.1907  0.0696  0.1259
25597W        W41731  12.079  12.277  12.957 -0.0226 -0.0372 -0.0263
25598W        W41732  14.718   4.157   4.510  0.0936  0.1563 -0.1567
25599W        W41733  14.935  10.860  14.939 -0.2146  0.1183 -0.0270
25600W        W41734  14.282   4.948   3.612 -0.3042  0.3180 -0.1841
25601W        W41735  18.330  14.321   5.020  0.1899 -0.0075  0.0894
25602W        W41736   2.560   5.663  10.926  0.3436  0.2254 -0.0214
25603W        W41737  11.172   2.361  10.814 -0.0697  0.1354  0.1133
25604W        W41738  11.844  12.504  10.657  0.1260 -0.1399 -0.2228
25605W        W41739  11.740   1.312   0.807  0.2970  0.0484  0.3251
25606W        W41740   4.652   1.087   4.289 -0.0518  0.0570 -0.3476
25607W        W41741   0.182   4.468   2.928  0.0460  0.2613  0.3592
25608W        W41742   4.914   8.267   1.545  0.2469  0.3143 -0.3080
25609W        W41743   4.392  10.795  11.519  0.0039  0.3166  0.2152
25610W        W41744  13.276   9.741   3.234  0.1798  0.3350 -0.0150
25611W        W41745  18.459  15.055   3.611  0.0731  0.0128  0.0982
25612W        W41746   6.521   1.289  11.331  0.0323  0.2835 -0.1390
25613W        W41747   7.238   6.949  12.146  0.0110 -0.0557 -0.0609
25614W        W41748  18.035   7.110  13.289 -0.0216 -0.1260  0.0386
25615W        W41749   8.854   8.557   0.204  0.1081 -0.1448 -0.1494
25616W        W41750   1.755  16.520  13.163  0.0831 -0.2298  0.0947
25617W        W41751  14.938  18.848  11.451  0.2327 -0.1521  0.1948
25618W        W41752   1.998  18.019  11.683  0.1188  0.0744 -0.1485
25619W        W41753  10.108  12.157   1.479  0.0874 -0.3586  0.3021
25620W        W41754   2.855   6.231   2.326 -0.1689 -0.0521  0.2709
25621W        W41755   6.936  12.306   5.222  0.4253  0.2660  0.0293
25622W        W41756   4.569  17.276  13.791 -0.0441 -0.2086  0.1015
25623W        W41757  15.587   0.211   2.971  0.1323 -0.3660 -0.3413
25624W        W41758   2.947  18.956   0.964 -0.1746  0.1733  0.0617
25625W        W41759  14.701   8.159   0.344  0.1641 -0.1310  0.1146
25626W        W41760   1.196   6.424  12.492 -0.0762 -0.0615  0.2112
25627W        W41761   0.111  18.608  13.078 -0.3298 -0.0515 -0.0802
25628W        W41762  17.730  14.556  12.996  0.1713  0.0602  0.2947
25629W        W41763  10.310  18.438   1.045 -0.2137 -0.0801 -0.1772
25630W        W41764  12.492  17.613   4.650  0.1967 -0.1963 -0.0006
25631W        W41765   8.469  10.143   5.147 -0.0054 -0.0611 -0.2791
25632W        W41766  14.561   9.997   3.378 -0.3651  0.1347 -0.2057
25633W        W41767   3.352  15.117   1.400 -0.2595  0.1363 -0.0601
25634W        W41768   6.559   1.305   3.932  0.1449  0.1866  0.0202
25635W        W41769   1.767   9.645   1.705  0.0356  0.0604 -0.0271
25636W        W41770   1.531   9.024  14.368 -0.0809  0.0338  0.2236
25637W        W41771  11.045   5.545  13.709 -0.0370 -0.0840 -0.2666
25638W        W41772  11.980  13.891   0.796 -0.0964 -0.0288  0.1636
25639W        W41773  18.703  12.553   0.451  0.1091  0.1275 -0.2557
25640W        W41774  17.791  19.134   1.727 -0.0164  0.1385  0.0987
25641W        W41775  18.165   7.325  14.043 -0.0279 -0.2173 -0.0193
25642W        W41776   6.608   5.037  13.815  0.1769 -0.2453 -0.2427
25643W        W41777   0.088   1.789   0.772  0.3791 -0.2272  0.0626
25644W        W41778   9.592   4.162   1.520 -0.0414  0.0125  0.1072
25645W        W41779  16.684   2.056  10.698  0.1852  0.0132  0.1187
25646W        W41780  14.302   0.264  13.984 -0.2640 -0.3423  0.0463
25647W        W41781   7.634   3.064  13.633 -0.2157  0.0141 -0.2495
25648W        W41782   4.885  17.407   1.158 -0.1054  0.1207 -0.1486
25649W        W41783   7.392  11.964  10.889  0.0279  0.1310 -0.1135
25650W        W41784   0.883  16.575   3.611  0.0100 -0.1037 -0.0107
25651W        W41785  10.739  11.829  12.032  0.0094  0.0398 -0.2329
25652W        W41786   5.632  10.700  11.890  0.3181 -0.1920 -0.2117
25653W        W41787  17.779   6.638   1.701 -0.0500  0.1324 -0.2532
25654W        W41788   8.025  11.411  14.206 -0.2927  0.0484  0.1930
25655W        W41789   8.602  10.637   4.324  0.0190 -0.1701  0.2340
25656W        W41790   2.838   8.201   5.212 -0.2613  0.0246  0.1658
25657W        W41791   3.309  14.445   9.709  0.0176  0.0417  0.0654
25658W        W41792  12.211  10.987   2.673  0.0425  0.0441  0.1332
25659W        W41793  16.250  13.764  11.440  0.3624  0.1079  0.3571
25660W        W41794  10.401   0.461   4.783  0.1282  0.1360  0.4706
25661W        W41795  12.019   1.255  14.066  0.0357  0.2355  0.1522
25662W        W41796  11.944   5.965  11.201 -0.0866 -0.0681  0.2144
25663W        W41797   2.099   4.155  14.274 -0.0423  0.1158  0.0642
25664W        W41798  14.379   1.093   3.617 -0.1900 -0.0278  0.1764
25665W        W41799   5.414   0.132   3.745 -0.1174  0.1882 -0.1378
25666W        W41800   0.812  14.078  10.536 -0.1233  0.0790  0.2952
25667W        W41801  18.378   6.610  11.197 -0.0698 -0.0773  0.0514
25668W        W41802   0.730  14.838  13.959 -0.5104  0.1069 -0.0174
25669W        W41803   8.512   6.248   1.020  0.0034 -0.0770  0.0358
25670W        W41804  14.235   7.439  14.341 -0.1698  0.1173 -0.0014
25671W        W41805   3.043  11.087  12.449 -0.1074 -0.0534  0.0634
25672W        W41806   4.534  16.417   5.433 -0.1875  0.3375  0.1650
25673W        W41807   3.087   1.205  14.964  0.1439  0.0762  0.0604
25674W        W41808  12.279   5.470  12.421  0.2080 -0.0356 -0.0395
25675W        W41809  15.004  14.977  13.295 -0.0099 -0.0990 -0.3352
25676W        W41810   1.297   8.830  10.188 -0.0908  0.0590 -0.2133
25677W        W41811   6.607   4.899   0.081  0.4202  0.1843 -0.1284
25678W        W41812   2.391  12.240   1.845 -0.2176  0.3779 -0.0073
25679W        W41813  11.800  15.152  14.772  0.1301  0.3387 -0.3952
25680W        W41814   7.618   2.868   0.525  0.0902 -0.4893  0.2401
25681W        W41815  16.835   2.360  15.200  0.1696  0.1999 -0.3578
25682W        W41816  14.575   0.726   4.545  0.2143 -0.2660  0.0134
25683W        W41817  11.391   6.178   3.306  0.1887  0.1496  0.3265
25684W        W41818  14.510  10.169  13.837  0.0444 -0.2115  0.2480
25685W        W41819   8.466  18.233   2.656  0.2683  0.2489  0.0743
25686W        W41820  18.497  17.460   3.540  0.2334 -0.0084  0.0019
25687W        W41821  12.574   8.408   2.591  0.0360  0.0043  0.0487
25688W        W41822   8.151   5.790  13.519  0.0280  0.0935 -0.0753
25689W        W41823   6.013  14.694   5.243  0.0715  0.1515 -0.0400
25690W        W41824  17.365   6.010  11.714 -0.0455  0.3669 -0.1687
25691W        W41825   2.697   5.263  14.667  0.0434 -0.0270 -0.1281
25692W        W41826   8.359   0.553  10.740 -0.1775  0.0429 -0.1817
25693W        W41827  18.134  11.639  12.582  0.3229 -0.1905  0.1483
25694W        W41828   6.453  15.817   5.496  0.1768 -0.0393  0.1690
25695W        W41829  17.100   7.644   0.714 -0.1707  0.3125  0.1169
25696W        W41830  12.565   0.517   0.651 -0.4103  0.1989  0.3841
25697W        W41831  12.355   1.525  12.235  0.2509 -0.0943  0.2910
25698W        W41832   7.694  10.619   6.061 -0.0527 -0.3424  0.1387
25699W        W41833   4.113   7.717  13.279 -0.2477  0.0074 -0.0756
25700W        W41834   3.737   2.835   1.486 -0.2311  0.0536 -0.0331
25701W        W41835  10.809  13.322  12.186 -0.0756 -0.2260 -0.0325
25702W        W41836  14.920  17.144   0.402 -0.1624  0.1586  0.3029
25703W        W41837   7.127   7.459   3.802  0.0094  0.1350  0.2808
25704W        W41838  16.391  15.128   4.859  0.0142  0.2787  0.4135
25705W        W41839  14.216   6.034  13.620 -0.0719 -0.3498 -0.0904
25706W        W41840   2.818   9.211   3.463 -0.0894 -0.3564 -0.1158
25707W        W41841  12.822   5.826  14.873  0.0035  0.0204  0.0544
25708W        W41842  13.598  16.250  14.597 -0.3291 -0.3435  0.0037
25709W        W41843   4.789  14.334  13.309 -0.2525  0.0152  0.1426
25710W        W41844  16.107   7.410  14.853 -0.1463  0.0125  0.0705
25711W        W41845   3.687  10.909   4.299 -0.0854  0.1007  0.1022
25712W        W41846  10.613  14.183  14.859 -0.0670  0.0352 -0.2731
25713W        W41847   7.750   1.682  14.650 -0.1988  0.1607  0.0582
25714W        W41848  17.528  11.089  11.156  0.0404 -0.1639 -0.1957
25715W        W41849   5.055  15.068   3.748  0.1075 -0.0867 -0.0437
25716W        W41850  10.597   6.514   3.029 -0.1714  0.0178 -0.0309
25717W        W41851  10.987  16.765   3.362 -0.3651  0.1626 -0.1513
25718W        W41852   0.105   4.371   0.616  0.1105 -0.0097  0.2395
25719W        W41853   2.704  10.017  10.928 -0.1185  0.2794 -0.0844
25720W        W41854  17.754   3.935  13.547 -0.1254 -0.1268  0.2831
25721W        W41855  15.824  11.989   2.863 -0.0404  0.2497  0.1270
25722W        W41856  18.123   1.771  10.268  0.0919  0.0945  0.2297
25723W        W41857   2.866   1.522   1.951 -0.2307  0.3067 -0.1096
25724W        W41858   9.987  14.488   3.152 -0.0192  0.1144 -0.1072
25725W        W41859   4.603   9.159  13.415  0.1629  0.0117 -0.1739
25726W        W41860  14.782   9.321  12.808  0.0541 -0.1113 -0.0095
25727W        W41861  18.642   1.807   2.554 -0.1221 -0.1105  0.0698
25728W        W41862  16.089  14.257  10.340  0.1134  0.1094  0.1661
25729W        W41863  11.618   1.017   4.626  0.1777  0.1664 -0.2200
25730W        W41864   3.977  11.477  15.168 -0.0500 -0.2392 -0.3936
25731W        W41865   7.169  12.197  11.723 -0.1735 -0.0320  0.0469
25732W        W41866  18.676  17.116  15.025  0.1014 -0.1718 -0.0939
25733W        W41867   7.973   5.382   2.283 -0.2556  0.3413 -0.0614
25734W        W41868   4.600   6.982   2.900 -0.2790 -0.0807 -0.0101
25735W        W41869  13.750   8.968   2.883 -0.2905  0.0798 -0.1931
25736W        W41870   7.238  15.880   2.951 -0.1316  0.0086 -0.3874
25737W        W41871   1.845  15.641  15.045  0.4127  0.0912  0.0380
25738W        W41872   2.144   5.787  13.927 -0.1225 -0.0631  0.0171
25739W        W41873   3.935   2.904  14.215  0.0797 -0.1178  0.0958
25740W        W41874  16.710   2.252   2.127 -0.1455 -0.1345  0.2641
25741W        W41875   7.182  16.672   1.509  0.3290  0.1497  0.1018
25742W        W41876  17.519  16.967   3.626  0.0745  0.2974 -0.2317
25743W        W41877   4.770   0.259  10.539  0.3336  0.1292 -0.2873
25744W        W41878   9.473   5.144   3.978  0.0772  0.3289  0.2296
25745W        W41879   0.038  15.570  10.149 -0.0755  0.0046 -0.0574
25746W        W41880  17.715   6.399  14.331 -0.0173 -0.2184  0.3043
25747W        W41881   1.292  13.643   1.449 -0.2742 -0.0735  0.1934
25748W        W41882   4.330  12.160  12.481 -0.1310 -0.0636 -0.0888
25749W        W41883   8.394  17.220  15.017 -0.1285  0.1671  0.0378
25750W        W41884   0.542  14.177   2.351 -0.1641  0.0808  0.1562
25751W        W41885   7.507   1.101   3.076  0.1891 -0.1965  0.2953
25752W        W41886   5.030  14.148   3.340 -0.0805 -0.2558 -0.1102
25753W        W41887  13.192   0.583  13.358 -0.2919  0.3361  0.1324
25754W        W41888  17.815   3.067  13.230  0.2428  0.1266  0.2972
25755W        W41889   8.811  17.974   4.337 -0.2495  0.0661  0.0689
25756W        W41890  18.445  16.894   0.738  0.1885 -0.2173  0.1784
25757W        W41891  17.773  14.117  12.468 -0.0729  0.2723 -0.2459
25758W        W41892  17.749   7.413   4.460  0.0847  0.0006  0.0691
25759W        W41893  10.020   7.243  11.625  0.2482 -0.1355 -0.1026
25760W        W41894  10.285  16.908   0.882 -0.2470 -0.2667  0.1089
25761W        W41895   6.611   9.927   4.270  0.2557 -0.0962 -0.1609
25762W        W41896  13.418  16.188   2.376 -0.2040 -0.1867 -0.0069
25763W        W41897  16.887  16.304   4.459  0.0175 -0.1002 -0.0872
25764W        W41898  15.234  15.075  11.492 -0.0510  0.7118 -0.2787
25765W        W41899  12.636   2.937   2.567  0.1427  0.0902 -0.3060
25766W        W41900  11.399  16.874   0.882  0.2281  0.1045  0.0091
25767W        W41901  10.191  13.392  11.094  0.1562 -0.5514  0.1317
25768W        W41902  12.002  11.290  12.471 -0.2178 -0.5226 -0.2020
25769W        W41903  10.739  10.247   5.112  0.0192 -0.1627 -0.3589
25770W        W41904   7.815  10.258   2.733  0.3658 -0.1511 -0.3429
25771W        W41905   6.656  17.653   4.924  0.1187 -0.1212  0.0536
25772W        W41906   5.655   0.242  11.153  0.0425 -0.1259 -0.2783
25773W        W41907  13.373   9.894  15.169  0.0259 -0.4944  0.4494
25774W        W41908   5.709  18.104   5.445  0.1798  0.1905  0.1685
25775W        W41909  14.219   2.865  13.208  0.0995  0.2436  0.0885
25776W        W41910  11.582   0.959   4.137  0.1674  0.0948 -0.4630
25777W        W41911   6.694  10.824   2.299  0.2213 -0.1272  0.0695
25778W        W41912   6.678   8.449  12.451  0.0066 -0.1796 -0.1219
25779W        W41913   1.055  10.081  14.660 -0.0606 -0.1989  0.2388
25780W        W41914   3.474  15.076   2.974 -0.2320 -0.2722 -0.1299
25781W        W41915   4.416  12.501   0.629 -0.2707 -0.2142 -0.0806
25782W        W41916  10.076   8.535   4.967  0.1674  0.1588  0.4048
25783W        W41917  17.877  16.958   1.699 -0.1289  0.1002 -0.3627
25784W        W41918  13.736   3.470  14.102  0.0039 -0.2317  0.0058
25785W        W41919  18.947   5.548   2.702 -0.1732  0.1150 -0.0458
25786W        W41920   3.985   9.950   2.790 -0.0094 -0.1210  0.0999
25787W        W41921   8.471   1.336   3.941 -0.0488 -0.2086 -0.1092
25788W        W41922   8.340  11.409  11.158 -0.2536 -0.1195 -0.0733
25789W        W41923   0.213  11.215  10.911  0.2190  0.0311  0.1115
25790W        W41924  16.065  11.827  12.191  0.1561  0.2188 -0.1873
25791W        W41925  16.059   6.033   2.406 -0.2768 -0.3008 -0.0944
25792W        W41926   7.509   3.405  12.619 -0.1810  0.0439 -0.0433
25793W        W41927  11.945   8.850   4.210 -0.0553  0.1649 -0.3170
25794W        W41928   5.793   7.749  12.528 -0.2789 -0.1574  0.0340
25795W        W41929  13.017   2.587   0.958 -0.1485  0.0701  0.0374
25796W        W41930  10.122   4.777  14.114  0.0615 -0.1659  0.0533
25797W        W41931  18.325  13.701   2.421 -0.1050  0.1269  0.3326
25798W        W41932   3.222  13.253   1.836  0.2301 -0.0159  0.1071
25799W        W41933   5.905   3.157   5.281  0.0572 -0.1650  0.5042
25800W        W41934  11.244  15.319  12.777 -0.1427  0.3111  0.0854
25801W        W41935   7.911  15.082  11.765 -0.0786 -0.2010  0.0907
25802W        W41936   8.443  12.049  10.633  0.1211 -0.0436  0.0534
25803W        W41937  10.158  11.484  14.360  0.0379 -0.1026  0.0613
25804W        W41938  18.788  17.708  10.694 -0.1013 -0.2277 -0.1302
25805W        W41939   3.903  13.786   1.350 -0.3624 -0.1296  0.2624
25806W        W41940  12.407   2.986  13.718  0.3898 -0.1085  0.2053
25807W        W41941   8.888   7.224  11.453 -0.1206 -0.1691  0.1429
25808W        W41942  18.298   0.790  12.425  0.1644 -0.1133  0.0714
25809W        W41943  13.658   5.739  14.634  0.0209  0.1347 -0.0334
25810W        W41944  15.785   0.904  11.853  0.1924  0.0430 -0.0319
25811W        W41945   9.898   3.490  11.293  0.0680 -0.0881  0.0978
25812W        W41946  17.075   9.198  13.047 -0.2754  0.2179 -0.1743
25813W        W41947   1.878  11.739   2.313 -0.3324 -0.0272  0.1268
25814W        W41948  17.477  11.937   3.277  0.3664  0.2390 -0.0455
25815W        W41949   0.623   8.545  14.241 -0.0201 -0.1262 -0.0354
25816W        W41950  10.486  12.789   0.256  0.1416  0.0483  0.1402
25817W        W41951  18.952  15.758  12.049  0.0952  0.3791 -0.3480
25818W        W41952   0.714  10.400   4.448 -0.2455 -0.2356 -0.1336
25819W        W41953   6.021   7.851   4.872 -0.2612  0.3336 -0.2682
25820W        W41954  18.614   8.358  10.146 -0.2374  0.0721  0.2419
25821W        W41955  14.838   7.331   5.254 -0.2111 -0.0959 -0.0580
25822W        W41956  13.314   0.538   2.802  0.2699  0.1176  0.0809
25823W        W41957   6.437   5.788   1.084  0.0378  0.0349 -0.0961
25824W        W41958  17.533  13.077   5.082 -0.1956 -0.1934 -0.0244
25825W        W41959   4.032   0.998  14.476  0.3236 -0.0218  0.0811
25826W        W41960  17.963   3.147  12.257 -0.0314 -0.2678  0.0805
25827W        W41961  12.327   8.732  10.086  0.2147 -0.0230  0.1677
25828W        W41962  16.121   1.156   3.094 -0.0761 -0.3000 -0.4916
25829W        W41963  12.322  10.928  12.718  0.0728  0.0148 -0.2898
25830W        W41964  14.962   4.281   2.009  0.0675 -0.2969 -0.2773
25831W        W41965   7.927   6.988   1.039  0.0555 -0.1761  0.2302
25832W        W41966  17.229  17.778  14.844 -0.3790 -0.2493 -0.0827
25833W        W41967   5.476  17.300   3.624  0.1425  0.1899 -0.1313
25834W        W41968  16.501   6.132   0.288 -0.1705 -0.2529 -0.0530
25835W        W41969  13.976  18.188   1.014  0.2937 -0.1710 -0.0597
25836W        W41970  14.164   6.675   0.498  0.1411  0.6416  0.0981
25837W        W41971   8.186   2.236  14.640 -0.1665  0.1004  0.0475
25838W        W41972   2.268   7.183  13.542 -0.1050  0.2221  0.2766
25839W        W41973   1.648  16.135  12.857 -0.2693 -0.3317  0.4118
25840W        W41974  15.548   6.795   3.485 -0.0411  0.2137 -0.0092
25841W        W41975  12.367   1.603  15.048 -0.1549  0.0603 -0.2006
25842W        W41976   7.495  16.904   2.637  0.3700 -0.0261  0.1813
25843W        W41977   9.332  18.683   4.996 -0.0163 -0.4641 -0.3294
25844W        W41978   9.062  10.166   1.870 -0.0714 -0.2364  0.2971
25845W        W41979   8.658   0.510   4.677 -0.1766  0.2557  0.1146
25846W        W41980   2.478  13.451   4.669  0.4061 -0.0971  0.2674
25847W        W41981   2.941   9.934   5.501  0.1181  0.0761  0.2035
25848W        W41982  10.822  13.463   3.838 -0.2517  0.1270  0.0154
25849W        W41983   9.428   3.134  13.354  0.1477  0.1300 -0.1864
25850W        W41984  14.477  18.687  13.753  0.0624  0.0621  0.1268
25851W        W41985  10.192  12.631  13.176  0.0928 -0.1279  0.0262
25852W        W41986   0.611  16.924  12.954  0.2390 -0.2237  0.0461
25853W        W41987  13.100  13.123   4.174 -0.2915  0.1627  0.1838
25854W        W41988  17.243  12.442  12.596  0.1170 -0.1007  0.1015
25855W        W41989  10.608  11.268  12.306  0.3482 -0.1335 -0.3547
25856W        W41990   6.860  11.037  14.273 -0.3496  0.0796 -0.2505
25857W        W41991   6.154  18.987   5.061 -0.0257 -0.0686 -0.2682
25858W        W41992   4.431  16.271   2.088  0.1662 -0.1211 -0.1123
25859W        W41993   9.951   0.081   2.540  0.2868 -0.0938  0.0387
25860W        W41994  15.766  10.632  10.417  0.0101  0.1259 -0.0890
25861W        W41995   4.637   8.143  12.589  0.1721 -0.0893 -0.2227
25862W        W41996   9.359  11.052   4.571 -0.6636  0.1088 -0.0103
25863W        W41997   1.184   0.942  13.985  0.2660 -0.3107  0.0639
25864W        W41998   8.812   2.647  12.906 -0.0730  0.3139 -0.0089
25865W        W41999  10.779   3.282  12.151 -0.0186  0.1857  0.1619
25866W        W42000   5.676  11.156  13.556  0.2153  0.0555 -0.1634
25867W        W42001  13.754   3.092  13.002 -0.3034 -0.3113  0.1699
25868W        W42002  11.876  14.963  14.318 -0.0694  0.3180  0.0778
25869W        W42003  18.755  15.816   3.405 -0.2774 -0.3819  0.0566
25870W        W42004  12.878   2.811   2.082  0.1123 -0.5374  0.0836
25871W        W42005   7.663  10.797   2.683  0.0798 -0.0582 -0.0000
25872W        W42006  11.531  12.111   3.510 -0.0862  0.0133 -0.1759
25873W        W42007   2.451   0.519   3.531 -0.1078 -0.2626 -0.2034
25874W        W42008   2.835   6.386  10.330 -0.1221  0.1828 -0.1261
25875W        W42009   9.792  14.031  13.288  0.0140 -0.1349 -0.0204
25876W        W42010  16.368  10.536  14.736  0.2800 -0.0107  0.2579
25877W        W42011   7.318   7.580   0.514 -0.2686  0.2989 -0.2595
25878W        W42012  13.548  15.422   1.910 -0.5245  0.4729 -0.0656
25879W        W42013  18.487   2.114  12.786  0.1734 -0.0950 -0.1681
25880W        W42014   2.612  10.886  13.963 -0.3540 -0.1124  0.4408
25881W        W42015   3.003   3.385  13.176 -0.5251 -0.0766 -0.1633
25882W        W42016   8.456   2.061  14.189 -0.0463 -0.1471 -0.1483
25883W        W42017  16.984  10.144  14.076 -0.0497  0.1043  0.4027
25884W        W42018  14.688  13.641   2.356 -0.1747  0.0240 -0.0116
25885W        W42019  17.958   0.788   4.157  0.0383  0.1958  0.1964
25886W        W42020  13.900  15.936   2.810  0.0865  0.1534 -0.2431
25887W        W42021   5.470   3.193   3.604  0.0194 -0.1305 -0.1323
25888W        W42022   5.013   9.115  13.113 -0.1701  0.3172  0.1298
25889W        W42023   9.214   0.186  12.291  0.1702  0.2865 -0.0934
25890W        W42024   2.277  11.820  15.095  0.0447 -0.3557  0.0889
25891W        W42025   0.457   6.534   4.264  0.4126  0.3011  0.2068
25892W        W42026  10.172  16.651  11.905 -0.3843  0.0533  0.1188
25893W        W42027   5.384   1.722   4.695 -0.0074 -0.4154 -0.3296
25894W        W42028   3.174  15.799   0.232  0.2337  0.0524 -0.1049
25895W        W42029   3.885   9.272  11.239 -0.2498  0.0378  0.0972
25896W        W42030   8.225   6.205  11.656  0.1701 -0.4714 -0.2182
25897W        W42031   2.488   0.114  15.109 -0.1968 -0.0057 -0.0700
25898W        W42032   7.237   9.079   2.243 -0.0855 -0.3602 -0.1534
25899W        W42033   2.055  10.041  11.920  0.3335 -0.1220  0.0527
25900W        W42034   3.247  14.351  14.999 -0.0934  0.0188 -0.1179
25901W        W42035  11.163   8.533  10.965  0.1168  0.0204  0.1051
25902W        W42036   7.326  10.665   4.521 -0.3107 -0.0432  0.0741
25903W        W42037   1.850  12.075  15.106  0.0086 -0.0611 -0.1470
25904W        W42038   5.018   2.988   1.789  0.0437  0.2573 -0.0878
25905W        W42039   5.856   2.654   0.379 -0.2472 -0.2150 -0.1694
25906W        W42040   2.181   7.070   4.265  0.0474  0.1899  0.0637
25907W        W42041   0.822   6.542   2.023  0.1792 -0.2990  0.0710
25908W        W42042   9.434  12.936   1.477  0.1327 -0.0131 -0.0189
25909W        W42043   5.128  13.269   2.407  0.0882  0.0689  0.2304
25910W        W42044  10.989   2.784  13.962  0.0767 -0.1387  0.0288
25911W        W42045   7.213   8.429   5.992  0.1349 -0.4275  0.0043
25912W        W42046   4.421  18.916   4.790 -0.0114  0.2932 -0.0885
25913W        W42047   4.915  18.647  12.432 -0.0531 -0.1690  0.0738
25914W        W42048  13.469   1.658  12.422 -0.1792  0.0109 -0.0826
25915W        W42049   1.149   9.385   2.370 -0.1439 -0.1328 -0.0067
25916W        W42050   2.411  16.591  14.771 -0.0389  0.0350 -0.0644
25917W        W42051   9.935   3.710  14.368 -0.0199 -0.1348  0.1164
25918W        W42052  15.368   3.956  12.828 -0.0963 -0.0183  0.0730
25919W        W42053  16.964   7.608   4.595 -0.0122 -0.3061 -0.4256
25920W        W42054  15.376   9.386  11.043 -0.0128 -0.1862 -0.5426
25921W        W42055   1.616   1.339   3.322  0.0071 -0.0554  0.0447
25922W        W42056  16.681  18.483   1.790  0.2795  0.1818 -0.1950
25923W        W42057   9.108  13.504   1.453 -0.3898 -0.0888 -0.2201
25924W        W42058  17.790  17.101  14.293  0.2989 -0.0554  0.0099
25925W        W42059   9.590  15.469  14.598 -0.0987 -0.1578  0.1901
25926W        W42060   2.949  10.181  13.870  0.0149  0.1543 -0.0023
25927W        W42061  16.486   5.072   2.853  0.0507 -0.1285 -0.0780
25928W        W42062  15.659   4.642  13.354  0.0099 -0.1312  0.3733
25929W        W42063  15.069  17.738   3.891  0.2432 -0.0451 -0.2215
25930W        W42064  10.251  18.199  12.646  0.1015 -0.0618 -0.0507
25931W        W42065   1.554   0.591  14.326 -0.0891  0.0995  0.0032
25932W        W42066  11.486  12.054  11.767 -0.0540  0.0697  0.1369
25933W        W42067   4.955   8.920  12.434  0.2482 -0.1108  0.1758
25934W        W42068  12.528  13.041   3.999 -0.0281  0.0446  0.4097
25935W        W42069   3.446   1.672  11.751  0.0704 -0.0954 -0.2519
25936W        W42070  14.927  13.911  13.130 -0.1067 -0.2988 -0.0372
25937W        W42071  13.188   8.554   3.964 -0.0621 -0.2973  0.4823
25938W        W42072   3.284   3.181   4.285 -0.1390 -0.4463 -0.0460
25939W        W42073  12.226  16.279   1.779  0.1466  0.4242  0.0027
25940W        W42074  12.562  18.290   1.330  0.4438  0.2300  0.1113
25941W        W42075   5.820  11.957   2.139 -0.0286 -0.4899  0.1454
25942W        W42076   6.282   6.408  14.962 -0.0628 -0.0908 -0.1583
25943W        W42077  10.945   6.300   1.317 -0.4254  0.3341  0.3068
25944W        W42078   5.710  15.392   0.883  0.1856 -0.1833  0.0833
25945W        W42079   6.616  14.947   1.517 -0.1680 -0.3031  0.2671
25946W        W42080  14.794   2.119   0.821 -0.1642 -0.1068 -0.1044
25947W        W42081   0.880   5.640  14.352  0.1094  0.1469  0.0886
25948W        W42082   6.871  15.808   1.981 -0.0440  0.1877 -0.0108
25949W        W42083  18.505   7.987  15.020 -0.0114  0.5192 -0.0875
25950W        W42084   8.719   5.005   1.098  0.2879 -0.0540  0.1047
25951W        W42085  16.176   8.475  12.895 -0.2017  0.0024  0.0612
25952W        W42086   5.882  17.670  14.548 -0.1019 -0.0320  0.2620
25953W        W42087  17.779   0.443   0.249 -0.1676 -0.1006  0.0596
25954W        W42088  11.108  13.056  14.849  0.2511 -0.1890 -0.3959
25955W        W42089   2.588   1.055   1.490 -0.1063  0.1656 -0.0523
25956W        W42090  10.284   7.813   5.665  0.5958 -0.0817  0.0678
25957W        W42091   6.366   8.238  12.944  0.0597  0.1740  0.1440
25958W        W42092  14.123  13.013  11.694 -0.2263 -0.0212 -0.0309
25959W        W42093   1.726   9.642   1.122 -0.2694 -0.1641  0.1172
25960W        W42094  13.464   8.058  12.291 -0.1240 -0.1215  0.1320
25961W        W42095  10.984  16.298   5.117  0.0765  0.0271  0.2097
25962W        W42096  17.897  15.891  14.264  0.2573 -0.0899 -0.2180
25963W        W42097  11.926   5.491  10.961 -0.1967 -0.1758  0.1735
25964W        W42098  10.378  13.263   3.895  0.1927 -0.2222 -0.0781
25965W        W42099   2.961   0.708  13.560 -0.0742  0.0195 -0.2655
25966W        W42100  14.688  19.146  13.615 -0.3094  0.2780  0.1692
25967W        W42101  17.043   7.191  15.050  0.0377 -0.3931 -0.4876
25968W        W42102  10.297   0.906  12.865  0.2869 -0.1279 -0.1852
25969W        W42103  13.670  18.026   3.753  0.4211 -0.2979 -0.3204
25970W        W42104   6.537   1.800  11.143 -0.1447  0.2462 -0.0775
25971W        W42105  14.120  11.585   0.241 -0.1158 -0.0575 -0.1072
25972W        W42106  16.012   5.529   4.089  0.1641 -0.2189  0.1168
25973W        W42107  17.026  18.718   0.560  0.0802 -0.2392  0.0755
25974W        W42108  11.452  11.503  12.743 -0.1951 -0.0613 -0.3017
25975W        W42109  12.810   3.401  12.039 -0.2210 -0.2322  0.2327
25976W        W42110  15.529  12.593   4.284 -0.1332  0.0072 -0.0972
25977W        W42111  16.440   3.168  14.999 -0.0109  0.0167  0.2112
25978W        W42112   1.104   4.957   4.847  0.0239 -0.0267 -0.0355
25979W        W42113  11.092  10.292  12.962  0.3425  0.1518  0.2272
25980W        W42114   3.005  15.321  13.309  0.1448 -0.0458 -0.1037
25981W        W42115   8.058  13.274   0.003 -0.0638  0.1423 -0.1924
25982W        W42116  14.406   4.854   3.104 -0.0284 -0.3023  0.4053
25983W        W42117   9.332   5.588   3.090 -0.4691  0.0420 -0.0022
25984W        W42118   5.477  10.465   3.791  0.0841 -0.1197  0.3198
25985W        W42119   3.742  13.534  13.524  0.0397 -0.1254  0.2288
25986W        W42120   2.025   3.922  10.697 -0.1342  0.2675 -0.1539
25987W        W42121   9.243   9.842  14.133 -0.2083  0.0445  0.1555
25988W        W42122  14.780  14.100  14.335 -0.0607  0.2765 -0.0467
25989W        W42123   3.828   2.148   4.868  0.0223  0.2380 -0.2965
25990W        W42124  16.000   4.796  11.336 -0.1891 -0.0922  0.0444
25991W        W42125  12.210  13.595  13.087 -0.3771  0.1012  0.0657
25992W        W42126   4.089   5.713  12.923  0.1524 -0.0827  0.0841
25993W        W42127  12.854  16.728   1.669  0.3094  0.2844 -0.3152
25994W        W42128   6.127   6.404  14.422  0.0026  0.0231  0.2161
25995W        W42129  15.525  17.247   1.951  0.2156  0.0586 -0.3200
25996W        W42130  18.253   3.708  14.776 -0.3633 -0.0009 -0.1227
25997W        W42131  17.615   1.979   0.403  0.0070  0.0531 -0.0907
25998W        W42132   3.443  11.184  10.636 -0.2545  0.0547  0.0764
25999W        W42133   9.252  12.637   1.145  0.3516 -0.0434  0.5020
26000W        W42134  17.793   8.442   0.111  0.3307  0.1923  0.1669
26001W        W42135   3.544  11.755  10.366 -0.1215  0.1790  0.0933
26002W        W42136   0.933  11.774  12.404 -0.1407 -0.2669  0.0866
26003W        W42137   6.163  14.665  11.977  0.0379 -0.3397  0.3034
26004W        W42138   2.763   8.660  10.974  0.0260 -0.1116  0.2744
26005W        W42139  18.414  15.486   3.228 -0.2566 -0.1722  0.3180
26006W        W42140   2.399  18.786   2.482 -0.1696  0.0864 -0.1795
26007W        W42141   5.492   7.488  11.801  0.0802  0.0085  0.1282
26008W        W42142   3.540   2.368   0.667 -0.0850  0.1153  0.2408
26009W        W42143  13.133   6.365   1.490  0.0439 -0.0737  0.1523
26010W        W42144  18.983   6.236   5.304  0.1747  0.2371  0.0288
26011W        W42145  10.268   1.005  10.564 -0.1749  0.3692 -0.3271
26012W        W42146  10.208   1.642  10.623 -0.0166 -0.0499  0.1309
26013W        W42147  14.816  12.132   2.664 -0.0535 -0.1030  0.0734
26014W        W42148   5.726   4.834  14.603  0.0894 -0.3549  0.0507
26015W        W42149   6.323   6.067   1.938  0.1530  0.3957  0.1523
26016W        W42150  13.321   1.647   5.741  0.0768  0.2448 -0.0061
26017W        W42151   0.585  12.324  11.829  0.2032 -0.1670 -0.0513
26018W        W42152  17.158   9.501  12.633  0.2003 -0.0616  0.2933
26019W        W42153   6.321   6.154   4.610 -0.0427  0.3560 -0.2075
26020W        W42154  12.655   6.407   1.474  0.1807  0.0785  0.0859
26021W        W42155   0.386  18.888   1.519 -0.0309 -0.0386 -0.3765
26022W        W42156  10.769   7.252   3.658 -0.3139 -0.3158 -0.1069
26023W        W42157  16.945  12.935   2.558  0.2523 -0.0289 -0.0591
26024W        W42158  12.979  14.947  13.522  0.2862 -0.1303 -0.0219
26025W        W42159   3.803  13.771  14.622 -0.0100  0.1617 -0.0263
26026W        W42160  13.957  18.815  10.984 -0.2428 -0.0280  0.0011
26027W        W42161   1.199   3.563  10.735  0.1724 -0.1096  0.4471
26028W        W42162  18.667   8.173   2.059  0.0102  0.0126 -0.2613
26029W        W42163   2.821   8.893  13.773  0.1751  0.0291  0.3547
26030W        W42164   7.190   1.907   2.119 -0.0654 -0.0662 -0.0359
26031W        W42165  12.430  12.600   2.387  0.0632  0.2400  0.0376
26032W        W42166   4.487   7.033   4.301 -0.1527  0.1625 -0.3437
26033W        W42167   0.997  12.880   2.762  0.3638  0.0363  0.0349
26034W        W42168  14.201   7.571  10.201  0.2670  0.0699  0.2315
26035W        W42169   3.395   1.789   1.563  0.2679  0.0792  0.1666
26036W        W42170  11.204  18.494  12.556  0.0945  0.4052 -0.1519
26037W        W42171   9.420  14.048   2.660 -0.0241  0.1332  0.0097
26038W        W42172  16.192   9.985   4.101  0.0490  0.0667  0.0746
26039W        W42173  16.560   0.473   5.613 -0.0398 -0.0164 -0.3116
26040W        W42174   3.571   6.735   1.713 -0.0557 -0.3209  0.1072
26041W        W42175   6.996  10.248  13.862  0.1788 -0.0602 -0.1564
26042W        W42176  15.090  17.422   2.129 -0.1651 -0.0494 -0.0138
26043W        W42177  14.741  16.900   4.373 -0.3618 -0.1536  0.5184
26044W        W42178  11.054  10.030   4.719 -0.2265  0.1811 -0.0631
26045W        W42179   6.388  13.881  11.734 -0.1850  0.0841  0.1396
26046W        W42180   7.209  12.556  13.310 -0.0012 -0.0052 -0.0139
26047W        W42181  13.567   0.602   3.748  0.0747 -0.2019  0.4681
26048W        W42182  12.375   8.933  13.033  0.1375  0.0299 -0.0548
26049W        W42183  11.980   7.899  14.740  0.0374  0.1506 -0.0249
26050W        W42184  10.257   3.707  13.067  0.5411 -0.1044 -0.4195
26051W        W42185  17.184   1.756  11.346 -0.0269  0.0212  0.1602
26052W        W42186   5.338   4.746   4.647  0.0548  0.2129 -0.3920
26053W        W42187   4.446   2.925  12.807 -0.2735 -0.1207  0.1589
26054W        W42188   8.294  14.262  12.078 -0.1365  0.0979 -0.2387
26055W        W42189  18.816  11.634  10.108  0.3816 -0.1281  0.0999
26056W        W42190   3.210   0.525  15.061  0.0696 -0.0715 -0.0272
26057W        W42191  13.738   9.759  12.586  0.5033  0.2636  0.0853
26058W        W42192   5.585  13.939  10.899  0.0878  0.1811  0.0233
26059W        W42193   1.193   0.940  14.799 -0.0337 -0.0219  0.1687
26060W        W42194   4.260   4.837   4.611  0.3711 -0.2478 -0.1244
26061W        W42195  14.696   9.693  14.510 -0.3243  0.3054  0.2681
26062W        W42196  12.678   5.802  13.207  0.0052 -0.4345 -0.1507
26063W        W42197   5.580  16.670   5.898  0.2673  0.0549  0.2027
26064W        W42198   8.241  17.726   1.191  0.0211 -0.1710 -0.0142
26065W        W42199  11.798   0.751  14.006  0.0993 -0.0258  0.1188
26066W        W42200   8.993  16.376   0.397  0.1520 -0.2831 -0.0996
26067W        W42201  18.015   1.251  11.348 -0.0211  0.1533 -0.2118
26068W        W42202  17.203   4.954   4.304  0.0307 -0.4527 -0.0448
26069W        W42203   7.343   0.761   4.178 -0.1173  0.0648  0.0477
26070W        W42204  13.078  15.851  14.416  0.1019 -0.0152  0.0992
26071W        W42205  14.660   8.372  15.034  0.0131 -0.0839  0.1110
26072W        W42206   2.412  17.896  10.277  0.0432  0.1336  0.0438
26073W        W42207   6.111  16.497  14.199 -0.0006  0.0062  0.0392
26074W        W42208   8.677   6.418  14.570 -0.2476 -0.3849 -0.1353
26075W        W42209   2.567  11.155   2.688  0.0961 -0.1481  0.0778
26076W        W42210  17.741   5.507  11.759  0.0493 -0.0581 -0.0375
26077W        W42211   8.140  15.428   3.629  0.0868  0.2475 -0.0659
26078W        W42212  10.014   8.858   4.472  0.1975  0.2617 -0.4070
26079W        W42213  13.358   1.322  12.894  0.1982  0.2435  0.0238
26080W        W42214   2.137  16.471   4.467  0.0582 -0.3018  0.1794
26081W        W42215   8.525  17.410   0.933  0.0066  0.1977  0.2276
26082W        W42216   9.118  11.729  11.373  0.1695  0.0708 -0.2010
26083W        W42217   3.739   7.525   4.468 -0.0767 -0.1782  0.1959
26084W        W42218   4.759   1.972   0.090  0.0060 -0.0791  0.2214
26085W        W42219  16.797   7.036   1.438  0.1421 -0.2961  0.1584
26086W        W42220   9.362   1.310  13.290  0.0013  0.0117 -0.1510
26087W        W42221   4.885   0.307  13.553 -0.2786 -0.0649  0.0788
26088W        W42222  10.760   9.884   9.947 -0.1607  0.1336  0.3380
26089W        W42223  13.990   8.235   0.196  0.1100  0.0583  0.0619
26090W        W42224  10.937   3.824   1.627 -0.0235 -0.0008 -0.4323
26091W        W42225   4.266  18.077  14.346  0.0774  0.1538 -0.2717
26092W        W42226  18.735   3.475   2.428  0.0806 -0.0529 -0.2795
26093W        W42227   2.557   4.565  11.706 -0.1006  0.2951  0.0889
26094W        W42228  15.023   4.210   0.556 -0.0362 -0.1346 -0.3075
26095W        W42229   2.577   7.872  12.502 -0.1804  0.1215 -0.2066
26096W        W42230  16.865  14.156   3.163 -0.0900  0.1729 -0.0451
26097W        W42231   0.391  12.181   4.273  0.1785  0.4234  0.5397
26098W        W42232  14.299   5.739   4.010  0.2978  0.2207 -0.3402
26099W        W42233  18.304  11.734   4.466  0.0318  0.1967  0.0868
26100W        W42234   9.410  17.455  13.244 -0.1489  0.0228  0.0396
26101W        W42235  12.811   7.982   0.716  0.0574 -0.1649 -0.1596
26102W        W42236  13.889  13.188   4.717  0.1198 -0.1958  0.0744
26103W        W42237  17.516  13.777   4.486  0.0468  0.1211 -0.1581
26104W        W42238   8.349   4.281  12.473 -0.2021  0.1290 -0.4782
26105W        W42239   6.493  18.798   1.977  0.0466 -0.0048  0.0487
26106W        W42240  17.839  15.269  12.602  0.1952 -0.1005  0.0857
26107W        W42241  18.388  16.084   3.740  0.2875  0.2135  0.2262
26108W        W42242   7.275   5.597   2.647 -0.1908 -0.2475  0.3265
26109W        W42243   9.000  17.568   0.211 -0.3214 -0.1136 -0.3418
26110W        W42244   7.075  15.563  11.856 -0.0562  0.0232 -0.1005
26111W        W42245  13.016   0.815   1.465 -0.2537  0.3676  0.0368
26112W        W42246  14.942  15.966   4.645  0.1328  0.2837 -0.2715
26113W        W42247  10.060   4.449   5.081 -0.2121 -0.2508 -0.1747
26114W        W42248   9.877   7.650  12.841  0.0129  0.0354 -0.0590
26115W        W42249   4.856   5.395   4.624 -0.0630  0.2072 -0.2263
26116W        W42250   5.673   8.056  14.609  0.4519 -0.0746  0.1527
26117W        W42251  15.140  16.322   2.514 -0.0400  0.0024 -0.1338
26118W        W42252  13.228  17.234  12.634  0.0780 -0.3899  0.1479
26119W        W42253  15.890   1.143   2.458  0.2874 -0.1876 -0.1162
26120W        W42254   0.259  16.859   1.644 -0.1109  0.1704  0.2224
26121W        W42255   8.953   9.736   4.259 -0.1148 -0.0192 -0.0890
26122W        W42256  15.295  17.328  14.235  0.0684  0.1900 -0.0465
26123W        W42257   0.344   9.769   1.963  0.1751 -0.1190  0.3675
26124W        W42258   7.109   8.892  13.237  0.2417  0.1532 -0.3264
26125W        W42259   3.351   5.107   2.896 -0.2072  0.2526 -0.2777
26126W        W42260   4.548   8.546   1.369  0.1640 -0.0924 -0.1571
26127W        W42261   5.647   2.236   0.523 -0.1007  0.0375 -0.0001
26128W        W42262  12.375  10.318  14.327  0.0547 -0.1169 -0.1192
26129W        W42263  14.761  11.608  13.644  0.1443 -0.3464 -0.0194
26130W        W42264   6.106   1.517  14.378 -0.0013 -0.0286 -0.2123
26131W        W42265  19.078   6.195  14.716 -0.2878 -0.0977 -0.1228
26132W        W42266  11.243   9.872   2.534 -0.2020  0.0693 -0.2929
26133W        W42267   0.916   2.010   1.421 -0.0446  0.0233  0.1631
26134W        W42268  16.025   0.437   0.563  0.0448  0.0609 -0.1537
26135W        W42269  10.798  16.606  14.086 -0.1793  0.0292 -0.1620
26136W        W42270   7.123  18.092   4.352  0.0084 -0.0835 -0.1041
26137W        W42271   2.418   8.962   0.153 -0.2108 -0.1457  0.1622
26138W        W42272  18.369   4.821   4.184 -0.0363  0.0508  0.0124
26139W        W42273   9.095   1.063   1.638 -0.0489 -0.0285  0.2730
26140W        W42274  17.463  18.607  11.161 -0.0811 -0.2845  0.0441
26141W        W42275   2.548  18.421  11.583 -0.4440 -0.2361  0.0820
26142W        W42276  12.730  13.737  11.834  0.0149  0.1058  0.1407
26143W        W42277  18.279  16.567  12.865 -0.0763  0.1625  0.0060
26144W        W42278   4.528   4.141  10.412 -0.0972  0.2184 -0.1572
26145W        W42279   7.358  18.548   4.376  0.2133  0.2121 -0.0901
26146W        W42280  17.701   4.925   4.131 -0.1153  0.2380 -0.1301
26147W        W42281  18.145   9.302   2.203 -0.0643  0.2429  0.1151
26148W        W42282  13.896   3.185  13.464  0.2438  0.0732  0.6201
26149W        W42283  15.774  17.073   3.561 -0.2462 -0.0152 -0.0244
26150W        W42284   1.180  12.450   0.902  0.1429  0.0080  0.4336
26151W        W42285   2.971   2.554  11.306 -0.1603 -0.0831 -0.1492
26152W        W42286  14.009  10.629   0.074 -0.3889  0.3981  0.2040
26153W        W42287   2.599   4.105   1.046 -0.2308 -0.3899  0.0011
26154W        W42288   2.350  18.623   4.513 -0.0379  0.0591  0.1227
26155W        W42289  18.738   4.393  10.732  0.1824  0.2380  0.1939
26156W        W42290   7.455   3.800   1.294  0.1214 -0.2673 -0.1947
26157W        W42291  13.873  12.583  14.958 -0.0681 -0.1371  0.1914
26158W        W42292  15.075  16.389  13.246 -0.1127  0.1655 -0.0892
26159W        W42293  17.989  18.822   1.362 -0.2240 -0.3691 -0.0110
26160W        W42294  10.183   0.971  13.394  0.2567  0.1351  0.2164
26161W        W42295   9.982  16.619   4.172 -0.3824  0.0216 -0.0103
26162W        W42296  16.605  15.242   3.398 -0.0277  0.0702  0.1568
26163W        W42297   4.195  13.863  14.015 -0.0741 -0.3507  0.2726
26164W        W42298   7.975   6.285   3.963  0.5851 -0.1549 -0.1594
26165W        W42299  10.420   8.787  11.714 -0.2114 -0.0207  0.0002
26166W        W42300  12.850   3.773  14.740  0.0601 -0.2316  0.0790
26167W        W42301  18.928  11.492   5.599  0.0774 -0.5126 -0.1852
26168W        W42302  16.481   7.914   1.704  0.1109  0.1425  0.1587
26169W        W42303   4.322   0.518  13.797  0.1768 -0.3223  0.0608
26170W        W42304   1.795   2.585   2.864 -0.1933 -0.0473  0.3182
26171W        W42305  10.001  17.881   4.614 -0.1058 -0.1614  0.0385
26172W        W42306  10.612   0.009   0.702  0.1901 -0.3015  0.1033
26173W        W42307   7.628   7.372  14.349 -0.1778 -0.1379  0.1573
26174W        W42308   8.606   2.094  11.700  0.0788 -0.1717 -0.1029
26175W        W42309   6.975   6.955   4.490  0.0729  0.0893  0.2616
26176W        W42310  13.472  16.769  14.631 -0.1961 -0.0329  0.0417
26177W        W42311  17.016  16.694  11.015 -0.0943  0.0026  0.2350
26178W        W42312  16.683  15.672   3.660  0.0166  0.0750 -0.0901
26179W        W42313   9.484   4.858   2.605 -0.0668 -0.0439 -0.0788
26180W        W42314   6.855   6.532   2.506 -0.1875 -0.1294  0.0669
26181W        W42315  17.754  11.653  13.050 -0.0664 -0.2005  0.1518
26182W        W42316  11.376   9.119   2.111  0.0416 -0.0141  0.0254
26183W        W42317   9.145  11.362  12.814  0.0130 -0.2210  0.1222
26184W        W42318   0.484  10.286  11.500 -0.0985 -0.1009  0.1850
26185W        W42319   9.869   2.961   1.458 -0.1810  0.2748  0.1958
26186W        W42320  17.134   9.321   3.050 -0.0861 -0.0213 -0.2108
26187W        W42321  16.957  16.896  13.162  0.0995  0.2133  0.2157
26188W        W42322  11.278  15.898   0.900 -0.0449 -0.0893 -0.0172
26189W        W42323  10.688  15.460  13.158  0.1793 -0.2082 -0.0276
26190W        W42324   3.484   9.379   5.005 -0.1575  0.0909  0.1704
26191W        W42325  15.881   9.905   3.026 -0.0887 -0.1405 -0.0417
26192W        W42326   6.447   7.803  14.945 -0.2224  0.2657 -0.1649
26193W        W42327   9.855   1.093  12.083  0.0197  0.2424  0.1739
26194W        W42328   4.750   9.801   3.046 -0.0090  0.2674  0.3023
26195W        W42329   5.270  14.865  11.111 -0.2283  0.3925  0.1052
26196W        W42330  15.129  13.039  14.914  0.1935  0.0181  0.2519
26197W        W42331   2.799   3.517  12.203 -0.0914  0.0031  0.0622
26198W        W42332   8.492  15.098   1.898 -0.1995  0.1873 -0.0013
26199W        W42333   1.019  15.948  12.895  0.3213  0.2071  0.3519
26200W        W42334  17.971  12.028  15.161  0.0962 -0.1392 -0.0319
26201W        W42335  17.917   7.317  14.485  0.0075  0.2614  0.1302
26202W        W42336  15.045   7.101   2.707 -0.1133 -0.1366  0.1413
26203W        W42337   2.292   3.754   2.430 -0.0288 -0.0135  0.2802
26204W        W42338   0.961   6.763   4.149 -0.0071 -0.0599 -0.0440
26205W        W42339  15.106   6.066   0.824  0.3278 -0.0574 -0.0603
26206W        W42340  16.901  15.619   2.287  0.0158  0.3672  0.0054
26207W        W42341  11.436   2.693  12.244 -0.0853 -0.2807  0.1457
26208W        W42342   1.717  10.876   1.572 -0.0706 -0.2778  0.0388
26209W        W42343  16.576   3.329   3.201  0.0874  0.2477 -0.1675
26210W        W42344  16.751   4.335   1.133 -0.1579 -0.0724  0.2090
26211W        W42345   1.505  11.893  12.199 -0.0169 -0.1752 -0.2279
26212W        W42346  16.284   5.359   4.612 -0.2716 -0.0196  0.0443
26213W        W42347   9.439   7.254   0.617 -0.0083 -0.1032 -0.1251
26214W        W42348   3.588   8.968   4.722  0.1951 -0.1774 -0.3027
26215W        W42349  18.548  18.958   0.480  0.0823 -0.4464 -0.0932
26216W        W42350  16.664   9.455   4.830  0.2150 -0.0254 -0.2345
26217W        W42351  14.949  14.600   4.949  0.3019  0.0216 -0.2670
26218W        W42352   2.388  14.578   5.026  0.0181  0.1572 -0.1379
26219W        W42353  11.811   2.533   2.110 -0.3630  0.1025  0.2028
26220W        W42354   4.554   7.445  13.347 -0.2508  0.0942  0.3048
26221W        W42355   9.651  12.849   3.284 -0.1030  0.0297  0.1273
26222W        W42356   9.699   1.789  14.598 -0.1302 -0.0723  0.0209
26223W        W42357  11.919   8.031  12.889  0.1338  0.0020 -0.2121
26224W        W42358  15.791   5.620   9.384 -0.0731 -0.1740 -0.0573
26225W        W42359  15.669   9.859  14.426  0.0438 -0.0974  0.2224
26226W        W42360   9.431  18.665   2.916  0.3558  0.1367 -0.0454
26227W        W42361  14.016   8.570  11.441 -0.0856  0.0200  0.4720
26228W        W42362  14.624   8.661   3.064 -0.1576 -0.1136  0.2458
26229W        W42363  12.988   1.904   3.094  0.3228  0.0821 -0.1597
26230W        W42364  16.998  16.876   2.846 -0.0053  0.1596  0.1181
26231W        W42365  11.089   2.602  11.314  0.1352 -0.3348  0.2930
26232W        W42366  15.887  16.105   2.636  0.0346 -0.2394  0.0517
26233W        W42367   5.757  18.996   2.873  0.2647  0.1825  0.1354
26234W        W42368   8.937  10.910  11.637 -0.0163  0.1476 -0.1716
26235W        W42369   9.997   0.908   4.057  0.0227  0.1726 -0.2828
26236W        W42370   4.575  15.704   4.985  0.2752  0.0662 -0.0665
26237W        W42371  12.376   2.258  13.992  0.0716 -0.0889  0.1929
26238W        W42372   5.716   7.024  11.686  0.1766  0.0881 -0.0937
26239W        W42373   1.983  14.811   1.959 -0.3505  0.1122  0.2942
26240W        W42374   5.087  13.160   0.524  0.0930  0.0363  0.2252
26241W        W42375  10.901  12.978   2.330  0.2439  0.1972 -0.1841
26242W        W42376  17.714   5.225  11.221  0.0025 -0.0073  0.2770
26243W        W42377  15.925   5.672   2.034 -0.1845 -0.0395  0.2061
26244W        W42378  18.205   0.427  14.226  0.3171  0.2258  0.1490
26245W        W42379   0.331  12.257   2.746  0.2860  0.0564  0.1404
26246W        W42380  15.609   4.748   1.890  0.1993 -0.0972  0.1626
26247W        W42381  17.745   4.874   3.552  0.1547 -0.3981  0.0056
26248W        W42382   7.864  11.853   4.150 -0.2238  0.0318  0.0754
26249W        W42383   6.212   0.604   3.311  0.0357 -0.2494 -0.1510
26250W        W42384  11.802  15.934  14.862  0.1373  0.1562 -0.2587
26251W        W42385  13.997  14.831  13.404 -0.1960  0.1681 -0.1990
26252W        W42386   9.276   3.819   4.141 -0.0790  0.2514  0.0227
26253W        W42387  11.456   7.903   5.529 -0.1045  0.0105  0.1326
26254W        W42388  11.192  11.326   2.313 -0.0005  0.0602 -0.0081
26255W        W42389   1.789   4.000  13.703  0.0128 -0.0622 -0.0571
26256W        W42390   5.670  18.736  12.205  0.0634 -0.3148 -0.2037
26257W        W42391   3.210  14.091   4.608 -0.1630 -0.2196  0.4987
26258W        W42392   0.788   6.197  15.080  0.1112 -0.0225  0.2269
26259W        W42393   9.708   0.885  10.502  0.0473  0.0694 -0.0852
26260W        W42394   0.378   2.218   2.347  0.2945 -0.2329 -0.1213
26261W        W42395   2.778   5.083   0.576 -0.0417 -0.2844  0.0096
26262W        W42396  17.154  18.906  11.921  0.1215  0.1112  0.2673
26263W        W42397   2.328   8.705  12.035 -0.2175  0.0246  0.0135
26264W        W42398  18.673  12.791  13.428 -0.0115 -0.4032 -0.2128
26265W        W42399  17.926  11.083   2.016 -0.1211 -0.1803 -0.1255
26266W        W42400   7.048  10.383   3.162  0.0076  0.0151 -0.0706
26267W        W42401  12.622   5.056  14.593  0.0560  0.1061 -0.0038
26268W        W42402  15.983  17.488  10.659 -0.0995  0.1326 -0.0594
26269W        W42403  10.570  16.781  12.720  0.1079 -0.1414 -0.1661
26270W        W42404   0.034  13.004   5.382  0.0390 -0.3985 -0.1389
26271W        W42405  13.030   8.854  11.130  0.0359  0.1554 -0.2139
26272W        W42406  18.759   4.502   4.336 -0.0457  0.2539  0.0751
26273W        W42407  12.553   6.527   3.980  0.1978  0.3763 -0.0394
26274W        W42408   3.033  13.022  10.505  0.3215  0.0011 -0.1561
26275W        W42409  15.194   4.266   4.539 -0.2826 -0.4158  0.1123
26276W        W42410   4.365   9.359  11.001  0.0621  0.1253 -0.1515
26277W        W42411  13.046  12.212  14.899 -0.2342  0.4796 -0.2033
26278W        W42412   1.201   5.372   1.021 -0.2822  0.2029  0.1651
26279W        W42413   6.140  18.399  14.712  0.0209  0.0212 -0.1074
26280W        W42414  17.509  12.397   3.476 -0.4019 -0.0352  0.2445
26281W        W42415  12.675  10.256   1.840 -0.2039 -0.0428  0.2400
26282W        W42416   7.058  14.864  10.846  0.3996  0.0655  0.0235
26283W        W42417  18.513  17.975  11.039 -0.2662 -0.0130  0.1413
26284W        W42418  13.189  14.506   3.156  0.0522 -0.1576  0.0624
26285W        W42419   0.290  11.620  12.151 -0.0151 -0.1775 -0.0148
26286W        W42420  14.291  13.412   4.822 -0.0503  0.0071  0.1287
26287W        W42421   5.555   2.110   1.586 -0.1181 -0.0161  0.3016
26288W        W42422   5.240   5.703  14.895 -0.4041 -0.0067 -0.0666
26289W        W42423  13.754  10.036  11.992  0.4534  0.1635  0.2170
26290W        W42424   9.712  10.694   3.685  0.0509  0.2155  0.0779
26291W        W42425   5.131  13.584   5.394 -0.1616  0.0323  0.0296
26292W        W42426   4.948   6.967  12.181 -0.1515  0.1018  0.0080
26293W        W42427  12.806   7.266  14.574  0.1664  0.0577  0.1261
26294W        W42428   3.714   4.688   4.001 -0.1543 -0.0945  0.0513
26295W        W42429   8.581  14.681   1.594  0.0338 -0.3328 -0.0626
26296W        W42430   3.707   3.316  14.927 -0.3670  0.0562  0.0914
26297W        W42431   5.896  12.147   4.733  0.0018 -0.1084  0.1791
26298W        W42432  14.454  16.021   4.212  0.0710  0.2619 -0.1164
26299W        W42433   1.725  10.294  15.151 -0.0406  0.2522 -0.0829
26300W        W42434   5.950   7.821   3.455 -0.0501  0.1713  0.3258
26301W        W42435  11.259   6.239  14.095  0.1484  0.0400  0.0809
26302W        W42436  10.191  12.522  11.127 -0.3026 -0.1858  0.1140
26303W        W42437   7.868   0.511  11.034 -0.0698 -0.2356 -0.4977
26304W        W42438  17.878   7.261   3.912 -0.1748  0.1888 -0.2436
26305W        W42439   6.489   4.192  14.563 -0.0445 -0.2906  0.2546
26306W        W42440  15.052  13.096  13.557 -0.2460 -0.1169 -0.2017
26307W        W42441  18.949   0.025  11.179 -0.2412  0.1859  0.0542
26308W        W42442  10.179  16.053   5.034  0.3157 -0.2513 -0.3158
26309W        W42443   8.110   3.565  12.942  0.1322  0.3413 -0.3781
26310W        W42444  11.959   7.825   0.087  0.4287 -0.1478 -0.0126
26311W        W42445  18.639   9.057  14.305  0.1818 -0.1657 -0.0959
26312W        W42446  13.461  18.094   1.120 -0.1031  0.1744 -0.0385
26313W        W42447  17.206   1.350   1.812 -0.0358  0.0174 -0.0154
26314W        W42448   6.613   4.400  11.856 -0.1221  0.0018 -0.1291
26315W        W42449   3.708  19.121   2.118 -0.0670  0.5213  0.1914
26316W        W42450  15.991   7.776  11.478  0.1387 -0.2387 -0.1788
26317W        W42451   6.655  18.580  11.964 -0.1538 -0.3712 -0.0062
26318W        W42452  14.039   0.837   3.882  0.0169  0.1474  0.1393
26319W        W42453   8.335  13.654  13.055 -0.0538  0.3176 -0.1221
26320W        W42454  13.267   6.417  11.848 -0.1306  0.0838  0.1617
26321W        W42455   7.247   1.508   2.890  0.1403  0.2108 -0.0054
26322W        W42456  15.217   9.718   2.181 -0.1700 -0.0062 -0.0564
26323W        W42457   4.298  19.099   2.669 -0.1474  0.0583  0.4692
26324W        W42458  16.438  16.252  11.727 -0.4462  0.5174  0.2423
26325W        W42459  11.490  13.628   1.621  0.0471 -0.0423 -0.0393
26326W        W42460  17.476   2.194  12.823  0.3415  0.3865 -0.4022
26327W        W42461   6.323  15.876   4.523  0.2315 -0.2839 -0.2643
26328W        W42462   5.044  16.041   3.402  0.0075  0.1214  0.1358
26329W        W42463   6.155  15.583   3.550  0.4601 -0.0329 -0.1299
26330W        W42464   2.555   5.312   3.850 -0.2113  0.1172  0.0768
26331W        W42465   1.940  18.693   3.520 -0.0530 -0.1466  0.0785
26332W        W42466  11.436   5.643  13.974 -0.0492 -0.0102 -0.2969
26333W        W42467   5.289   8.387   2.498 -0.0955  0.0516  0.1460
26334W        W42468   5.364   0.544   0.476 -0.0653  0.0135  0.3571
26335W        W42469   9.773   8.398   3.793 -0.0783 -0.0254  0.2042
26336W        W42470  12.087   9.367   3.175  0.0527  0.0403 -0.0661
26337W        W42471  16.391   5.217   4.008 -0.0989 -0.1890  0.0260
26338W        W42472   3.418  12.402   0.748 -0.1237  0.1156 -0.0868
26339W        W42473   7.899  13.144   2.484  0.0115  0.1005  0.1915
26340W        W42474   9.801   0.614   2.256 -0.4536  0.2012  0.0851
26341W        W42475   0.787  10.084  11.141 -0.2080 -0.2539  0.1067
26342W        W42476   9.030   7.518   0.460  0.0935 -0.0966  0.0456
26343W        W42477   4.872   8.138   3.406  0.1415  0.2155  0.1748
26344W        W42478   3.755  18.137  14.420  0.1967 -0.0523  0.0793
26345W        W42479   1.690  16.774  11.683 -0.2954 -0.0422  0.3204
26346W        W42480  14.663   5.900  15.129  0.0193  0.0713 -0.0497
26347W        W42481   6.577  16.990  14.752  0.1401  0.3791 -0.0614
26348W        W42482   5.440   4.146   2.207 -0.4188  0.2190  0.1641
26349W        W42483  15.741  16.069  10.620 -0.1698  0.0242  0.1532
26350W        W42484   1.326  19.086   9.892  0.4241  0.0053 -0.4384
26351W        W42485   4.263   2.731   4.059 -0.3997  0.4281  0.0413
26352W        W42486  14.053  10.214  11.512 -0.0773  0.2956 -0.0727
26353W        W42487   9.479  10.372   2.763 -0.0550  0.2031 -0.1668
26354W        W42488  17.484  17.728   2.782 -0.0733  0.4692 -0.0250
26355W        W42489  13.301  11.197  12.095 -0.3811  0.0843  0.4659
26356W        W42490  12.735   3.707   1.968 -0.1738 -0.2422  0.3312
26357W        W42491  14.243  10.158   4.431  0.1217  0.2032 -0.3076
26358W        W42492   9.619   2.231   5.562  0.2391  0.1731 -0.1943
26359W        W42493   3.412   3.261   2.378  0.1276  0.2230 -0.0709
26360W        W42494   6.923   8.423  11.931 -0.0316  0.0295  0.0719
26361W        W42495   3.423   7.519   4.831 -0.1495 -0.0299  0.2545
26362W        W42496  11.733   9.689   0.034  0.3900 -0.0016 -0.2738
26363W        W42497   9.893  10.825   1.215  0.1001 -0.0024  0.0335
26364W        W42498  14.308  17.108   4.199 -0.2842 -0.1275 -0.1631
26365W        W42499   6.047   0.848   5.033 -0.1100 -0.1156 -0.0340
26366W        W42500  14.767   5.007   4.422  0.3075  0.0227  0.1605
26367W        W42501   4.910  16.392   0.476 -0.2224 -0.0524  0.0458
26368W        W42502   1.734  16.701   1.344 -0.0216 -0.3085 -0.0709
26369W        W42503  17.309  16.603   1.146  0.0034 -0.1486 -0.0242
26370W        W42504  12.790   8.307   3.766  0.1788  0.1115  0.2783
26371W        W42505  18.564  14.334  13.895  0.2998  0.1915  0.2410
26372W        W42506   7.490  13.063   5.007 -0.1821 -0.1707  0.2291
26373W        W42507   2.588   6.430   2.683  0.0579  0.2569 -0.2023
26374W        W42508  11.154  13.948  15.197  0.2450 -0.1500 -0.1237
26375W        W42509  18.693  16.858   2.861  0.1909 -0.3451 -0.0321
26376W        W42510  17.599   7.834  14.709  0.2240 -0.0765 -0.1546
26377W        W42511   7.601   9.638   4.501 -0.0748 -0.0689 -0.0269
26378W        W42512   0.038  14.118   4.636  0.0124  0.0853 -0.1028
26379W        W42513   9.770  14.760   4.496  0.1477 -0.1647  0.0412
26380W        W42514  16.202  17.584   1.441 -0.1402 -0.0453 -0.0961
26381W        W42515  17.437   2.724  14.118  0.1261  0.0977 -0.1043
26382W        W42516  15.586   8.662   4.739 -0.0386 -0.0152 -0.0784
26383W        W42517   9.051  15.774   2.525  0.1959 -0.2951  0.2404
26384W        W42518   9.585   0.127  12.030 -0.0281 -0.4327 -0.3645
26385W        W42519   8.209   7.508   0.869  0.0633  0.1115 -0.2340
26386W        W42520   4.827   1.115   2.182 -0.3287 -0.1936  0.1963
26387W        W42521  10.889   7.970   4.554 -0.1962  0.4442  0.0345
26388W        W42522  18.717  11.599   2.691 -0.1732  0.1708 -0.0983
26389W        W42523  18.054  17.931  13.273 -0.0457 -0.1944 -0.1657
26390W        W42524   5.783  16.437  14.915  0.1421 -0.2917  0.0086
26391W        W42525  13.333  12.134  11.191 -0.0903 -0.1457  0.5881
26392W        W42526  14.538  13.891  12.735 -0.0001  0.2933 -0.1150
26393W        W42527  13.643  12.877  13.388  0.3699  0.2414  0.0442
26394W        W42528  12.330   6.815  13.930  0.1580 -0.1494 -0.2507
26395W        W42529  16.153  17.925   3.411 -0.3847  0.0501  0.2225
26396W        W42530  18.734  12.886  10.523  0.1203 -0.0218  0.2193
26397W        W42531  14.283   3.236  12.791  0.0558 -0.1898  0.4334
26398W        W42532   1.199  18.780   4.092  0.1068 -0.1397 -0.3555
26399W        W42533   4.026  17.154  14.650 -0.2094 -0.1408 -0.0506
26400W        W42534  11.583  18.588  13.796  0.0643 -0.2812  0.0878
26401W        W42535  15.341  18.028  14.478  0.0102  0.3051  0.1415
26402W        W42536  15.918   1.956  11.137 -0.3836  0.3383 -0.3494
26403W        W42537   8.006   1.853   2.917 -0.2726  0.0772  0.2196
26404W        W42538  13.955  17.615  13.386  0.0145 -0.1704 -0.2357
26405W        W42539  16.090   6.667   1.852 -0.0835  0.1296 -0.3317
26406W        W42540  10.303   9.483   3.741  0.1802  0.2115  0.3863
26407W        W42541  13.097  17.299  10.668 -0.1979 -0.0334 -0.0470
26408W        W42542   7.247   8.661  11.501  0.0593  0.1730  0.5992
26409W        W42543   2.989  13.392   2.534  0.1749  0.2317  0.0900
26410W        W42544  18.181  17.388  14.980  0.0048 -0.0037  0.0040
26411W        W42545   2.973   5.996   1.873  0.0600 -0.3299 -0.0704
26412W        W42546  16.767  16.772  10.467 -0.0071 -0.1221  0.2164
26413W        W42547  19.148   6.274   2.036  0.1230  0.0486  0.0380
26414W        W42548  12.777   4.862   3.658 -0.1051  0.0072  0.2600
26415W        W42549   2.315   5.201   0.263 -0.2992 -0.1673  0.3475
26416W        W42550   1.688  11.530  13.567  0.0173 -0.4098 -0.3384
26417W        W42551  17.891  18.377   3.096  0.1919  0.1781  0.1495
26418W        W42552  17.464  18.258   2.762 -0.1154  0.0007  0.2139
26419W        W42553  18.829   6.110  10.449 -0.1529 -0.0028  0.0295
26420W        W42554  18.276   2.009   1.114 -0.0945 -0.1033  0.0562
26421W        W42555  15.570   9.271  14.426  0.1496  0.0194 -0.0138
26422W        W42556   4.495  13.894  13.286  0.0145  0.1474 -0.0364
26423W        W42557  10.379   6.546  14.415 -0.1699  0.1808  0.0854
26424W        W42558  13.796   5.831  13.646 -0.1829 -0.3548 -0.1001
26425W        W42559  14.365   4.180  11.487 -0.0196 -0.0717  0.1131
26426W        W42560  12.024  18.951   9.810 -0.2662  0.2178  0.1135
26427W        W42561   9.581   3.187   1.781 -0.1005 -0.1146  0.0576
26428W        W42562  13.350   3.228  11.275  0.2583  0.0448 -0.2001
26429W        W42563   0.493  11.640  14.690  0.2391 -0.1020 -0.0820
26430W        W42564   0.783  11.383  12.191 -0.1642 -0.0915  0.0786
26431W        W42565  11.129   5.395   3.350  0.0296 -0.3272 -0.2142
26432W        W42566   4.395   9.920  13.549  0.0251 -0.0126  0.1193
26433W        W42567   6.101   3.327   2.757 -0.1559 -0.0311 -0.2301
26434W        W42568  15.271   1.375   0.195  0.0047  0.2730  0.0943
26435W        W42569  12.168  16.034  11.707  0.0048 -0.0179  0.0400
26436W        W42570  11.256  15.055  11.253  0.1269  0.0941  0.0079
26437W        W42571  14.374  19.046   3.097  0.1566  0.1473 -0.0605
26438W        W42572   0.846   9.487   4.491  0.2823  0.2885  0.0506
26439W        W42573   0.805   6.662  11.532  0.1722  0.3523 -0.0060
26440W        W42574  12.814  13.862  14.365 -0.1198  0.1642 -0.3249
26441W        W42575  10.079  11.413   4.359  0.5187  0.0651 -0.0170
26442W        W42576  13.220  11.304   3.421  0.3980 -0.1216  0.0348
26443W        W42577   1.214   6.086  10.883  0.1747  0.0631 -0.2106
26444W        W42578  10.611   8.499  10.979  0.2974  0.1270  0.4538
26445W        W42579   1.594  15.398  14.649  0.0369 -0.0224 -0.0551
26446W        W42580  12.287  16.463  11.416  0.3025 -0.0243 -0.2876
26447W        W42581  14.985   2.153  14.109 -0.0630 -0.1298  0.0471
26448W        W42582   9.663   2.377   4.884  0.1308 -0.3659 -0.1296
26449W        W42583   7.515   8.768  12.846 -0.4050 -0.0363 -0.0123
26450W        W42584  10.167   1.529   0.225  0.0126  0.1235 -0.1535
26451W        W42585  17.047  12.099  11.359 -0.4159  0.0213  0.1980
26452W        W42586  16.685  15.402   1.455 -0.0033  0.0308  0.0024
26453W        W42587   4.769  12.836   3.206 -0.0862 -0.4506  0.0537
26454W        W42588   2.714   2.912   0.615  0.1286  0.3767  0.0574
26455W        W42589  12.780   3.583   5.225  0.0680  0.4583  0.4138
26456W        W42590   7.795  14.950   0.791 -0.1390  0.2980  0.1171
26457W        W42591  16.311  18.672  11.610  0.0163  0.1324  0.1588
26458W        W42592   5.345  15.266  12.153  0.0613 -0.1072  0.0060
26459W        W42593   5.664  16.604  14.423  0.2038  0.0656  0.2050
26460W        W42594  11.696   7.201   2.912  0.1351 -0.0071  0.0563
26461W        W42595  15.528   7.488  10.226  0.0969  0.3260  0.0184
26462W        W42596  17.585   5.392  10.727  0.1046  0.0907 -0.0261
26463W        W42597   3.873   5.287  12.976  0.0019  0.1452 -0.0787
26464W        W42598  10.566   4.842   1.163 -0.1866  0.2350  0.6383
26465W        W42599   6.971   5.204   3.403 -0.0796 -0.1725  0.0062
26466W        W42600  17.478  17.284  11.152  0.2182 -0.2099 -0.0320
26467W        W42601   1.442   1.775  13.443  0.1041  0.1051  0.2069
26468W        W42602   4.611  18.399   3.067 -0.2051  0.2872  0.0464
26469W        W42603  13.157  11.237   1.648 -0.1386  0.2644 -0.3294
26470W        W42604   3.511  12.069   0.322  0.1897  0.2198 -0.0083
26471W        W42605   2.095   7.868  11.026  0.0763 -0.4213  0.0617
26472W        W42606  11.478   2.172  13.100  0.0648 -0.2898  0.0912
26473W        W42607   7.043  16.661  10.403  0.0829 -0.1813  0.1110
26474W        W42608   9.511  10.316   4.788  0.0946  0.2286 -0.2083
26475W        W42609  18.774   8.532  10.582  0.1590  0.0867 -0.2994
26476W        W42610   7.371   9.834  12.223 -0.1563 -0.1961 -0.0666
26477W        W42611   6.316  15.728  13.508 -0.0091  0.1166  0.3454
26478W        W42612   2.259   5.983   2.904  0.0637  0.1321  0.2250
26479W        W42613  16.592  12.605   1.294 -0.0033  0.0216  0.0859
26480W        W42614   2.361   6.711   1.991  0.0308  0.1190 -0.0688
26481W        W42615   2.896  12.372   1.463  0.0065 -0.0054 -0.0625
26482W        W42616   9.065  16.549  10.903  0.0541 -0.1192  0.4041
26483W        W42617   3.921   8.868  14.658 -0.0594 -0.0188  0.0033
26484W        W42618   8.368   2.307  10.738 -0.1240 -0.0836  0.1392
26485W        W42619  14.754  17.535   1.186 -0.2335  0.0532  0.2063
26486W        W42620   5.010  17.389  13.437 -0.1016  0.0992  0.3255
26487W        W42621  13.633   3.211   1.871  0.1002  0.2183  0.2150
26488W        W42622  18.191  10.852  11.993  0.1517 -0.0206  0.2483
26489W        W42623   1.580   4.439  11.051  0.1336  0.2055 -0.0007
26490W        W42624   7.484  13.572   4.183 -0.0454  0.4437  0.0245
26491W        W42625   9.901  14.447  10.662  0.2086 -0.1803  0.0551
26492W        W42626  18.854   8.059   1.563  0.0600  0.1768  0.0857
26493W        W42627  11.388  18.402  11.735 -0.0549 -0.1204 -0.1464
26494W        W42628   9.600  14.588  11.001  0.2565 -0.1115  0.0226
26495W        W42629  18.935  17.569  12.565  0.1775 -0.1253 -0.1832
26496W        W42630  13.558   3.274   2.378 -0.1196 -0.0664 -0.0373
26497W        W42631  13.110  11.230  14.415  0.1504 -0.1668  0.0608
26498W        W42632   5.399  16.807  14.754  0.2215 -0.1501 -0.0635
26499W        W42633  15.190   8.206  13.999  0.2418  0.2110  0.4403
26500W        W42634  16.395   1.297   1.043 -0.2585 -0.0881 -0.1964
26501W        W42635  10.819  14.380  14.396 -0.2641 -0.2492  0.2518
26502W        W42636  10.046   9.638   2.257  0.2414 -0.4163  0.2332
26503W        W42637   0.866   8.108  12.147  0.0820  0.1342 -0.2155
26504W        W42638  15.291   4.113   1.233  0.2291  0.0731  0.0574
26505W        W42639   7.785  11.997  10.034 -0.2076  0.0740  0.0115
26506W        W42640  11.440  11.587   0.142 -0.0643 -0.3311 -0.0557
26507W        W42641   1.134   5.022  12.765  0.1680  0.2667 -0.0463
26508W        W42642   6.673   1.016  15.180 -0.1647 -0.1016 -0.1216
26509W        W42643   9.618   4.144   4.400  0.0963  0.1559 -0.0469
26510W        W42644  17.763  18.392  11.497  0.1901 -0.0011 -0.0195
26511W        W42645  16.382   0.626   3.097 -0.2902 -0.1198 -0.0230
26512W        W42646   6.627  12.914  12.888  0.1522 -0.0892 -0.1669
26513W        W42647   2.338   2.846  14.323  0.1061 -0.3714  0.1453
26514W        W42648  14.573   6.753   0.780  0.2498 -0.2906 -0.1863
26515W        W42649   5.788   7.385   0.214 -0.0419  0.2659 -0.4905
26516W        W42650   9.212   8.535   3.217  0.0413 -0.2316  0.3016
26517W        W42651  17.806   8.392  10.807  0.4890 -0.1202  0.0508
26518W        W42652   7.388   3.154   5.448  0.0506 -0.0974 -0.0644
26519W        W42653   6.477   5.838  10.438  0.1888 -0.0115 -0.1080
26520W        W42654  14.613  11.372  10.591  0.2954 -0.0888  0.1103
26521W        W42655  14.848  16.667  12.368  0.0131 -0.0710 -0.1039
26522W        W42656   1.838   5.376   5.112  0.0812 -0.0320 -0.0843
26523W        W42657  18.751   3.734   3.234 -0.0750 -0.1915  0.4614
26524W        W42658  16.326   1.763   1.224  0.1962 -0.1069  0.1118
26525W        W42659  13.684  11.530   3.469  0.2269 -0.1079  0.0839
26526W        W42660   3.191  14.728  13.385 -0.2766 -0.0924  0.0129
26527W        W42661   9.439   0.042   0.418 -0.0138  0.0962  0.0341
26528W        W42662   1.771  11.132  12.791  0.2267 -0.1368 -0.0257
26529W        W42663   0.987   7.666  13.023 -0.2944 -0.1261 -0.2684
26530W        W42664   5.515   3.280  14.932  0.2361 -0.0362  0.0306
26531W        W42665  13.196  19.003   1.390 -0.0659 -0.1089  0.0340
26532W        W42666  16.402   5.644   2.232 -0.0357  0.2543  0.1338
26533W        W42667  18.873   0.244   0.834  0.1391 -0.1640 -0.0574
26534W        W42668  15.916  15.217   4.933 -0.0838 -0.0269 -0.1468
26535W        W42669   5.438  18.593  10.347  0.2319  0.0802  0.0095
26536W        W42670  10.692   5.846   0.752  0.0082 -0.1788  0.0761
26537W        W42671  18.278   1.314   2.496 -0.0709 -0.1711  0.0023
26538W        W42672   5.418  13.461  11.879 -0.0665  0.1135 -0.1565
26539W        W42673   8.377   5.586  13.962  0.0270 -0.0414  0.0411
26540W        W42674   7.313   5.492  11.217  0.0265  0.0377 -0.1460
26541W        W42675   4.815   4.872  14.745  0.1813 -0.1194  0.3827
26542W        W42676   5.030  16.617   2.701  0.3004 -0.0061 -0.1159
26543W        W42677  13.363   7.335   1.372 -0.1410  0.1578 -0.2330
26544W        W42678   3.680   2.027  11.373 -0.2619 -0.0928  0.0902
26545W        W42679   1.681   5.142  12.944  0.1560  0.1516  0.1443
26546W        W42680   7.284  17.735  14.674  0.1494 -0.0475 -0.4770
26547W        W42681  14.749  16.295   3.590  0.2321 -0.0020  0.4433
26548W        W42682   1.906   3.540  15.018 -0.1723  0.0924 -0.1195
26549W        W42683  10.677  14.265   1.004  0.3434 -0.0047  0.1184
26550W        W42684   2.071   5.121   4.540  0.1208  0.0268 -0.1811
26551W        W42685  13.940   5.163   4.763  0.2534 -0.0611  0.3440
26552W        W42686   2.469  16.020  14.714  0.0250  0.0446 -0.1034
26553W        W42687   3.178   9.606  11.967 -0.1705 -0.1113  0.2098
26554W        W42688  16.105  11.330   0.931  0.0270  0.1774  0.1935
26555W        W42689   3.264  15.443  12.858  0.1543  0.1888 -0.1636
26556W        W42690   1.799   2.165  12.464 -0.1791 -0.0649 -0.0656
26557W        W42691  18.746   2.166   0.002  0.0255  0.3216  0.0952
26558W        W42692   0.569  17.666   2.858  0.0882 -0.0677  0.4758
26559W        W42693   2.552  18.835  11.953 -0.5370  0.2404  0.4630
26560W        W42694   0.352   7.863   4.855  0.0228  0.3698  0.2011
26561W        W42695  12.466   6.933  14.917 -0.3608  0.4130  0.0486
26562W        W42696   7.001   4.087  13.116  0.2546  0.1679 -0.0962
26563W        W42697  14.669   5.984   2.538  0.1083  0.0986 -0.1859
26564W        W42698   3.854   7.034  14.240  0.1195 -0.1200 -0.0634
26565W        W42699  16.659  14.134  14.920  0.3295  0.2157  0.4476
26566W        W42700   2.345   0.081  11.366  0.1030  0.2914 -0.1626
26567W        W42701   9.062  18.483  14.743  0.2097 -0.0965  0.1507
26568W        W42702  12.837   5.858  10.960 -0.0677 -0.1103  0.0412
26569W        W42703  10.030   9.842   3.951  0.0688  0.0518 -0.2109
26570W        W42704  16.471   2.960   2.432 -0.0612  0.1241 -0.1729
26571W        W42705  14.993   6.359  12.653  0.1077  0.0023  0.1245
26572W        W42706   3.775   7.496  14.004  0.0530 -0.1120 -0.2202
26573W        W42707   2.769   5.194  13.843  0.0653  0.2594 -0.5940
26574W        W42708   9.951  16.380  14.309 -0.2661 -0.0204  0.2645
26575W        W42709  16.560  10.933  12.951  0.3109  0.1433  0.0026
26576W        W42710   4.264   9.560  14.178  0.1010  0.0278  0.0418
26577W        W42711  16.142  13.507  10.972  0.0899 -0.1654 -0.2205
26578W        W42712  13.139  10.475   1.785 -0.1084  0.1292 -0.1383
26579W        W42713  13.016   3.416  13.613  0.1966 -0.0448 -0.0803
26580W        W42714   2.684  15.660   4.249  0.3637  0.0866  0.1620
26581W        W42715   3.622  17.823   0.316 -0.1503 -0.0953 -0.1211
26582W        W42716   8.745   5.659  13.560  0.3065  0.4507 -0.1395
26583W        W42717   3.179  12.417   0.215 -0.0705  0.5558  0.1994
26584W        W42718  18.855  13.822   3.652  0.3714  0.1394  0.0431
26585W        W42719  19.102   5.544  13.983  0.1965 -0.0336  0.0270
26586W        W42720  13.412  14.991   0.991 -0.0019  0.1102 -0.2383
26587W        W42721   5.968   8.659  12.818 -0.1966 -0.0398  0.1329
26588W        W42722  18.321   0.372  11.558  0.3361 -0.1001  0.0017
26589W        W42723  13.004   4.488  14.548 -0.0112  0.1818 -0.4764
26590W        W42724   2.087  16.905   1.724  0.0370  0.0921  0.0132
26591W        W42725  10.059   2.667   5.049 -0.0105 -0.0650  0.1158
26592W        W42726   7.983   5.481  11.172 -0.0268  0.2012  0.3542
26593W        W42727  14.170   4.839   1.236  0.1143 -0.2132 -0.0763
26594W        W42728   7.399  17.369   2.763  0.3582 -0.1837  0.1530
26595W        W42729   1.827   6.771  11.929  0.0211 -0.1615  0.1579
26596W        W42730  13.134  16.539   3.162  0.0049 -0.1369 -0.1097
26597W        W42731   1.767   5.671  10.365  0.0032  0.0670 -0.0501
26598W        W42732  17.508   8.292  13.753  0.2381 -0.0801  0.0199
26599W        W42733  12.789   2.670   4.509 -0.0180 -0.3654  0.0204
26600W        W42734   9.323  11.920   2.333 -0.0186 -0.0364  0.1196
26601W        W42735  15.560   1.057  11.433 -0.0862  0.0905  0.0256
26602W        W42736   2.499  11.048  13.460  0.1341 -0.0987  0.0288
26603W        W42737   8.273   3.237   1.025 -0.0487  0.3302 -0.1233
26604W        W42738  11.291   0.058   4.920  0.2561  0.0905 -0.4926
26605W        W42739   1.427   6.452   4.225  0.1393  0.0912  0.1527
26606W        W42740  11.087   0.266   9.531  0.0725  0.1501 -0.1969
26607W        W42741  14.315  15.391   2.831  0.1686 -0.0480 -0.1408
26608W        W42742   5.641   1.999   3.077 -0.0438  0.0197 -0.3363
26609W        W42743  13.852   1.817   1.803  0.3693  0.0961 -0.0664
26610W        W42744  10.553   1.321  13.568  0.1532  0.3271  0.0935
26611W        W42745  18.184   5.499  14.442  0.0768  0.2000  0.1846
26612W        W42746   4.468   5.944   3.961 -0.1740  0.1108 -0.0334
26613W        W42747   0.722   3.766   0.389  0.2082 -0.2092  0.1377
26614W        W42748  14.390   4.030   9.843 -0.1479  0.0519  0.5182
26615W        W42749   1.970  12.160   2.078  0.4541  0.0886 -0.1316
26616W        W42750  12.910   0.440  13.997  0.0415 -0.3131 -0.1468
26617W        W42751   9.173   3.459  11.573 -0.0556 -0.1192 -0.1968
26618W        W42752   4.363   0.656  11.189 -0.2288 -0.0793  0.0667
26619W        W42753   1.244  18.839   1.267  0.1433  0.2225  0.1920
26620W        W42754  16.412  18.523  12.722 -0.1565  0.3182 -0.0906
26621W        W42755  12.842  15.310   1.847 -0.3411 -0.3498  0.1367
26622W        W42756  18.274  11.370  10.909  0.1942  0.1063  0.4232
26623W        W42757  14.403   9.544  10.765  0.0223 -0.0158 -0.0998
26624W        W42758   3.601   8.125   2.371  0.0362  0.1289  0.0360
26625W        W42759   1.462   4.632  12.037  0.4801 -0.1064 -0.0338
26626W        W42760   9.597  14.505  11.885  0.1974 -0.0035 -0.1248
26627W        W42761  14.805  12.755   3.698 -0.2397  0.1621 -0.3849
26628W        W42762   2.495   6.592   3.648 -0.1492 -0.1496  0.1905
26629W        W42763  17.808  11.842  11.678 -0.2386 -0.0754  0.0939
26630W        W42764  17.402  17.658  14.380  0.1054  0.2396  0.0124
26631W        W42765  11.726   1.401   0.293  0.1540 -0.3525 -0.3047
26632W        W42766   1.216  17.466  12.325 -0.1365  0.0656  0.0245
26633W        W42767   2.143  10.010  11.105 -0.1058  0.1658  0.4540
26634W        W42768   4.481  15.953  11.875  0.0366 -0.4650  0.2810
26635W        W42769   5.209  13.435  14.374  0.1007 -0.1012  0.1670
26636W        W42770   1.876   8.834   1.906 -0.0068  0.0073  0.2058
26637W        W42771  12.388   5.567  10.709  0.2007 -0.1080  0.0006
26638W        W42772   0.049   6.367  10.743  0.0920 -0.2534 -0.2818
26639W        W42773  13.351   2.538  14.560  0.3959 -0.1749  0.4467
26640W        W42774  18.053  18.760   5.400  0.1112  0.0188 -0.0936
26641W        W42775  18.077   7.037  12.299 -0.1104  0.0491 -0.0304
26642W        W42776  11.560  12.282  12.221 -0.3860  0.2275  0.0238
26643W        W42777  15.471  11.068   2.286  0.1374  0.1780 -0.2632
26644W        W42778   5.045   0.200   3.367 -0.3455  0.3042  0.1717
26645W        W42779  15.227   9.683  14.405 -0.1030  0.1314  0.2755
26646W        W42780   5.269  18.630  13.463 -0.0139  0.0249  0.0325
26647W        W42781   7.038  18.283   5.708  0.0224 -0.4404  0.2164
26648W        W42782   1.208   6.993  11.399 -0.1543  0.1920 -0.2276
26649W        W42783   5.439  18.915  13.878 -0.0155  0.1994 -0.2357
26650W        W42784  17.742   9.962   3.823  0.2816  0.3355  0.2263
26651W        W42785   9.568  11.081   5.386  0.4118  0.1360  0.0748
26652W        W42786   0.595  11.526   2.819 -0.1427 -0.0064  0.2458
26653W        W42787  13.958   5.272  14.864  0.1887  0.0134 -0.0393
26654W        W42788   8.887   7.249  13.404  0.2804 -0.2470 -0.0609
26655W        W42789  12.580  17.105  14.438 -0.1182  0.1566  0.1916
26656W        W42790   5.437  12.394  13.811  0.2691 -0.3017 -0.0721
26657W        W42791   9.036  12.595  12.420 -0.0950  0.2199 -0.2329
26658W        W42792  14.801   6.192  14.160 -0.0402  0.1881 -0.0814
26659W        W42793   5.630  15.885   1.247  0.0838 -0.1157  0.2792
26660W        W42794  16.309   9.888   2.084  0.0034  0.0334 -0.1832
26661W        W42795   3.652   8.370   3.542  0.1667  0.0276 -0.0789
26662W        W42796  13.777  11.794  13.701  0.1940  0.3343 -0.0015
26663W        W42797   4.199   1.164  11.124 -0.2643  0.1353  0.0302
26664W        W42798  18.102  14.810   2.610  0.0409  0.0427  0.2551
26665W        W42799   9.868  14.150  14.121  0.3277  0.3970 -0.1405
26666W        W42800   1.784  10.704   3.108 -0.0085 -0.0167 -0.1946
26667W        W42801   6.985   1.783   2.546 -0.0127  0.1742 -0.2590
26668W        W42802   9.590   0.633  15.062 -0.2637  0.1220  0.0594
26669W        W42803  18.608   5.943  13.466 -0.1557 -0.5827 -0.0396
26670W        W42804  10.905   0.469   3.899  0.1318 -0.1797 -0.2880
26671W        W42805  11.116  14.488  11.305 -0.0003  0.1542  0.0069
26672W        W42806   8.458  11.351   4.586  0.3094  0.2482 -0.0628
26673W        W42807  17.951   3.592  12.540  0.0069 -0.1451  0.1562
26674W        W42808   2.342   0.102   2.334 -0.2668 -0.1455 -0.0008
26675W        W42809  10.058   9.603  11.813  0.3029 -0.0082  0.1497
26676W        W42810  13.528   6.827   3.591 -0.1527 -0.0157  0.1826
26677W        W42811   5.350   2.947  12.946 -0.0784 -0.2831 -0.1698
26678W        W42812   1.550  18.663   2.692  0.2219  0.0030 -0.0816
26679W        W42813  17.915   4.715   3.068 -0.2253  0.0663  0.0001
26680W        W42814   0.966   4.480   4.781 -0.1833  0.0827 -0.2082
26681W        W42815   9.141  18.272   1.367 -0.1005  0.1438 -0.3847
26682W        W42816  16.122  12.239   5.335  0.0428  0.1900  0.0533
26683W        W42817  11.193  12.034   4.761 -0.3794 -0.2617 -0.1606
26684W        W42818   2.655  18.919   2.119  0.2487  0.2192  0.2929
26685W        W42819  13.668  15.791  11.357  0.1056  0.2265 -0.2103
26686W        W42820   0.803   4.759  14.176  0.0510 -0.2253  0.0148
26687W        W42821   3.193   4.312   1.933  0.0461 -0.0655 -0.0180
26688W        W42822  14.085   4.140   0.743 -0.0603  0.0610 -0.2665
26689W        W42823  11.511   7.102   3.437 -0.0989  0.0084 -0.0676
26690W        W42824  12.803  12.846   4.465 -0.0253  0.3570 -0.0029
26691W        W42825   7.061  13.861   1.644 -0.2005 -0.0535  0.2036
26692W        W42826  17.517   8.427  12.435  0.1235  0.3505  0.1043
26693W        W42827  14.712  12.334   1.269  0.1494 -0.2153 -0.1518
26694W        W42828  14.878   3.360  14.744  0.0273  0.0961  0.2662
26695W        W42829  10.332   5.081  11.899  0.0810 -0.0508 -0.3211
26696W        W42830  15.132  13.361   3.248 -0.0427 -0.2754  0.2697
26697W        W42831   5.338   3.881   3.071  0.0623 -0.0704  0.0354
26698W        W42832  14.994   5.860  11.871  0.0800  0.2191 -0.1863
26699W        W42833  17.610   6.021   1.706 -0.0042 -0.0665  0.2120
26700W        W42834   8.127  12.893  14.897 -0.0788 -0.0093  0.1252
26701W        W42835   2.286   4.684   4.248  0.2671 -0.1904 -0.1034
26702W        W42836   0.754   0.397   3.951 -0.1916 -0.0547  0.0519
26703W        W42837  16.295   0.684   0.255  0.0054  0.0808  0.2452
26704W        W42838   2.992   5.650  15.012  0.0550  0.1552  0.0994
26705W        W42839   8.063   5.424   1.647  0.2412  0.0063 -0.1078
26706W        W42840   0.303   9.500  12.723  0.1265  0.1791  0.3148
26707W        W42841  13.915   9.159   3.352 -0.0278 -0.0096 -0.0011
26708W        W42842   6.344  12.162  10.693 -0.5540 -0.1280  0.1817
26709W        W42843  12.760  17.876  14.938  0.2553  0.2742  0.0990
26710W        W42844   8.589  16.179  13.214  0.1013  0.1182 -0.0926
26711W        W42845   0.686  18.970  15.188 -0.1834 -0.2757  0.3354
26712W        W42846   1.566   5.762   1.134  0.1719  0.4184  0.0891
26713W        W42847   3.637  18.648   3.810 -0.0565 -0.1608 -0.0608
26714W        W42848  14.067  13.738  11.282 -0.0752  0.0563 -0.1784
26715W        W42849  11.335   6.504   1.747  0.2767  0.1303 -0.4196
26716W        W42850  15.452   7.971  10.359 -0.0152 -0.0192  0.1134
26717W        W42851   9.089  16.397   1.382 -0.0986  0.0242  0.3473
26718W        W42852   5.833   1.413   0.404 -0.1297  0.4954 -0.2428
26719W        W42853  12.433  16.107   2.855  0.2361 -0.1590  0.1997
26720W        W42854  15.496  18.779  13.576 -0.2084  0.0175  0.3706
26721W        W42855  11.168  14.062   5.592  0.2037  0.1483  0.0846
26722W        W42856   8.536  12.182   1.297  0.0125 -0.0453 -0.0608
26723W        W42857   0.364  14.552   1.488  0.0858 -0.3460  0.1862
26724W        W42858   4.105   0.079   1.285 -0.1427 -0.0441  0.2976
26725W        W42859  18.718   5.855   5.173 -0.0330  0.0209  0.0450
26726W        W42860   9.955   6.965   3.754 -0.1445 -0.1775 -0.0718
26727W        W42861  10.457   0.707   3.658  0.1198  0.0990  0.3281
26728W        W42862  12.904   6.813  14.398 -0.1467 -0.2416  0.3098
26729W        W42863   5.337  16.509   2.215  0.0167 -0.0679 -0.3086
26730W        W42864   0.150  15.193   3.551 -0.0604  0.0287  0.0432
26731W        W42865   4.868  15.517   3.326 -0.1081 -0.2225  0.0730
26732W        W42866  18.718  12.130  10.816  0.0105 -0.0454 -0.1175
26733W        W42867  10.621  13.279   0.670 -0.0197 -0.1220 -0.0032
26734W        W42868   4.392  10.089  14.240  0.2214 -0.0932 -0.0959
26735W        W42869  16.444  15.243  13.313 -0.2447 -0.0432 -0.0952
26736W        W42870  17.914   2.211   0.060  0.1438 -0.2701  0.2178
26737W        W42871   5.240   0.847   5.006  0.1444 -0.2170  0.3862
26738W        W42872  12.672  14.026  13.786 -0.3747 -0.0764  0.1387
26739W        W42873   0.542   6.396   0.342  0.2736 -0.1515  0.2169
26740W        W42874  14.918   1.689   0.968 -0.1514 -0.4477 -0.3639
26741W        W42875   0.717   5.159  12.526 -0.1337 -0.1163 -0.2321
26742W        W42876  14.384   6.243  10.473 -0.1425  0.3404  0.1056
26743W        W42877   0.932  10.962  13.223 -0.1374  0.4038 -0.1513
26744W        W42878  13.472   8.509   2.036  0.1933 -0.3578  0.1510
26745W        W42879  10.605   3.493   1.687 -0.0880  0.0484 -0.0397
26746W        W42880   3.301  12.463   1.228  0.3265  0.0591  0.2908
26747W        W42881   6.008  15.612   2.456 -0.3201  0.2096  0.0378
26748W        W42882  14.407   7.335  15.156  0.0831 -0.0440  0.0382
26749W        W42883  18.159   5.676  13.962  0.0175 -0.3896  0.2708
26750W        W42884   7.437   9.768  11.747 -0.2004 -0.0376  0.1520
26751W        W42885   6.857  10.122   3.674 -0.1719 -0.0485  0.1220
26752W        W42886   4.620  13.386   3.095  0.3241 -0.1508  0.2273
26753W        W42887  11.261  10.233  11.257  0.1151 -0.2512  0.1810
26754W        W42888   9.602  15.284   0.371 -0.2725 -0.0664 -0.3468
26755W        W42889  15.284  10.891   0.685  0.1091  0.1271 -0.0793
26756W        W42890   8.245   0.315   0.216 -0.0103  0.3517  0.0186
26757W        W42891   8.583  17.669  13.718 -0.1921 -0.1949  0.2550
26758W        W42892   2.939  16.143  14.625 -0.0427  0.1701  0.1016
26759W        W42893   5.822  18.197   4.902  0.1950  0.2146 -0.1074
26760W        W42894   9.774  12.522   1.060  0.1238  0.1173 -0.2507
26761W        W42895  17.011   9.887   4.725  0.1458  0.4041 -0.2214
26762W        W42896  14.574   2.968  11.173  0.0899 -0.1528  0.1324
26763W        W42897   1.522   7.644   5.184 -0.1139  0.1921  0.1041
26764W        W42898   2.694  17.978   4.782  0.2559 -0.2652  0.0213
26765W        W42899   0.166  13.134  13.157  0.1098  0.0623 -0.2270
26766W        W42900  14.902  18.004   1.318  0.2360  0.0324  0.2522
26767W        W42901  13.689   8.096   4.627  0.4223 -0.1495 -0.1560
26768W        W42902  10.484  14.110  12.105 -0.1218  0.1881 -0.2239
26769W        W42903  18.985   9.850  14.318 -0.0193 -0.2365  0.2536
26770W        W42904  12.574  13.393   9.458 -0.0943  0.0952  0.4743
26771W        W42905   6.436  11.975  12.897 -0.0475  0.2145 -0.0852
26772W        W42906   3.474  15.154   4.629 -0.0825 -0.0376  0.0780
26773W        W42907  14.973   5.917  12.914 -0.2229  0.4599 -0.0030
26774W        W42908   0.783  12.270   2.480  0.0267 -0.1423  0.0119
26775W        W42909  11.684   4.167  13.381  0.1532  0.2016  0.0954
26776W        W42910   2.062  14.671  10.762  0.2101  0.1029 -0.1184
26777W        W42911   7.960  16.585   1.926  0.0002  0.0965 -0.0583
26778W        W42912  18.501  17.306   4.089  0.1107 -0.1114 -0.0150
26779W        W42913   1.632  12.276   4.230  0.0129  0.1320  0.1701
26780W        W42914   1.838  19.145  11.358  0.2045  0.3474  0.3146
26781W        W42915  13.869  15.936   1.877 -0.3979 -0.2479 -0.2387
26782W        W42916  14.882   0.591  11.080  0.1118 -0.1864 -0.0126
26783W        W42917   6.574   0.574   4.994 -0.5636  0.0334  0.0427
26784W        W42918   8.653   1.788   2.991 -0.1719  0.1249 -0.0694
26785W        W42919   1.654   7.728  13.624  0.0120 -0.0831  0.0368
26786W        W42920   6.942  11.541   1.636 -0.0173 -0.0270 -0.1302
26787W        W42921   0.900   7.435  14.615 -0.1636  0.2109  0.0299
26788W        W42922   1.401  13.418  12.696  0.0738  0.0170 -0.2058
26789W        W42923   2.366   4.250  10.659  0.4570  0.0429  0.0172
26790W        W42924  17.548  13.720   2.312 -0.2086 -0.1297  0.4520
26791W        W42925   1.033   3.644   1.873  0.0319 -0.0589  0.0523
26792W        W42926   9.915  19.134   1.107  0.0656 -0.1957 -0.0665
26793W        W42927  17.411  16.730  11.524 -0.0403  0.0072  0.0502
26794W        W42928  10.223  13.806  14.135 -0.2489  0.0454  0.2458
26795W        W42929   3.977   6.026  13.580 -0.0722 -0.1798  0.0078
26796W        W42930  17.690   2.895  11.892 -0.1296 -0.3145  0.0448
26797W        W42931  15.843   0.320   2.404 -0.1697 -0.2764  0.2618
26798W        W42932  13.868  13.654   4.484  0.0874 -0.0686  0.2314
26799W        W42933   4.833  10.235   4.668  0.1410  0.0362  0.1331
26800W        W42934  11.633  11.184   3.200  0.2917  0.0965 -0.0952
26801W        W42935   4.435  10.266  11.656  0.1820  0.0268  0.1822
26802W        W42936  16.317  14.285  13.598  0.3530  0.0154  0.1291
26803W        W42937  14.281   5.920  14.134 -0.2111 -0.1897  0.4283
26804W        W42938  10.654   5.341   2.895 -0.1660 -0.0440 -0.0980
26805W        W42939  11.004  16.214  11.429  0.0780  0.1535  0.0903
26806W        W42940   3.186  12.691   1.860 -0.3921 -0.0543  0.2737
26807W        W42941   8.464  13.385  14.845  0.2050  0.2363  0.2013
26808W        W42942   4.879  14.816  13.400  0.4003 -0.0123  0.1905
26809W        W42943  10.809   0.503   2.632  0.0687 -0.2963  0.2391
26810W        W42944  16.448  12.505  12.295 -0.3055 -0.0493 -0.1157
26811W        W42945  12.416  14.065   4.811 -0.0688  0.0573 -0.1030
26812W        W42946  16.815  16.245   0.862 -0.0949 -0.3187 -0.1738
26813W        W42947   3.968   0.168  13.873  0.3490  0.0853 -0.0002
26814W        W42948   7.251   5.234  10.672  0.0277 -0.0707 -0.1547
26815W        W42949  17.289  14.966  11.812 -0.0591  0.0808  0.0699
26816W        W42950   2.942   9.552   3.877  0.0453  0.1791  0.1772
26817W        W42951  15.290   1.109   0.896  0.2266  0.3354 -0.1611
26818W        W42952   4.394  14.401  10.526  0.0597  0.1641 -0.1011
26819W        W42953   5.042   6.155  12.662 -0.0302  0.1786  0.3170
26820W        W42954  16.677   6.925   0.092 -0.2521  0.0634  0.0534
26821W        W42955   8.827  10.181  14.389  0.1150 -0.0557 -0.2876
26822W        W42956  16.551  10.379   2.027 -0.0454 -0.1704  0.0416
26823W        W42957   5.319   3.403   5.047 -0.0167 -0.0857 -0.0463
26824W        W42958  18.813   6.017   2.319  0.1743 -0.0793 -0.1998
26825W        W42959   6.786   1.855   4.597  0.1278  0.2307 -0.0274
26826W        W42960   8.825  10.431  11.851  0.0375 -0.2007 -0.1647
26827W        W42961   3.516   8.975  11.450 -0.3586 -0.0884  0.0487
26828W        W42962   8.602  12.944   3.419  0.2119  0.1273  0.0385
26829W        W42963   0.649   4.807  10.643 -0.0536  0.0526  0.1241
26830W        W42964   0.726   0.970  14.527  0.1105 -0.1711 -0.1100
26831W        W42965   9.429   2.995   4.436 -0.0600  0.1920  0.3005
26832W        W42966  12.310  17.585  11.090 -0.2035 -0.0804  0.1593
26833W        W42967   7.040   1.600  11.190 -0.1005  0.0306  0.0060
26834W        W42968  10.125   5.915  11.508 -0.1334 -0.2557  0.1093
26835W        W42969   0.347  10.417   2.739 -0.1408 -0.0601 -0.4202
26836W        W42970   7.517   1.959   3.695 -0.1526 -0.1199  0.1419
26837W        W42971   2.730  16.440  14.237  0.2239 -0.2424 -0.0496
26838W        W42972  19.114   0.735   2.163  0.0506 -0.0392 -0.1521
26839W        W42973  18.965  12.604  13.025  0.3055 -0.0731  0.0736
26840W        W42974   3.355   1.406  14.041  0.0725 -0.0211  0.0121
26841W        W42975  11.005   9.187   0.408  0.1379 -0.2491 -0.2104
26842W        W42976   3.900   8.435  10.761 -0.3026  0.2918  0.0342
26843W        W42977   3.745   6.086   3.264  0.0179 -0.2379  0.0607
26844W        W42978   1.050  16.833  14.869  0.1352  0.2581  0.2030
26845W        W42979   6.540   9.717   0.540  0.2410 -0.3773  0.2704
26846W        W42980   6.738   6.615  12.673  0.3451  0.1512 -0.2789
26847W        W42981  19.053   3.235  14.858  0.4479 -0.0677 -0.3050
26848W        W42982  10.182   1.333  11.460  0.1854  0.0932 -0.2943
26849W        W42983   9.798  18.355   2.877  0.3700 -0.2456  0.2024
26850W        W42984   8.038   6.741  11.412  0.1999 -0.0877 -0.1767
26851W        W42985   4.765  18.834   2.823  0.2682 -0.0433  0.0907
26852W        W42986  16.818   3.654  13.522 -0.0592  0.3609  0.0023
26853W        W42987   7.920  10.607  13.523  0.1340  0.2544  0.0160
26854W        W42988  13.567   8.458  12.021 -0.1930  0.2836 -0.3002
26855W        W42989  14.792   3.885  11.557  0.0555  0.0399 -0.0486
26856W        W42990   1.797  14.301   3.562 -0.1597  0.2634  0.0953
26857W        W42991   2.658   3.223   5.691  0.2595  0.1453  0.1345
26858W        W42992   8.235   0.927  14.866  0.0888 -0.0522  0.1678
26859W        W42993  10.760   2.925  14.400 -0.1419 -0.0846 -0.2078
26860W        W42994   4.430  10.258   3.799  0.1791 -0.1377 -0.0276
26861W        W42995   9.034   4.346   1.771  0.0732  0.0156 -0.0947
26862W        W42996  18.316  10.206  11.851 -0.0597 -0.1755  0.0001
26863W        W42997   6.361  14.097   0.516  0.0340 -0.1565 -0.0266
26864W        W42998   2.658   2.427  13.568  0.3610  0.2028 -0.2411
26865W        W42999   6.118  17.623   4.095 -0.2214 -0.4367 -0.1215
26866W        W43000   6.228   6.939  12.498 -0.2001 -0.3749 -0.1034
26867W        W43001   4.607   9.971   2.535 -0.1194  0.2187 -0.1958
26868W        W43002  16.321   5.314  14.940 -0.0714 -0.3041 -0.1718
26869W        W43003   7.834   6.455  13.582  0.2451 -0.2042 -0.1893
26870W        W43004   3.571   0.946  11.125 -0.1374 -0.3228 -0.3703
26871W        W43005   6.123  15.604  14.778  0.0658 -0.2024  0.1665
26872W        W43006  12.196  10.540   1.819 -0.0035  0.3821  0.1217
26873W        W43007   9.375   8.472   2.745  0.1037 -0.3217  0.1793
26874W        W43008   0.396  16.562   2.619 -0.4048 -0.1868 -0.3265
26875W        W43009   5.682  12.054   1.644  0.1812  0.0734 -0.0278
26876W        W43010   1.249   0.197  14.463 -0.2198  0.0268 -0.3015
26877W        W43011   5.808  18.578   3.839 -0.0568  0.0776  0.2218
26878W        W43012   1.121  11.465  10.857 -0.3885  0.0762 -0.0740
26879W        W43013   3.081   7.673  12.189 -0.0526  0.0074 -0.1488
26880W        W43014   7.915   9.172   5.911  0.0363 -0.1372  0.1646
26881W        W43015  11.633  16.250  11.542 -0.1337  0.3648  0.1200
26882W        W43016   7.068   8.472  12.908  0.0393  0.1497  0.1904
26883W        W43017   1.756   2.182  14.701 -0.0480 -0.0640  0.1789
26884W        W43018   8.292   9.858   4.146 -0.0736  0.2445  0.0296
26885W        W43019   4.119  18.356   2.375  0.3628 -0.0610  0.3373
26886W        W43020   0.114   7.946   2.761 -0.0017  0.1190 -0.2580
26887W        W43021   8.235   5.592   4.219 -0.1325 -0.2211  0.1138
26888W        W43022  12.034   3.866   4.042  0.0860 -0.3522 -0.1127
26889W        W43023   1.630  18.343   5.531 -0.2291  0.0035  0.1947
26890W        W43024   0.469  11.892  13.751  0.2932  0.1198 -0.3835
26891W        W43025   4.139  13.055   5.068  0.0446 -0.3967 -0.0989
26892W        W43026  14.881  14.993  13.765  0.0927  0.2664  0.1414
26893W        W43027   0.221  14.483   2.712 -0.1189 -0.0300  0.0685
26894W        W43028  16.824   6.950   2.926  0.0705  0.3200  0.0808
26895W        W43029   2.066   7.146   1.630  0.1561  0.0727  0.2896
26896W        W43030   8.727  16.361  14.571 -0.0644  0.1228  0.2949
26897W        W43031  16.664  16.066   0.389 -0.3943  0.3508 -0.0905
26898W        W43032   1.277  10.725  13.628 -0.0494 -0.1266  0.1223
26899W        W43033   6.317  16.781  10.182 -0.1163  0.0690 -0.2198
26900W        W43034   5.168  10.595  12.114  0.1655  0.0953 -0.2600
26901W        W43035   4.736  16.163   1.643 -0.1687 -0.0944  0.2256
26902W        W43036  12.333  12.826   3.559 -0.0875  0.2031  0.1728
26903W        W43037  16.364  17.407   0.545 -0.2792 -0.1096 -0.1237
26904W        W43038   0.850  15.034  11.529 -0.2806 -0.1034  0.2857
26905W        W43039   5.941   7.706   0.782 -0.3138 -0.0365  0.0690
26906W        W43040  11.252  11.144   0.040 -0.2181  0.3926 -0.2295
26907W        W43041  10.136  16.507   1.138  0.0589 -0.2476 -0.0015
26908W        W43042  18.421  12.268  13.114 -0.1134  0.1674  0.1304
26909W        W43043  12.453  17.562   0.243  0.5321 -0.0841 -0.2707
26910W        W43044  10.703  16.082  12.366  0.2378  0.2125 -0.2898
26911W        W43045  14.483  15.650   0.449 -0.1190 -0.1536 -0.0526
26912W        W43046   1.654  14.491   2.055  0.3591 -0.0335 -0.0997
26913W        W43047   0.754  15.516  12.769 -0.0257  0.4654  0.1014
26914W        W43048   2.548  12.746  13.667  0.0101 -0.1723  0.1008
26915W        W43049  14.231  17.843   1.773 -0.2279 -0.1643 -0.1306
26916W        W43050   8.480   2.013  12.173 -0.1401  0.2556  0.0419
26917W        W43051   0.666   8.287   1.624  0.1881 -0.0370  0.0996
26918W        W43052   7.005   7.514  11.005  0.2370  0.1250  0.0827
26919W        W43053  17.483   8.003  13.356 -0.0378 -0.0374  0.0084
26920W        W43054   5.705  17.087  10.710  0.4072  0.1156  0.1024
26921W        W43055   3.174  11.368  13.968 -0.2916  0.3834  0.0585
26922W        W43056  14.852  17.184   2.459 -0.2796 -0.2138 -0.0465
26923W        W43057   0.254   0.355   2.143 -0.0279 -0.2768  0.0243
26924W        W43058   5.384   0.534  12.764  0.2302 -0.2771 -0.0703
26925W        W43059   5.932   9.941   4.976  0.6083 -0.2665  0.0637
26926W        W43060  11.857   3.509   4.834 -0.1146 -0.0695 -0.1843
26927W        W43061   1.980  12.206  13.333  0.1268  0.0699 -0.1201
26928W        W43062   0.330   0.943  13.024  0.1877  0.2198 -0.3004
26929W        W43063  14.467  14.456  12.548 -0.2514  0.1421 -0.3454
26930W        W43064   3.078   4.175   0.130 -0.1751  0.3472 -0.2289
26931W        W43065   4.729  13.111   1.824  0.1147  0.0514 -0.1249
26932W        W43066   4.487   5.870  13.315  0.2929  0.0564  0.0070
26933W        W43067   7.362   7.572  11.452  0.1100 -0.0966  0.0110
26934W        W43068  10.500  10.498  15.068 -0.0519  0.0743  0.0310
26935W        W43069   7.645  14.350   4.646 -0.3989  0.1131 -0.3032
26936W        W43070  17.407   6.223   0.095  0.3301  0.1725 -0.0510
26937W        W43071  11.807  11.340  14.393 -0.1238  0.0728 -0.3702
26938W        W43072   9.308   0.703   2.443 -0.2833 -0.0341 -0.2296
26939W        W43073  12.192  14.223  12.500  0.2939  0.0449  0.0778
26940W        W43074  18.795  18.960  10.739  0.1463  0.0938  0.2497
26941W        W43075   4.430   2.457   5.289 -0.2703  0.1317 -0.1015
26942W        W43076   9.279   3.748  13.738  0.1568  0.1050 -0.3700
26943W        W43077  17.434  12.159  11.683  0.2105 -0.1087 -0.0717
26944W        W43078  16.493   5.224  13.492 -0.1317  0.0319  0.0619
26945W        W43079  11.725   0.513   4.334 -0.0765  0.2565 -0.0024
26946W        W43080   0.355   1.801  11.783  0.0646  0.0239  0.0639
26947W        W43081  18.599   3.578   4.151 -0.0824  0.1279 -0.1537
26948W        W43082   1.454  19.055   0.607  0.2015 -0.2996 -0.0592
26949W        W43083   4.881   6.577  14.008  0.0075  0.1687  0.0546
26950W        W43084  17.445   9.744  10.333 -0.0392  0.0909 -0.3155
26951W        W43085   5.673   8.190   0.821 -0.1473 -0.1334 -0.0493
26952W        W43086   7.675   1.047  10.611  0.0966 -0.2292  0.3478
26953W        W43087  11.082   1.143  12.347 -0.0391 -0.0785  0.0897
26954W        W43088  17.974  16.119  10.961  0.1672 -0.1176  0.1800
26955W        W43089   6.386   1.728   1.185  0.2333 -0.2460 -0.0539
26956W        W43090  14.190   7.631   1.852  0.1659  0.2052  0.1143
26957W        W43091   4.946  12.537   0.422 -0.0190 -0.3440 -0.0841
26958W        W43092  11.346  14.408  12.630  0.2131  0.0678 -0.2211
26959W        W43093  14.405  11.377  13.859 -0.2024 -0.0515 -0.0592
26960W        W43094   4.107   6.893   0.030 -0.0556  0.1471  0.1007
26961W        W43095   9.576  15.554   6.079  0.0851 -0.2665 -0.3758
26962W        W43096   1.905   1.877   3.473  0.3073  0.1376  0.0590
26963W        W43097   0.504   2.710  13.106  0.2162  0.5502  0.1560
26964W        W43098   3.958  18.970  12.068 -0.1064  0.0179  0.3499
26965W        W43099   6.605  12.979  10.907  0.2195 -0.0426 -0.2573
26966W        W43100  18.484   4.505   5.207  0.1620  0.0011  0.0985
26967W        W43101   8.794  16.305  10.496 -0.2803  0.2399  0.0679
26968W        W43102   3.746   4.581   0.239 -0.3382  0.1485  0.2856
26969W        W43103   4.861  18.725  11.269 -0.1746 -0.3514 -0.0844
26970W        W43104   7.595  17.789  11.642 -0.4501 -0.1090 -0.0756
26971W        W43105   3.202  13.645   4.311  0.1236  0.0198  0.2464
26972W        W43106   8.503  13.928  14.862 -0.0651 -0.2225  0.2227
26973W        W43107  13.488   9.047  13.102  0.0524 -0.1624 -0.3031
26974W        W43108   0.977   9.392   3.030  0.1343 -0.0163 -0.1589
26975W        W43109  16.104   5.314   3.656 -0.2535  0.1670  0.0963
26976W        W43110   4.184  12.881   0.949  0.0917 -0.3950 -0.3137
26977W        W43111   2.585  12.275  11.032  0.0125 -0.1637  0.0136
26978W        W43112  12.695   0.721   2.524 -0.1156 -0.4636 -0.0444
26979W        W43113   9.557  12.362   3.492  0.0728 -0.2657 -0.2604
26980W        W43114  15.861   0.481  14.424  0.1692 -0.1088 -0.1342
26981W        W43115  11.653   7.387  11.541 -0.0819  0.4259  0.2435
26982W        W43116  10.911   5.396  14.165  0.1026  0.1283  0.1410
26983W        W43117  17.524  14.528   2.693  0.0743 -0.0825 -0.4675
26984W        W43118  12.884   9.294  14.381 -0.0584 -0.0386 -0.0752
26985W        W43119   0.616   4.826   4.147 -0.2733  0.3364  0.2702
26986W        W43120  12.887  14.830   3.406 -0.0285  0.1410 -0.1483
26987W        W43121   1.624   1.562   2.376 -0.1062 -0.0036  0.3909
26988W        W43122   3.080   0.455   4.809  0.1890  0.2065  0.1671
26989W        W43123  15.500   4.174   1.677  0.0275 -0.0643 -0.1868
26990W        W43124  13.567  16.310  10.403 -0.1727 -0.1175 -0.0166
26991W        W43125  18.261   6.746   0.014  0.2218 -0.1000 -0.2189
26992W        W43126   8.026   1.980  11.818  0.2875  0.0793 -0.1535
26993W        W43127   2.535   9.317   4.828  0.0158  0.1780  0.1624
26994W        W43128   9.017   3.939  10.975  0.0343 -0.1571  0.0326
26995W        W43129   9.061   2.520  14.563  0.1152  0.0416 -0.2266
26996W        W43130  12.983  18.499   2.200 -0.0762 -0.2904 -0.0179
26997W        W43131   3.086   5.340   4.747  0.0660  0.3445 -0.2558
26998W        W43132   8.039  18.070  13.859  0.0060 -0.0332  0.0462
26999W        W43133   0.188   3.553  12.948  0.2810  0.0754  0.0588
27000W        W43134   3.514   6.897  11.300 -0.4541  0.0801 -0.0279
27001W        W43135  13.154   7.512  11.095 -0.4361  0.0059  0.0666
27002W        W43136  14.193  18.585   1.364 -0.0656 -0.0714  0.0526
27003W        W43137  14.028  15.700   4.809  0.0228 -0.0880  0.0294
27004W        W43138   8.402   6.702   2.408  0.0276 -0.1598 -0.2659
27005W        W43139   1.717  13.762   2.991  0.0221  0.2398  0.0582
27006W        W43140  14.379  14.863  13.855  0.1508 -0.0497 -0.1476
27007W        W43141   5.185   0.183  14.012 -0.4314 -0.1410 -0.0536
27008W        W43142   6.620  18.189  15.096  0.0564  0.2167 -0.0011
27009W        W43143  14.852  18.590   1.971  0.2117 -0.0487 -0.1497
27010W        W43144   3.119  14.179  13.442 -0.1621  0.0186  0.0245
27011W        W43145  18.239   8.466  14.833  0.0442  0.0624 -0.0441
27012W        W43146   3.043   5.447  13.465 -0.4349 -0.1414  0.1586
27013W        W43147  15.896   9.581   4.422  0.0849  0.0048 -0.4123
27014W        W43148   1.965   2.509  10.785 -0.1306 -0.1862 -0.2596
27015W        W43149   9.086   0.366   0.938  0.2517 -0.1503  0.3388
27016W        W43150   3.196  17.592   2.605 -0.0571  0.1237 -0.1152
27017W        W43151  15.245   5.642  13.730  0.0874  0.3283 -0.0359
27018W        W43152   3.237  18.622  13.806 -0.2912 -0.1401 -0.1891
27019W        W43153  11.549  13.685  10.462 -0.1778 -0.3027  0.4741
27020W        W43154  18.190   3.390  14.268 -0.0247  0.2949  0.1921
27021W        W43155  13.698  14.592  14.898  0.1696 -0.0328 -0.0507
27022W        W43156   9.975  17.780  15.129  0.2020 -0.0356 -0.0675
27023W        W43157   8.799   3.130  12.006 -0.1023  0.0064 -0.1579
27024W        W43158   1.881  17.495   2.860 -0.1997 -0.0133 -0.0550
27025W        W43159   2.196  15.517  11.126  0.0266 -0.0839  0.2535
27026W        W43160   7.976   8.379   5.300 -0.2758 -0.1425 -0.0485
27027W        W43161  13.947   9.901   1.472  0.1933  0.1959 -0.2303
27028W        W43162  13.160  16.885  13.760  0.0932 -0.0214 -0.1446
27029W        W43163   8.451  16.176   4.309  0.2429 -0.2252 -0.1015
27030W        W43164   5.043   4.836   5.372 -0.0188 -0.1734 -0.1231
27031W        W43165   7.424  11.151  12.257  0.0603 -0.1701 -0.0145
27032W        W43166   4.317   6.988  13.354 -0.2070 -0.2397 -0.0207
27033W        W43167  11.430   1.617  11.228  0.4070 -0.0889  0.0407
27034W        W43168   3.716   2.920   4.015 -0.1673 -0.3710 -0.0072
27035W        W43169  17.337   1.442   2.651 -0.0475  0.1869 -0.4461
27036W        W43170   4.619  14.700  14.391  0.2240 -0.4611 -0.2023
27037W        W43171   6.933   5.494  12.443  0.2723 -0.1474 -0.0802
27038W        W43172  18.570   3.179   0.529  0.1926 -0.0020  0.0425
27039W        W43173  18.541   5.437   4.972  0.1204  0.3211 -0.0734
27040W        W43174   6.001   6.137   3.530 -0.3573 -0.0276  0.2130
27041W        W43175  14.169   8.494  12.569  0.3300  0.0130  0.1258
27042W        W43176  13.826   1.696   3.487 -0.0360 -0.2040  0.2810
27043W        W43177   5.036   2.905  15.180  0.0315 -0.1094 -0.0507
27044W        W43178  10.321   9.731  11.358  0.0595  0.0341 -0.0555
27045W        W43179   0.311   7.048   5.676 -0.3169  0.1327 -0.3200
27046W        W43180   5.980   8.765   4.734  0.1061  0.1600 -0.1412
27047W        W43181  10.965  12.121  10.920  0.2599  0.3880  0.2645
27048W        W43182   5.732  15.732  11.454 -0.2334 -0.1878  0.0045
27049W        W43183  11.716   3.452   1.751  0.1685 -0.0403 -0.5315
27050W        W43184   3.663  18.458   2.636 -0.0079 -0.0038  0.1162
27051W        W43185  12.893   8.663  13.754 -0.1342 -0.2289  0.0975
27052W        W43186  15.636   6.280  13.419  0.0289  0.2263  0.0859
27053W        W43187  12.282  11.476  11.381  0.1014  0.0691  0.0107
27054W        W43188  14.696  14.872  10.078 -0.1277  0.2587  0.0272
27055W        W43189   8.281   9.973   5.776  0.3010  0.0468 -0.0549
27056W        W43190   8.596   9.834   4.679 -0.0592  0.5401  0.1077
27057W        W43191   7.862  11.760  13.049  0.5398 -0.0517  0.0898
27058W        W43192  12.863   1.676   4.037 -0.1193 -0.0589 -0.3042
27059W        W43193   7.525   7.746  12.409 -0.2168  0.0996  0.5098
27060W        W43194   9.953   5.850   4.218 -0.0823 -0.2354  0.0679
27061W        W43195  16.170  15.596   1.202 -0.0844  0.1690 -0.1665
27062W        W43196   3.423  13.952  10.545  0.1844 -0.1148 -0.1583
27063W        W43197   9.654  15.598  14.105 -0.1886  0.1385 -0.1056
27064W        W43198   5.513  15.331  12.749  0.4195 -0.1950  0.0662
27065W        W43199   3.563   9.852   4.863 -0.1015  0.1031 -0.1095
27066W        W43200  19.029  11.169  12.810 -0.1515 -0.1193  0.1040
27067W        W43201   7.934  18.238  10.852  0.0110  0.1450  0.1953
27068W        W43202   6.968  16.107  14.672  0.0563 -0.1491 -0.0229
27069W        W43203   4.220   6.417   0.231 -0.1101 -0.0092 -0.0173
27070W        W43204  15.350  10.073  11.944  0.0763  0.1404 -0.2141
27071W        W43205   4.326  16.899  15.084 -0.1504  0.2914  0.4256
27072W        W43206   2.027   3.348  14.562 -0.0863  0.2365  0.0834
27073W        W43207  10.926  11.560   0.001  0.0714 -0.0564  0.1007
27074W        W43208   9.278   4.411   2.726 -0.2848  0.1722 -0.1707
27075W        W43209   8.227   5.740  15.205 -0.1580 -0.1577 -0.0723
27076W        W43210  17.147   8.218  14.779 -0.1735  0.0801  0.3097
27077W        W43211  12.050   0.061  11.629 -0.1471  0.1201 -0.0007
27078W        W43212  17.982  10.936  14.887 -0.0025  0.3421  0.2102
27079W        W43213  10.506  12.419  14.852 -0.0350  0.1739  0.0118
27080W        W43214  17.378   8.253   3.880 -0.3151  0.1141  0.0324
27081W        W43215   7.541   2.778   3.045  0.0081 -0.0107  0.3959
27082W        W43216   9.644   8.121   0.498 -0.1374  0.2176 -0.0812
27083W        W43217  14.294   0.635  14.422 -0.3904 -0.6197 -0.1116
27084W        W43218  16.903   8.345   3.272 -0.1589 -0.0591 -0.0220
27085W        W43219   1.329  14.391   2.986 -0.0246  0.1675 -0.2771
27086W        W43220  11.957  15.483  10.516 -0.0763  0.0549  0.2096
27087W        W43221  11.161  15.438  10.481 -0.7521 -0.3344  0.1843
27088W        W43222   4.425  10.952   3.444  0.0582  0.0129  0.1442
27089W        W43223  15.267  15.265  10.532 -0.3504  0.0099  0.1284
27090W        W43224   6.091  19.119   0.735  0.1640  0.1108  0.0393
27091W        W43225  12.910  18.767   4.294  0.0168  0.1483  0.1906
27092W        W43226  10.115   4.952  12.321 -0.0548 -0.2572  0.2571
27093W        W43227   3.280  16.589   3.058 -0.2699 -0.1419  0.2313
27094W        W43228   4.818   0.526   4.290  0.2029 -0.2328  0.1709
27095W        W43229   9.514   8.010   2.403  0.2317  0.1162  0.0193
27096W        W43230   4.540  12.043   2.401  0.0047 -0.0999  0.2775
27097W        W43231  14.634  12.088   4.223 -0.2434 -0.4607 -0.2088
27098W        W43232   9.285   9.439   4.798 -0.1335 -0.0945  0.2047
27099W        W43233   5.056  13.615   3.242  0.0826 -0.0293  0.0563
27100W        W43234   2.480   6.229  12.895  0.3593 -0.3693 -0.1831
27101W        W43235  11.849  11.400   0.862  0.1425  0.1497 -0.2223
27102W        W43236  14.583  15.859   0.984  0.1262 -0.2459 -0.0671
27103W        W43237  13.821   6.831  11.242  0.3886  0.3468  0.3321
27104W        W43238   9.254   8.565   5.287 -0.2851 -0.1214 -0.1630
27105W        W43239   0.852   9.435   0.665 -0.1280  0.0958 -0.0157
27106W        W43240   8.493  17.253  11.152 -0.1840 -0.1199 -0.1624
27107W        W43241   9.732  12.328   4.781  0.0092 -0.2242 -0.1895
27108W        W43242  15.153  12.781  11.979  0.0486  0.1328 -0.1254
27109W        W43243  14.902  11.158  11.604 -0.2059  0.2013 -0.0493
27110W        W43244  17.126  16.130  11.167  0.0964  0.2170  0.2926
27111W        W43245   5.710  11.506   3.759  0.0287  0.2789  0.0970
27112W        W43246  10.695  17.563  14.219  0.0109  0.2364  0.3498
27113W        W43247  13.259   7.740   1.058 -0.2461 -0.0203  0.3423
27114W        W43248   2.638  18.098   9.028  0.2859 -0.0500  0.2908
27115W        W43249   6.262  16.742  13.352  0.0342 -0.2264  0.1520
27116W        W43250  13.886  15.744  14.263 -0.1438  0.1219 -0.1702
27117W        W43251   1.461  14.037  12.652 -0.0532 -0.0142  0.0003
27118W        W43252   7.670   4.323   0.100  0.3445 -0.3082 -0.1405
27119W        W43253   5.779   7.264   5.548  0.0214  0.1391  0.0237
27120W        W43254   3.497   0.088  14.905  0.0533 -0.0538  0.0603
27121W        W43255   2.615   8.849   4.974 -0.0545 -0.1705  0.0970
27122W        W43256  11.492   6.512   2.402  0.0446  0.2274 -0.2914
27123W        W43257  16.543  12.118  10.734  0.1421 -0.5185  0.0480
27124W        W43258   4.503  14.077  14.340  0.1655  0.0170 -0.0026
27125W        W43259   3.260  11.040   3.632 -0.0491  0.0247 -0.5400
27126W        W43260   6.386   0.274   2.833  0.1501 -0.1059 -0.2039
27127W        W43261  17.355   4.430  10.684  0.0030  0.1639  0.0948
27128W        W43262  10.466  12.013  15.203 -0.0301 -0.1130 -0.1380
27129W        W43263   1.188  14.898  15.131 -0.1333  0.0779  0.3112
27130W        W43264   5.517   5.200  11.344  0.0415 -0.1331  0.1648
27131W        W43265   9.090   1.911   1.592 -0.2935  0.1113 -0.1428
27132W        W43266  16.086   8.543   4.482  0.1046 -0.0179 -0.0319
27133W        W43267  11.707   1.437  10.821  0.5373 -0.3598  0.0555
27134W        W43268  15.186  17.161   3.860 -0.3562 -0.2057 -0.1377
27135W        W43269   6.699  18.003  12.943  0.4411 -0.0554 -0.0937
27136W        W43270  14.089  17.592  11.710 -0.1953  0.1689  0.3008
27137W        W43271  16.330  17.335  14.571  0.1615 -0.0152 -0.0285
27138W        W43272   3.731   3.857   9.928  0.2608  0.2074  0.1563
27139W        W43273  11.200   5.067  12.003  0.1045  0.0147  0.2237
27140W        W43274  15.473   2.300  11.956 -0.0773  0.0487 -0.0001
27141W        W43275   6.137   7.975   5.627 -0.1388  0.1193 -0.3070
27142W        W43276   7.790   6.378  11.159  0.0236 -0.1373  0.0290
27143W        W43277   1.740   1.495   3.840 -0.1413 -0.1747  0.1568
27144W        W43278  10.108  14.476   0.874 -0.2391  0.0809 -0.1750
27145W        W43279   7.682   3.999   4.864  0.2398  0.1531 -0.0409
27146W        W43280  10.579   6.558  12.032 -0.0696 -0.1977 -0.0475
27147W        W43281   9.343   5.641   3.625 -0.2492 -0.2581  0.1882
27148W        W43282  11.955   5.843  12.572 -0.2129 -0.1989  0.1732
27149W        W43283  15.886  11.523  10.805  0.0449  0.1251 -0.0833
27150W        W43284  13.249  17.483   4.882 -0.1327 -0.0143 -0.0605
27151W        W43285  11.711  17.770   1.733 -0.4049  0.0608 -0.1651
27152W        W43286  11.889   6.803   3.301 -0.3546 -0.2166 -0.0862
27153W        W43287   5.547   7.030   4.726  0.1678  0.2586 -0.0928
27154W        W43288  13.876   2.604  11.953  0.0775 -0.1362 -0.3962
27155W        W43289   0.960   8.370   9.087  0.0315 -0.0122  0.2340
27156W        W43290  14.835  11.731   2.312 -0.0423  0.1043  0.0275
27157W        W43291   0.329   4.693  12.217  0.5284 -0.6707 -0.1499
27158W        W43292  18.334   2.366  15.041  0.2466  0.0881 -0.3478
27159W        W43293   7.753  18.581  13.332 -0.0894 -0.2583 -0.1408
27160W        W43294  16.966  12.919  10.940 -0.2206 -0.0815  0.0283
27161W        W43295  11.931  13.832   4.744  0.0694 -0.4140 -0.0632
27162W        W43296  15.903  18.635   2.039 -0.3024  0.0139  0.0001
27163W        W43297  17.320   6.177  12.721 -0.0620 -0.0011 -0.0180
27164W        W43298   0.285  13.530   0.317 -0.1251 -0.1010  0.1257
27165W        W43299   9.220   0.342   1.945  0.3964  0.0451  0.1715
27166W        W43300   0.082  17.550  12.183 -0.1545 -0.4761  0.0457
27167W        W43301   2.049   4.252   4.528 -0.0383 -0.3000  0.0264
27168W        W43302  10.849   1.192   1.954  0.0419  0.0425  0.3347
27169W        W43303  11.314  10.883  13.957  0.3027 -0.0244  0.3044
27170W        W43304  10.386  11.756   2.741  0.0540 -0.0979  0.2625
27171W        W43305   8.368   2.755  13.428  0.2365  0.3708  0.0854
27172W        W43306   6.889  10.519  14.237  0.1119 -0.3177  0.0650
27173W        W43307  13.318   5.128  10.801  0.1714 -0.1194 -0.1114
27174W        W43308  14.860  16.891  11.893 -0.5707  0.0306 -0.0507
27175W        W43309   7.681  11.437   3.935  0.0775  0.2628 -0.0410
27176W        W43310  18.650   7.268  14.044  0.2128 -0.2568 -0.1657
27177W        W43311  14.232  15.465   3.362 -0.2498 -0.0058  0.2382
27178W        W43312  14.393  15.895   9.334 -0.2847 -0.0913 -0.2069
27179W        W43313  10.194   7.663  11.915  0.1743 -0.3035 -0.2720
27180W        W43314   0.123  13.930   4.113  0.1829  0.2062  0.1973
27181W        W43315   5.970  15.314  14.345 -0.1333 -0.0387  0.2853
27182W        W43316   2.365   6.964   0.319  0.3199 -0.0969  0.1232
27183W        W43317  13.634  12.271   0.086  0.1926 -0.0050  0.1289
27184W        W43318   4.312  15.500  14.089 -0.0047  0.1591 -0.2619
27185W        W43319  11.605   3.102  12.566  0.0386  0.1201  0.1945
27186W        W43320   7.205   4.524   1.913 -0.2155 -0.0742 -0.0274
27187W        W43321  15.477   6.856  11.790 -0.4677  0.0976  0.0961
27188W        W43322  18.444  11.335   1.133  0.0028  0.1672  0.5267
27189W        W43323  17.689   6.197  14.796 -0.4361 -0.3482  0.1550
27190W        W43324  15.459   8.147   2.731 -0.2560  0.0483  0.4213
27191W        W43325   6.718   2.667   1.639  0.0997  0.0484  0.1796
27192W        W43326   0.426   1.611  13.229  0.1757  0.1684 -0.0806
27193W        W43327  16.388   7.429   4.671  0.0764  0.1795 -0.0529
27194W        W43328   4.066   5.440   2.442  0.2074  0.3391 -0.2991
27195W        W43329  11.616  10.697   0.517  0.2053  0.2691 -0.3615
27196W        W43330  19.041   3.499   0.186 -0.1263  0.0766  0.3564
27197W        W43331   9.053   0.184   5.350 -0.0014  0.1079 -0.3587
27198W        W43332   2.709  18.422   2.234 -0.2836 -0.0164 -0.1023
27199W        W43333  13.265   7.276  12.763  0.0485 -0.1891  0.1545
27200W        W43334   1.010  14.905   1.147  0.1507  0.0743  0.1589
27201W        W43335   2.269   0.220   3.999  0.2095 -0.4015  0.2834
27202W        W43336  10.387   9.875  14.738 -0.0409 -0.3416  0.2605
27203W        W43337  10.733  10.949   1.525  0.0766  0.0309 -0.0874
27204W        W43338  16.683   8.844   4.507  0.1942 -0.3305 -0.1413
27205W        W43339  16.950   4.845   1.076  0.1378 -0.0769  0.3672
27206W        W43340   7.387   7.044  14.630 -0.1076  0.1120  0.0802
27207W        W43341   7.638   7.172   2.341  0.0679 -0.2395 -0.0101
27208W        W43342  18.864  19.077  11.730  0.0142 -0.1377 -0.2671
27209W        W43343   9.241  10.918   0.486  0.2840  0.2535 -0.2197
27210W        W43344   2.956   9.813  10.469  0.0930  0.0756  0.0520
27211W        W43345  10.835   8.765  15.119  0.0803 -0.2131 -0.3491
27212W        W43346   6.650  17.467  13.784  0.0392 -0.2081 -0.0986
27213W        W43347   4.731  13.557  14.479  0.0638 -0.0922  0.0369
27214W        W43348  19.047   8.872   2.205 -0.6820 -0.2325  0.1088
27215W        W43349   8.356  17.689   4.481  0.0207  0.0376  0.1841
27216W        W43350   7.867   7.908   5.015  0.0469  0.1806  0.1139
27217W        W43351   0.088  13.327  10.945 -0.1731  0.3488 -0.2487
27218W        W43352  18.605  10.838  13.942  0.1311  0.0831 -0.0236
27219W        W43353  14.747   1.814  12.596 -0.2351 -0.1703  0.2404
27220W        W43354   1.026  12.636  11.908 -0.1100 -0.0729 -0.1719
27221W        W43355   9.703  12.089  13.863 -0.1186  0.1887 -0.3303
27222W        W43356  14.963   8.404  12.170  0.0548  0.1157  0.1114
27223W        W43357   4.312   0.612   4.337  0.0329 -0.0230  0.1505
27224W        W43358  15.526   1.233  13.912 -0.0953 -0.1093 -0.1875
27225W        W43359   6.727  11.546   3.504 -0.1301 -0.1095 -0.0381
27226W        W43360  16.430   5.956  11.850  0.1730 -0.0361 -0.0560
27227W        W43361   5.870  16.415  13.513  0.2710 -0.1175 -0.0798
27228W        W43362  18.255   9.949   3.432  0.4018  0.0763  0.1367
27229W        W43363   4.518  12.606  14.118 -0.1944 -0.0129  0.1759
27230W        W43364   2.753  10.343  13.065  0.3403  0.2565  0.0280
27231W        W43365   9.495   5.665   4.089  0.3353 -0.1341  0.1297
27232W        W43366   3.044  14.745   0.721 -0.2658 -0.0526  0.0683
27233W        W43367   6.176   4.040   0.479 -0.3910  0.0772 -0.0134
27234W        W43368  18.518  14.614  15.190 -0.0605 -0.0592 -0.0984
27235W        W43369   3.963  12.992   3.422 -0.0087 -0.2988  0.3432
27236W        W43370  10.630  12.313  12.226  0.3638 -0.2141 -0.1796
27237W        W43371  17.243  15.880  11.698 -0.0707 -0.0584  0.1794
27238W        W43372   5.692  17.444  12.062  0.1070  0.1501 -0.3241
27239W        W43373  16.445  12.896   0.839 -0.0583  0.1064  0.1287
27240W        W43374  15.562  10.077   1.886  0.3960 -0.0262 -0.1705
27241W        W43375   7.107   3.048  13.576  0.3454  0.1955 -0.1280
27242W        W43376   8.200  11.012   6.082 -0.0736  0.0379  0.0395
27243W        W43377  13.711  13.804  13.109 -0.1452  0.0888 -0.3534
27244W        W43378   8.126  16.513  11.704  0.4560 -0.3504 -0.2123
27245W        W43379  15.801  14.003  11.904  0.1168 -0.4024 -0.0105
27246W        W43380  17.032  13.648   0.598 -0.1782 -0.0637 -0.4408
27247W        W43381   2.568   0.793   2.473 -0.3983  0.0302 -0.2027
27248W        W43382  17.077   9.474  11.252  0.2162  0.1028  0.2875
27249W        W43383  14.175  12.993   2.596 -0.1681  0.0580  0.0680
27250W        W43384  11.264   6.950   0.262  0.1356 -0.1975  0.0699
27251W        W43385   2.658   4.341   3.016  0.1269 -0.1975 -0.0172
27252W        W43386  14.475   2.100   2.231 -0.0731 -0.1857 -0.1071
27253W        W43387  10.571  15.671   4.028  0.0720  0.0744 -0.1032
27254W        W43388   6.972  13.652   4.453  0.0709 -0.2469  0.1250
27255W        W43389  12.555  11.353  12.470 -0.3028 -0.0476 -0.1250
27256W        W43390  17.254  13.293  13.901 -0.3441 -0.1678  0.4118
27257W        W43391   8.873  19.087  11.466  0.0267 -0.3559  0.4896
27258W        W43392   8.093  12.363  14.506  0.1104 -0.3347 -0.0112
27259W        W43393  16.138   9.956  12.781 -0.1194  0.1113  0.3591
27260W        W43394  18.413   4.758   1.244  0.0702  0.2968 -0.3334
27261W        W43395   6.084   2.560  10.889  0.0377 -0.3471  0.0538
27262W        W43396   3.147  17.539  10.363 -0.3594  0.1783 -0.3990
27263W        W43397  15.172  13.249  11.933 -0.0351  0.0655 -0.0192
27264W        W43398   2.847  11.756  14.270 -0.2211 -0.0258 -0.2131
27265W        W43399   3.254  13.273   3.360 -0.2052  0.1454  0.1388
27266W        W43400   1.144   6.716  12.993  0.0710 -0.2016  0.0501
27267W        W43401  15.285  10.697   3.115  0.1350 -0.0957  0.2256
27268W        W43402  17.495  10.447  12.672 -0.2910 -0.1019 -0.3661
27269W        W43403  17.535  14.663   1.528 -0.1906 -0.1888 -0.3880
27270W        W43404   3.233  18.593  12.628  0.1069  0.0045  0.3847
27271W        W43405   5.451   8.718   1.936  0.2184 -0.0146  0.1479
27272W        W43406  11.406   8.336   4.525 -0.2429 -0.2213 -0.1526
27273W        W43407  16.552   7.083  14.093 -0.2695  0.0531 -0.2225
27274W        W43408   5.971  15.808  14.357 -0.2508  0.2844  0.1257
27275W        W43409   7.174  15.045  12.164 -0.2760  0.1294 -0.2502
27276W        W43410   9.366   6.959  13.346 -0.1208 -0.0710  0.1076
27277W        W43411  11.765   9.054   2.790  0.2058 -0.0375  0.0979
27278W        W43412  12.607  12.679  11.250 -0.2888  0.0581 -0.0036
27279W        W43413   3.773   6.610   9.704  0.0323 -0.0182  0.0102
27280W        W43414  18.139  15.593  12.936  0.0909 -0.0216  0.0476
27281W        W43415   3.052  16.330  11.892  0.0858  0.1871  0.1079
27282W        W43416   0.191   5.241  12.935  0.1200  0.1633 -0.0781
27283W        W43417  18.352   9.720   2.006  0.0434 -0.0149  0.1503
27284W        W43418   2.644  14.744   3.347  0.0034  0.2451  0.5053
27285W        W43419  17.053  13.272   0.166  0.2247  0.0314 -0.0076
27286W        W43420  11.754   5.601  15.128  0.0448 -0.0392 -0.1015
27287W        W43421   0.239  12.587  10.247 -0.2260  0.1508 -0.1450
27288W        W43422  17.831  15.771   5.728  0.2692 -0.2067 -0.3004
27289W        W43423   5.972   6.411  10.287  0.0438 -0.0756 -0.2550
27290W        W43424  10.432   8.957  14.969 -0.0851 -0.2569 -0.1578
27291W        W43425  12.890  15.429  12.728 -0.1341  0.3060  0.0563
27292W        W43426  17.494   3.849   5.355  0.1853 -0.0094  0.1307
27293W        W43427  18.351  17.393   0.703  0.2222 -0.4180  0.0138
27294W        W43428  12.141   5.950   0.937  0.1366  0.1153 -0.3624
27295W        W43429  11.982  15.408   2.471  0.0379 -0.0734  0.0603
27296W        W43430   8.412   2.491   5.518 -0.0001 -0.1468  0.0278
27297W        W43431   1.380  14.413  11.879 -0.2845 -0.1721 -0.0822
27298W        W43432  12.347  11.480   3.962  0.0940  0.2567 -0.1333
27299W        W43433   3.790   5.874   2.287  0.1325  0.3208 -0.1604
27300W        W43434  13.280  19.121   0.808 -0.1532 -0.0501 -0.0263
27301W        W43435   5.886   0.446   1.775  0.0909  0.0945 -0.1865
27302W        W43436   0.011   4.010   5.085  0.0774 -0.3472  0.2341
27303W        W43437  16.782   4.509  13.856 -0.4004 -0.1887 -0.0664
27304W        W43438   7.282  17.625  14.133  0.1693 -0.0870  0.2444
27305W        W43439  18.470  13.258  10.800  0.0113 -0.0228 -0.2594
27306W        W43440   2.318  15.068   0.555  0.3379  0.1373 -0.3187
27307W        W43441   8.673   0.859  11.458 -0.1801  0.0242  0.5960
27308W        W43442  13.777  11.604   1.220 -0.0195  0.5305 -0.1730
27309W        W43443   6.222  15.941   0.323  0.0598 -0.1618  0.1214
27310W        W43444   4.833  17.248   1.692 -0.0582  0.0664  0.0240
27311W        W43445   2.088  10.756   3.973  0.2337  0.1141  0.1901
27312W        W43446   9.028  12.975   6.074  0.0425 -0.0747 -0.0864
27313W        W43447   7.373  17.508   0.882 -0.1213  0.2436 -0.1251
27314W        W43448   1.534  10.480   1.285  0.2053  0.0570  0.0123
27315W        W43449  11.040  13.468  10.353  0.0039 -0.1838 -0.1235
27316W        W43450  10.036   3.503   1.662  0.0748 -0.1505 -0.1418
27317W        W43451  19.148   2.993  12.454 -0.1593  0.0077 -0.2770
27318W        W43452   8.298  16.819  13.682  0.1329 -0.1056  0.2803
27319W        W43453   8.092  14.859   1.700  0.0160 -0.3491  0.3994
27320W        W43454  16.839   0.785  11.472 -0.1986 -0.1181 -0.0658
27321W        W43455  11.921  15.323   4.009 -0.0555 -0.1976 -0.2406
27322W        W43456   6.954   7.154  13.617 -0.0683 -0.1048 -0.1948
27323W        W43457  15.233  16.973  12.280  0.0534  0.0949 -0.0041
27324W        W43458   5.976  16.080   3.773 -0.1493 -0.1707  0.0166
27325W        W43459   6.059   0.145   3.266 -0.1224  0.0561 -0.0519
27326W        W43460  13.718  12.273   0.596 -0.0057  0.1111  0.0195
27327W        W43461   8.521  10.857  15.153 -0.3210  0.0922 -0.2086
27328W        W43462   2.131  17.566  13.652  0.1330 -0.0331 -0.0152
27329W        W43463  12.437   6.669   2.069  0.2319 -0.0791  0.1271
27330W        W43464  18.183  17.055   0.204 -0.0452  0.0638  0.2409
27331W        W43465  18.684  13.148  11.751 -0.3452 -0.0927 -0.0170
27332W        W43466  14.354   4.848   2.561 -0.0571  0.2026  0.0902
27333W        W43467  17.374  12.952   4.314  0.0650  0.0464 -0.1613
27334W        W43468   7.880   3.022  12.749 -0.1268 -0.3003 -0.0312
27335W        W43469  10.424   1.577   4.274  0.1706 -0.0690 -0.4409
27336W        W43470  14.121  14.227  10.250  0.2538 -0.4251 -0.1074
27337W        W43471  13.651   3.986   2.126  0.0575 -0.0928  0.3151
27338W        W43472   5.535   4.109   2.639 -0.0320 -0.1789  0.0630
27339W        W43473   9.759   1.726  14.127 -0.1069  0.0087 -0.2838
27340W        W43474   5.411   6.096  12.236  0.0674 -0.0496 -0.0054
27341W        W43475  11.347  12.055  12.671  0.2855 -0.0424  0.0031
27342W        W43476  17.622  18.751   4.033  0.0106  0.1945 -0.0682
27343W        W43477  16.704  16.760   4.090  0.1523  0.3505 -0.3896
27344W        W43478  16.734  18.007  12.873 -0.0164  0.4525 -0.0826
27345W        W43479  15.422   6.883   4.543  0.1968  0.2419  0.0885
27346W        W43480   7.780  18.630   4.106  0.1145  0.1273  0.1915
27347W        W43481  14.622   3.888   3.029  0.1339  0.1169 -0.0924
27348W        W43482   7.843   9.220   3.665 -0.3099 -0.1858  0.0852
27349W        W43483  17.453   1.674  13.113 -0.1088  0.1161  0.1612
27350W        W43484   6.878   8.955  14.270 -0.1335 -0.1155 -0.0798
27351W        W43485   3.338  12.652  10.805  0.1020 -0.0005 -0.5050
27352W        W43486   9.818   3.800   4.720  0.1179  0.0326 -0.1100
27353W        W43487   6.301  18.755   4.124  0.0779 -0.4338 -0.1977
27354W        W43488  10.000  16.521   5.142  0.2325 -0.1591 -0.2711
27355W        W43489  16.396   7.515  14.396 -0.1581 -0.1250 -0.2625
27356W        W43490   7.465   7.088   3.767 -0.3309  0.2675 -0.0742
27357W        W43491   6.734   1.352   0.349 -0.0761 -0.1888 -0.0632
27358W        W43492  18.492   1.858  14.557 -0.4766 -0.3087 -0.1117
27359W        W43493  14.440   0.879   0.928  0.0869 -0.0473  0.5201
27360W        W43494  11.242   7.873  11.391 -0.0536  0.1861 -0.3170
27361W        W43495  15.113   0.917  13.258  0.0004  0.1500 -0.3053
27362W        W43496  13.855   6.847   5.453 -0.2600  0.0918 -0.4003
27363W        W43497   2.271   4.927   0.914 -0.0887  0.2492  0.0480
27364W        W43498  18.605   0.765  15.035  0.2406 -0.2139  0.4260
27365W        W43499   5.046   4.479   5.007 -0.0894 -0.3973 -0.2454
27366W        W43500  19.004  13.499   4.143  0.2095 -0.1989 -0.0527
27367W        W43501   7.871   7.764  13.973 -0.0134 -0.1979  0.0192
27368W        W43502  13.094   9.305   2.542 -0.1269  0.0545  0.1669
27369W        W43503  12.156   4.787  11.549 -0.1095 -0.1019  0.2206
27370W        W43504   4.206   4.980  12.240  0.0563  0.0073 -0.0446
27371W        W43505  19.138   4.111  10.667 -0.0395 -0.2064 -0.2220
27372W        W43506   1.533  10.686   3.989  0.2000  0.0340 -0.1081
27373W        W43507  12.881  10.098  12.981  0.0887 -0.2570 -0.0775
27374W        W43508  15.380  15.282   2.971  0.0746 -0.1330  0.0066
27375W        W43509  17.868  11.374   1.142  0.3742  0.0922 -0.1240
27376W        W43510   1.266  11.312   1.845 -0.3178 -0.1444 -0.2243
27377W        W43511  17.347  12.215  14.053  0.1426 -0.0811  0.0466
27378W        W43512   4.409  14.462   2.062 -0.1809 -0.2216 -0.2090
27379W        W43513   9.237  11.474  14.613 -0.1249 -0.0148  0.0593
27380W        W43514  17.075  10.734  14.306 -0.1509 -0.0751 -0.2368
27381W        W43515  13.027  18.140   4.258 -0.0397  0.2828 -0.0246
27382W        W43516  11.472  10.928   1.592 -0.2583 -0.2353  0.1219
27383W        W43517   7.246  11.828   4.769  0.2064 -0.4672 -0.0253
27384W        W43518  19.084   3.443   2.966 -0.2138 -0.0354 -0.2864
27385W        W43519   3.735  12.295   3.352  0.0195 -0.2436 -0.3948
27386W        W43520   4.079   0.748  10.091 -0.1870 -0.0749  0.0119
27387W        W43521   2.223   1.376  14.504 -0.0703 -0.3514 -0.0432
27388W        W43522  16.348   0.294  13.925 -0.1399  0.0307  0.0051
27389W        W43523  15.884  16.944  11.556  0.1961 -0.3586  0.0674
27390W        W43524  16.393  14.908   4.396  0.2241 -0.3950 -0.1897
27391W        W43525   6.201  12.600  11.962  0.1310 -0.4357  0.1602
27392W        W43526   3.913  18.909  13.464  0.0347  0.0368 -0.6341
27393W        W43527   7.017  11.774   5.470 -0.0492  0.2019 -0.0099
27394W        W43528   6.639   5.273  14.338 -0.0109  0.2305  0.0879
27395W        W43529  11.781  11.424   1.410 -0.1497 -0.0368 -0.1476
27396W        W43530  17.983  17.884   0.837  0.0396  0.1035 -0.1173
27397W        W43531  15.216   4.322   3.123  0.4385 -0.1043 -0.1464
27398W        W43532  16.663  13.289   2.789  0.4619  0.0757 -0.3379
27399W        W43533   8.179   0.775   3.399 -0.6374  0.2177  0.0759
27400W        W43534  17.315  15.486   4.329  0.0198 -0.0248 -0.1285
27401W        W43535   7.224   4.121   4.626 -0.1406 -0.4485 -0.2075
27402W        W43536  12.366   0.367   2.655 -0.2763  0.0693  0.0301
27403W        W43537  10.513   5.389  13.783  0.0626 -0.3254 -0.0526
27404W        W43538  10.360   7.166   2.509 -0.1818 -0.1420 -0.2202
27405W        W43539  15.050   9.384  13.225  0.0047 -0.0040 -0.1237
27406W        W43540   7.870  10.994  12.099 -0.2570 -0.1013  0.0073
27407W        W43541   5.066  13.118   3.507 -0.0120 -0.2228 -0.1084
27408W        W43542  11.647  18.196   3.593 -0.1623 -0.3917  0.1374
27409W        W43543  17.391  14.625   0.194  0.0725  0.3374 -0.2336
27410W        W43544   1.560   9.240   1.543  0.2881 -0.0497  0.1651
27411W        W43545   6.924  15.854  12.706 -0.0105  0.1620  0.0511
27412W        W43546  12.908  17.091   3.802  0.1752 -0.0211  0.0288
27413W        W43547  15.743   3.739   3.478 -0.1669 -0.1021 -0.0778
27414W        W43548  15.999   1.126   9.993 -0.0423  0.4256 -0.1456
27415W        W43549  14.385   2.089  12.744 -0.0246 -0.1660 -0.0706
27416W        W43550   7.854  10.716  10.722  0.0014  0.4138 -0.1977
27417W        W43551   1.405   2.933   2.444 -0.1914 -0.2346 -0.2181
27418W        W43552  15.258  11.620   3.546  0.0117  0.1309  0.0638
27419W        W43553   7.659   4.661  13.083  0.0803  0.2252  0.0690
27420W        W43554   5.486  17.116  12.866  0.1004  0.0302 -0.2208
27421W        W43555   0.402  13.893  12.694 -0.0264 -0.2102  0.0822
27422W        W43556   4.785   7.375   4.149  0.0860 -0.3363 -0.4912
27423W        W43557   0.009   1.079   4.101 -0.5193 -0.0690 -0.1004
27424W        W43558  13.035  13.721   2.687  0.2016 -0.3506  0.0306
27425W        W43559  10.270  13.462   4.894 -0.2041 -0.2615 -0.3094
27426W        W43560  14.091   6.165  11.601 -0.1781 -0.1712 -0.0093
27427W        W43561  12.281   8.723   0.424 -0.1648 -0.0694 -0.0259
27428W        W43562  13.197  11.759   1.877 -0.0622  0.0658 -0.2392
27429W        W43563  14.995   4.921  12.555 -0.1124 -0.0762  0.1047
27430W        W43564  17.610   8.427   2.348  0.1199  0.0848  0.1880
27431W        W43565  12.181   0.283  10.274 -0.2267 -0.1729  0.0782
27432W        W43566   9.427   6.857   4.509  0.0077  0.0361  0.1058
27433W        W43567   8.653   0.026  11.877  0.2350  0.3958  0.0290
27434W        W43568   2.691   2.945  11.504 -0.1921  0.0425  0.2219
27435W        W43569  12.282   4.312   4.218  0.0957 -0.0064 -0.1732
27436W        W43570   1.023   0.638   5.130 -0.2413 -0.1642  0.4301
27437W        W43571  11.672   2.379   4.423 -0.1655  0.0650  0.4127
27438W        W43572   3.989   2.489  15.009  0.1807  0.0277  0.0897
27439W        W43573   6.930   8.708   2.279 -0.0355 -0.2934  0.1585
27440W        W43574  18.627  16.870   0.251  0.0586  0.1693 -0.2171
27441W        W43575   6.646  14.246  13.739 -0.1090  0.2873 -0.1553
27442W        W43576   0.220  16.613  11.560  0.1494 -0.1060  0.0160
27443W        W43577   2.735   8.824   9.868 -0.0036  0.1274 -0.0225
27444W        W43578  16.035  12.818  11.884 -0.1576  0.0596 -0.0805
27445W        W43579  14.161  11.144  13.099  0.0848 -0.0323  0.1163
27446W        W43580   5.186   6.582  12.987 -0.3220  0.0575 -0.0549
27447W        W43581   2.536   0.578   1.982  0.1446  0.0439  0.3216
27448W        W43582  14.519   0.727   4.060  0.1111  0.0389 -0.0482
27449W        W43583   2.104  16.969   2.880 -0.0737  0.0915 -0.1582
27450W        W43584   4.653  14.143  11.925  0.2377  0.0319 -0.3853
27451W        W43585   1.832   7.964   1.618 -0.0882 -0.1323 -0.1379
27452W        W43586   6.233  15.609  14.006 -0.0647 -0.3022  0.1594
27453W        W43587   9.397   2.857   0.095 -0.1384 -0.2852  0.0900
27454W        W43588  15.513   5.119  13.402 -0.1241  0.0667 -0.3257
27455W        W43589   1.636   5.848   4.195 -0.3253  0.0252  0.0579
27456W        W43590   2.998  15.326  10.902 -0.0430  0.1155 -0.2026
27457W        W43591  10.387  12.695  13.634 -0.0945 -0.0563  0.4649
27458W        W43592  13.105   4.566  12.664  0.1640  0.4664 -0.1416
27459W        W43593  18.819   9.354   5.586  0.3293  0.0501  0.6121
27460W        W43594  19.105   2.680   9.989 -0.1882  0.1026 -0.4584
27461W        W43595   8.287   7.642   5.124  0.0333  0.0960  0.1889
27462W        W43596  12.281  12.034   0.129  0.2066 -0.0452  0.0962
27463W        W43597   4.120  10.955   4.616  0.4891  0.1247 -0.0872
27464W        W43598   4.699   7.524   0.371 -0.1506  0.1200 -0.3573
27465W        W43599  10.239   5.384   5.163  0.0462 -0.0070  0.1900
27466W        W43600   4.428  16.894   3.396 -0.0080 -0.1029 -0.1022
27467W        W43601   7.236  15.427   3.759  0.2588  0.0436 -0.2891
27468W        W43602   6.768  18.862   0.192 -0.2010  0.2909 -0.0391
27469W        W43603  12.353   2.682  13.016  0.0442  0.0538 -0.1218
27470W        W43604   0.380   0.886   3.239  0.1134 -0.2268  0.2591
27471W        W43605   5.485  10.881   5.447  0.0194  0.0823 -0.0683
27472W        W43606   7.871  13.799   2.146 -0.1336  0.3252 -0.3340
27473W        W43607   0.674   0.605  12.683 -0.1250  0.3728  0.0928
27474W        W43608  13.075   1.535   5.049  0.0693  0.2579 -0.3982
27475W        W43609   1.716  15.251  11.413 -0.0431  0.3379 -0.0820
27476W        W43610   0.641  10.237   1.995 -0.2166  0.0689 -0.2650
27477W        W43611  18.483  13.531   4.801  0.2300  0.0909 -0.1572
27478W        W43612  17.427  12.230   1.726 -0.0567 -0.0732 -0.0048
27479W        W43613   2.412  11.168   1.154 -0.0525  0.1113 -0.0735
27480W        W43614   1.974   3.120   3.098  0.1949  0.0013  0.2363
27481W        W43615  15.833  10.341  12.873 -0.0383  0.2923 -0.0296
27482W        W43616   8.884   3.632   2.480 -0.0184 -0.3099  0.4126
27483W        W43617   8.104  14.983   0.018 -0.0990 -0.0571 -0.0787
27484W        W43618  11.983   6.899   4.791  0.0130  0.0240  0.1337
27485W        W43619   7.496   0.719  14.805 -0.0298 -0.3067 -0.2017
27486W        W43620   9.343  10.786   3.031 -0.2123  0.2207 -0.1035
27487W        W43621   6.594  15.464   4.785  0.2950  0.3025  0.0107
27488W        W43622   8.637  17.983   9.562  0.1229 -0.0492 -0.0640
27489W        W43623  16.771   1.943  13.942 -0.0350  0.1105 -0.0481
27490W        W43624   8.328  14.213   2.841  0.1429 -0.0325 -0.0197
27491W        W43625   1.429  15.634  12.862  0.0066 -0.0491 -0.2532
27492W        W43626  14.150   7.979   1.037 -0.0555 -0.2570 -0.1786
27493W        W43627  13.210   0.717  14.296 -0.0269  0.0836  0.0356
27494W        W43628   9.006  15.672  12.837 -0.3117  0.0268  0.4575
27495W        W43629   4.385   1.632  15.008 -0.0456 -0.1854 -0.0802
27496W        W43630  16.110  16.038  13.910  0.2081  0.0271  0.0884
27497W        W43631   3.379  18.345  14.644 -0.0941  0.1237 -0.0797
27498W        W43632  19.093   9.195  12.083 -0.2702  0.0373  0.0555
27499W        W43633   0.185   0.889  12.475  0.0378 -0.1529  0.3102
27500W        W43634   7.299  14.265   1.870  0.1362  0.0641 -0.2377
27501W        W43635  12.679   5.585   9.517  0.2119  0.3987 -0.2854
27502W        W43636   6.679  17.992   4.532 -0.3801  0.1274 -0.0010
27503W        W43637   9.762  13.017   4.129 -0.0611 -0.0173 -0.1471
27504W        W43638   6.513   1.417   2.064 -0.6249 -0.1927 -0.2216
27505W        W43639  12.215   4.003  12.425 -0.0246  0.0463 -0.0162
27506W        W43640   7.876  16.080   0.615  0.1123  0.0722  0.0620
27507W        W43641  10.286  14.963   4.412 -0.2037  0.1782 -0.2697
27508W        W43642   6.186   6.124  13.944 -0.2002 -0.0290 -0.1571
27509W        W43643  10.140  10.813   4.417 -0.1287 -0.2944 -0.1677
27510W        W43644   1.894   5.032   0.607  0.1636 -0.0564  0.2672
27511W        W43645  15.256   6.943   3.113  0.0610  0.0224 -0.1336
27512W        W43646   4.214   1.803   0.946  0.0924  0.0776  0.0880
27513W        W43647   1.799  18.034   3.975  0.1677  0.2588  0.0804
27514W        W43648   3.639  10.281  14.587  0.0026  0.1918  0.2037
27515W        W43649   9.870   8.258  12.196  0.0123 -0.0014 -0.0346
27516W        W43650  11.355  14.680   1.984  0.1835  0.0110 -0.1394
27517W        W43651   5.800   4.585  10.371  0.2468 -0.2675  0.0481
27518W        W43652  11.586  18.422   0.039 -0.0048  0.1269 -0.1083
27519W        W43653   2.430  10.712   2.393  0.0685 -0.1881  0.0250
27520W        W43654  15.280  11.015   1.813  0.0455 -0.1341  0.1328
27521W        W43655  18.409  11.732  14.906 -0.2537 -0.2575 -0.0752
27522W        W43656   9.208   1.660   3.957 -0.1939 -0.0844  0.0655
27523W        W43657   7.909  12.467   4.486  0.0600 -0.4407  0.2702
27524W        W43658  17.903  11.354   4.604  0.0269 -0.3489  0.0655
27525W        W43659   6.976   5.319  13.477 -0.0776 -0.2079 -0.0593
27526W        W43660  10.917  10.072  10.859  0.2685  0.1475 -0.1240
27527W        W43661  13.800  10.564   1.072  0.1721 -0.1774 -0.0101
27528W        W43662  16.278   2.507   2.795 -0.1686 -0.0202  0.0289
27529W        W43663  18.058   9.991   1.730 -0.1046  0.2519  0.1895
27530W        W43664  13.582   3.981  13.365 -0.2380  0.1099 -0.0450
27531W        W43665  17.797   9.653   0.082  0.0569 -0.3123  0.0298
27532W        W43666  15.110  10.115   4.289  0.0822 -0.0635 -0.3347
27533W        W43667  16.515  18.718  14.012 -0.0497  0.0621 -0.0791
27534W        W43668   5.753  14.630  14.942 -0.0009 -0.1025  0.0629
27535W        W43669  18.245   1.034  10.964  0.3077 -0.1657  0.1523
27536W        W43670   8.596   7.778   0.565  0.1130  0.0531 -0.1778
27537W        W43671   3.214  16.764  13.261 -0.1584  0.1097  0.1475
27538W        W43672   2.237   2.260   1.270  0.1055  0.2410 -0.1420
27539W        W43673   6.007   0.158   9.996 -0.0453 -0.2040  0.0680
27540W        W43674   5.075  10.069   2.768 -0.1320 -0.1675  0.0088
27541W        W43675   1.891   4.390   2.144 -0.0102  0.0489  0.1225
27542W        W43676   8.052   9.469  12.989 -0.0465 -0.1688 -0.4314
27543W        W43677  15.511   3.326  11.042  0.0037  0.1421 -0.1953
27544W        W43678  13.325   7.604   2.728  0.2232  0.3083  0.0013
27545W        W43679   7.550  15.402   2.729  0.0085 -0.0051 -0.0399
27546W        W43680  15.264  13.809  15.128  0.1360 -0.2793 -0.1703
27547W        W43681   1.930   8.777  14.185  0.5163  0.1932 -0.1531
27548W        W43682   9.478  13.355   3.292 -0.0670 -0.0994  0.0214
27549W        W43683  10.824  10.868  12.493  0.0802  0.2973  0.2022
27550W        W43684  10.504   1.143   1.020 -0.0700  0.1930 -0.5105
27551W        W43685  18.318  15.082  11.718 -0.1158  0.2562  0.0656
27552W        W43686  18.011   7.868   8.886 -0.4328 -0.0593 -0.2460
27553W        W43687  16.879   8.731  13.063  0.0681  0.0759  0.2008
27554W        W43688   7.718   7.852  14.864 -0.0008 -0.0112  0.1556
27555W        W43689  16.653  15.672  14.850 -0.1269  0.1587 -0.2837
27556W        W43690  15.386  14.733  10.971  0.2457 -0.1513  0.0798
27557W        W43691   7.046  15.756   0.964 -0.0989 -0.2714  0.1723
27558W        W43692   8.277   9.793   1.629  0.0666 -0.2171  0.1774
27559W        W43693  15.850   1.529  10.836  0.0669 -0.1479 -0.0056
27560W        W43694   8.675  13.380  10.763 -0.0833 -0.4257 -0.0900
27561W        W43695   6.115   7.263   1.047  0.4321 -0.2474 -0.1968
27562W        W43696  17.913  18.956   3.092  0.0003  0.1856 -0.0361
27563W        W43697  18.960  12.566   3.442 -0.2574 -0.3002  0.3006
27564W        W43698  17.216   0.958   2.536  0.1882 -0.0265 -0.0687
27565W        W43699   6.652  12.775   2.254  0.0573 -0.0964  0.1614
27566W        W43700  17.051  14.540  13.686 -0.3408 -0.3525  0.1303
27567W        W43701   1.867   4.637   4.885  0.0800 -0.1522  0.1084
27568W        W43702   8.644   1.208   1.427 -0.4450  0.3676  0.2593
27569W        W43703  13.720  18.116  11.478 -0.3316  0.1372 -0.0002
27570W        W43704  14.017   6.145   4.257 -0.2668  0.3994 -0.1390
27571W        W43705   1.832   4.923   1.986 -0.1722  0.0701  0.1093
27572W        W43706  12.360  15.748  13.674  0.0780  0.1618 -0.3028
27573W        W43707  11.028  18.782   4.715  0.1368 -0.2174 -0.2932
27574W        W43708  12.477   7.155  11.121 -0.1658  0.1914  0.0729
27575W        W43709   9.907   3.335   0.620  0.0471  0.1249  0.3611
27576W        W43710  14.226  15.006  10.635  0.2308 -0.1200  0.0972
27577W        W43711  11.051   5.561   0.941  0.1582  0.2436 -0.1665
27578W        W43712  13.058  13.285   1.257  0.1072 -0.2467  0.2362
27579W        W43713   1.033   8.389  11.035  0.0674  0.1431 -0.1260
27580W        W43714   7.885  13.545  10.263  0.2591 -0.4220 -0.2343
27581W        W43715  17.857  16.541   2.728 -0.0295 -0.1776 -0.0083
27582W        W43716   7.534   8.235  14.060 -0.3973  0.3228  0.4416
27583W        W43717  16.562  16.346   1.734 -0.0937 -0.1311 -0.1082
27584W        W43718  10.261   5.392  11.452  0.0981  0.4775 -0.2015
27585W        W43719  10.312   4.824   3.028 -0.0915  0.0789  0.1119
27586W        W43720   3.718  11.928  13.691  0.0096 -0.2940  0.1359
27587W        W43721  11.633   8.617  14.200 -0.0189 -0.2623 -0.3873
27588W        W43722  15.481  13.400  14.811 -0.0867 -0.1512 -0.0507
27589W        W43723  18.348  16.853   3.306  0.0381 -0.3064 -0.0079
27590W        W43724  13.107  18.153  12.778  0.4541  0.3556 -0.3174
27591W        W43725   3.215   3.345  10.059 -0.0149  0.3799  0.1664
27592W        W43726  15.976   7.019   3.657  0.0677 -0.0910 -0.1361
27593W        W43727   0.265   5.585   3.450 -0.1460  0.0441 -0.0668
27594W        W43728   9.822   4.980   3.196  0.0009 -0.0217  0.1205
27595W        W43729   2.686  14.136   2.271  0.0645 -0.0940 -0.1058
27596W        W43730   0.360  14.773   2.123 -0.0120  0.3596  0.3719
27597W        W43731  17.109   9.490   1.702  0.0107  0.2488  0.0418
27598W        W43732   4.938   0.021  15.037 -0.0289  0.2079 -0.1409
27599W        W43733  17.831  18.204  12.674 -0.0653  0.4547  0.2141
27600W        W43734  13.013   3.102   4.419 -0.0699 -0.1339  0.0276
27601W        W43735  18.354  11.969  11.579 -0.3587  0.0622 -0.2216
27602W        W43736   8.711   9.234  11.560  0.1078 -0.0790 -0.0693
27603W        W43737   6.651   3.016   0.050  0.0928 -0.2009 -0.0467
27604W        W43738  12.635   8.640   3.398 -0.2399 -0.0907 -0.0297
27605W        W43739   0.954  12.038   4.813  0.0414 -0.0797  0.1568
27606W        W43740  12.772  14.725  14.478 -0.0404 -0.0030 -0.1187
27607W        W43741   1.484   4.096  11.417 -0.1451 -0.2720 -0.2559
27608W        W43742   8.623  11.627  14.804 -0.0978  0.0006 -0.0400
27609W        W43743   3.871  11.407  10.656  0.3838 -0.1369 -0.2233
27610W        W43744  14.992  11.071   2.628  0.0826  0.1756 -0.1169
27611W        W43745  13.786  14.959  12.925  0.3618 -0.0972 -0.2571
27612W        W43746  15.597   5.971  13.006 -0.1155 -0.0047 -0.0405
27613W        W43747   7.131   4.141   3.332 -0.1422 -0.2471  0.2275
27614W        W43748   6.298   4.947  13.075  0.3612  0.1659  0.0646
27615W        W43749   6.182   9.999  13.167  0.2638 -0.4174 -0.2170
27616W        W43750   9.607   7.361  14.603 -0.2080 -0.0277 -0.2257
27617W        W43751  13.966   8.435   0.703 -0.1175 -0.2797  0.0604
27618W        W43752   9.415   4.561  13.349  0.0011 -0.2890  0.0832
27619W        W43753   3.358   4.024   0.550  0.2452 -0.1767 -0.3883
27620W        W43754  13.722  15.328   3.056 -0.2052  0.0318  0.1046
27621W        W43755   4.394  12.305   1.147  0.0765 -0.1997  0.1564
27622W        W43756  15.782  13.575   0.111 -0.0734  0.1564 -0.3532
27623W        W43757   7.138  19.088   2.390  0.0581 -0.0435  0.3644
27624W        W43758  17.749   6.761  13.405 -0.3197 -0.1280  0.0383
27625W        W43759   9.719  18.830   0.183 -0.0554  0.1472 -0.2020
27626W        W43760  11.490  14.447  14.319 -0.5434 -0.3100 -0.1189
27627W        W43761   2.190  18.153  11.261  0.2508  0.1488  0.2823
27628W        W43762  15.363  16.991  14.863  0.0851  0.4141  0.0262
27629W        W43763   4.398  14.134   1.401 -0.0484  0.2604  0.1571
27630W        W43764   5.077   0.937  11.109 -0.2467  0.2019  0.3904
27631W        W43765   5.065   3.091  10.850  0.1631 -0.1016 -0.2664
27632W        W43766  13.745   0.723   9.774 -0.0326  0.2584 -0.3252
27633W        W43767  15.922   2.183   3.904  0.1110 -0.3269  0.1682
27634W        W43768   6.272  12.209   5.133 -0.0263  0.2129  0.3249
27635W        W43769  11.320   1.270  14.717 -0.2111  0.0753  0.1671
27636W        W43770  10.923  14.935   4.700  0.2470 -0.1202 -0.0058
27637W        W43771  16.079  17.253   0.001 -0.1317 -0.1358 -0.3662
27638W        W43772   2.772  15.696   2.906 -0.0382  0.0336  0.2355
27639W        W43773   4.656  12.809   4.914  0.0930 -0.1375  0.1261
27640W        W43774   9.080  18.013  14.953 -0.1160  0.0922 -0.2590
27641W        W43775   8.922  15.908  14.780  0.1175  0.0477  0.1157
27642W        W43776   8.866  15.743   5.558  0.1310 -0.0813 -0.3537
27643W        W43777   6.297  17.634  12.552  0.1369 -0.3232  0.0203
27644W        W43778  10.608   3.205   2.128 -0.0523  0.1616  0.0665
27645W        W43779  11.645  17.716  11.434  0.0887  0.0690 -0.0820
27646W        W43780  11.743  13.372   2.378  0.5284  0.3094  0.1851
27647W        W43781  12.935  18.320  14.209 -0.1147 -0.2634 -0.1985
27648W        W43782   6.283   2.509   2.675 -0.0035 -0.0853 -0.2490
27649W        W43783  14.684   8.489  10.420 -0.0376 -0.0723  0.0940
27650W        W43784  11.552   9.776  12.965  0.1969  0.1908 -0.2573
27651W        W43785  18.993  10.454   4.456 -0.1100 -0.3677 -0.0150
27652W        W43786  13.475   3.409  12.067  0.0293 -0.0471 -0.0648
27653W        W43787  16.104   4.223  11.966  0.4351 -0.0735 -0.2853
27654W        W43788  17.117   7.793  14.527  0.0566 -0.1272  0.0669
27655W        W43789   5.718   5.243   1.505 -0.0826  0.0759 -0.0170
27656W        W43790  17.864  17.169   5.052  0.4442  0.1745  0.5004
27657W        W43791   1.996  16.368  14.580  0.0563  0.0005 -0.0537
27658W        W43792  12.327   1.071  13.295 -0.0780 -0.0738  0.1655
27659W        W43793   4.145  14.680   0.504  0.1463 -0.1004 -0.2357
27660W        W43794  17.566  11.670  15.203 -0.1227  0.2641 -0.0744
27661W        W43795  11.655  11.706   2.207 -0.0119 -0.1633 -0.1882
27662W        W43796   4.534  17.455  13.276 -0.0715 -0.3757 -0.0578
27663W        W43797   1.555   7.227  10.029  0.2725  0.0857  0.4640
27664W        W43798  15.786   0.428  11.599  0.0881 -0.0680 -0.0697
27665W        W43799   8.492   9.066   0.157  0.3514 -0.1841 -0.1488
27666W        W43800   7.850   0.808  13.324 -0.3338 -0.0763  0.1737
27667W        W43801  14.359   0.363  12.865 -0.0058 -0.3103  0.1249
27668W        W43802   5.334   6.821  10.724  0.3399  0.0889 -0.2323
27669W        W43803   5.244  12.494   4.400  0.1152 -0.3395 -0.0976
27670W        W43804   4.684  12.143  14.960 -0.0647 -0.0951  0.1629
27671W        W43805   8.298  13.110   3.969  0.2799 -0.3204 -0.3138
27672W        W43806   9.117  14.471   0.848 -0.0013 -0.0045 -0.0680
27673W        W43807   8.934  11.844  14.418  0.1159  0.0747  0.0589
27674W        W43808   7.512   1.815  12.724  0.0739  0.1208  0.2656
27675W        W43809  14.235   9.877   2.949 -0.0053 -0.0500 -0.0938
27676W        W43810  10.281   5.658   3.638 -0.0870 -0.1188 -0.0793
27677W        W43811  17.037   0.246  12.687  0.0329  0.3736  0.3925
27678W        W43812  15.369   3.974  12.264  0.3255  0.0278 -0.0259
27679W        W43813  12.723   0.590   3.041  0.1552  0.0514 -0.2020
27680W        W43814  13.258   1.425   3.405  0.1648  0.1333  0.1246
27681W        W43815   6.214   6.348   0.707 -0.0533 -0.0079  0.1794
27682W        W43816  12.989  17.847   1.310 -0.0007 -0.3029 -0.0236
27683W        W43817  16.864  12.987   1.203 -0.0637  0.2791  0.4575
27684W        W43818   1.651   8.323   3.359  0.2308  0.1485 -0.1775
27685W        W43819   9.096   4.664   4.736 -0.2266  0.1041 -0.2444
27686W        W43820  13.900   3.537   2.090  0.0206  0.1640 -0.3915
27687W        W43821  19.123  14.092  11.710  0.2773  0.1856  0.1222
27688W        W43822  11.605  15.514   3.198 -0.0002 -0.1897 -0.2846
27689W        W43823  16.412   7.043   3.361  0.1661 -0.5524  0.2007
27690W        W43824   2.931  18.525  11.960  0.5036 -0.0217  0.3382
27691W        W43825   4.124  17.462  10.691 -0.1086  0.1480 -0.1741
27692W        W43826  18.254  13.725   0.759  0.0387 -0.2436  0.2258
27693W        W43827   5.692   4.564   4.268  0.0812 -0.1152 -0.1286
27694W        W43828   2.292   5.679  11.353  0.0153 -0.1747  0.0955
27695W        W43829   5.699  10.345  12.271 -0.2564  0.2829 -0.0797
27696W        W43830   3.999  10.891  10.687  0.0153  0.0739  0.1005
27697W        W43831  10.468  12.702   9.948 -0.0159 -0.4266 -0.1231
27698W        W43832  14.888   6.239   3.089  0.0633 -0.0056 -0.0241
27699W        W43833   2.587   5.349   4.580 -0.2892 -0.2818 -0.2682
27700W        W43834   0.169   9.417   1.691  0.0262  0.0418 -0.4110
27701W        W43835  10.343   7.820   2.001 -0.2529  0.0324 -0.1799
27702W        W43836  14.274  14.693  10.249  0.0973  0.1422  0.1436
27703W        W43837   9.415  14.651   1.708 -0.3268 -0.1690 -0.3781
27704W        W43838  14.788  16.828  13.751 -0.2088 -0.2379  0.1154
27705W        W43839   4.995  13.828  10.976 -0.2142  0.0548 -0.0242
27706W        W43840   6.933   4.820  10.676  0.1057  0.0350 -0.0815
27707W        W43841   8.011   9.272   1.502 -0.1924 -0.3561  0.0734
27708W        W43842  14.497   1.617  10.564  0.0056 -0.1454 -0.1077
27709W        W43843   4.036   8.330   3.153 -0.2546 -0.0320 -0.0066
27710W        W43844   7.623   7.824   2.975 -0.2824 -0.0316 -0.1492
27711W        W43845   5.801   1.562  12.084  0.1751  0.0210  0.1219
27712W        W43846  17.889   3.036   1.693 -0.4888  0.0627 -0.1698
27713W        W43847  11.085   1.767  15.010 -0.1560  0.2338  0.3482
27714W        W43848   1.324   3.750  13.891  0.1304  0.1429 -0.4710
27715W        W43849   7.416  17.897   1.851 -0.4528  0.0406  0.2204
27716W        W43850   5.411   3.536   9.606  0.3164  0.1336  0.1105
27717W        W43851   5.976   1.703   2.403  0.1409 -0.1717 -0.0016
27718W        W43852  12.915   8.645  14.336  0.4450 -0.3798  0.4231
27719W        W43853   7.400  16.691   4.635  0.1151  0.1558 -0.1162
27720W        W43854  17.846   8.664  12.702  0.2403 -0.1683 -0.1150
27721W        W43855   8.920   0.323   2.342  0.1381 -0.0758 -0.0726
27722W        W43856   4.643  14.069   1.916  0.3110 -0.0516  0.1271
27723W        W43857   6.564   6.509   1.881 -0.1401  0.0376 -0.0234
27724W        W43858  10.418  12.238   4.654  0.3732  0.0344  0.2327
27725W        W43859  17.528  16.000   1.515  0.5248  0.5473 -0.0376
27726W        W43860   8.270  18.869   4.503 -0.1045 -0.0934 -0.0774
27727W        W43861  16.663  12.556  14.123  0.0990 -0.2302  0.1163
27728W        W43862  10.885   8.963   4.353 -0.1208 -0.2192 -0.0868
27729W        W43863  18.933   4.442   0.136  0.2123 -0.1921  0.2086
27730W        W43864  10.282   8.557   3.951 -0.0433  0.0221 -0.1089
27731W        W43865  13.391   7.954  11.793 -0.1901 -0.4737 -0.0916
27732W        W43866  13.954   7.077   0.667 -0.2167 -0.2825 -0.2290
27733W        W43867   8.414  12.254   2.884  0.0279  0.1652  0.1877
27734W        W43868   3.041   0.593   1.680 -0.0602 -0.0303 -0.1081
27735W        W43869  16.981   7.666   4.070 -0.2004  0.0769 -0.3539
27736W        W43870   7.720  11.961   4.855 -0.0778 -0.1161  0.3455
27737W        W43871   2.528   1.283  10.790  0.1746 -0.1490 -0.0794
27738W        W43872  15.624  16.357   1.641  0.0530 -0.2988  0.1463
27739W        W43873  15.487   5.604  10.177 -0.0209  0.1823 -0.3733
27740W        W43874  16.603  11.664  13.982  0.1474 -0.1817  0.1670
27741W        W43875   2.562   9.092   2.669  0.2884 -0.2836  0.3923
27742W        W43876   3.602   8.593   2.086 -0.0871 -0.0249 -0.0713
27743W        W43877   5.852  16.065  15.189 -0.0390 -0.1110 -0.4426
27744W        W43878   4.912   3.526   4.507  0.1137 -0.0811 -0.1716
27745W        W43879  18.403  15.087   0.154 -0.4711  0.0461  0.0218
27746W        W43880   7.313   1.962   0.766 -0.1357  0.1163 -0.1364
27747W        W43881  15.712   3.207  13.095  0.0828  0.1018  0.1345
27748W        W43882  18.336  18.885   0.903  0.2618  0.1769 -0.0191
27749W        W43883  12.463  10.024  11.251  0.0377  0.1950 -0.0379
27750W        W43884   6.218   8.549   2.971 -0.0687  0.0915  0.1440
27751W        W43885   4.474   7.628   2.301  0.1373  0.3253 -0.1621
27752W        W43886  11.993  14.864   3.856  0.1072 -0.0700  0.1003
27753W        W43887   0.386  18.438  13.519  0.3869  0.1232 -0.0051
27754W        W43888  12.209   5.409   3.115  0.2899  0.1483 -0.0967
27755W        W43889  15.151   6.746  10.635  0.0931 -0.3149 -0.3057
27756W        W43890   6.426   3.971  11.532  0.1864  0.0305 -0.0997
27757W        W43891   8.043   8.529   2.556 -0.1540 -0.4273  0.1327
27758W        W43892  14.221   6.251   2.543 -0.0377  0.2003 -0.2468
27759W        W43893   1.430  18.563   1.878 -0.1897 -0.0345  0.0613
27760W        W43894  18.518   8.855   0.790 -0.1187  0.2806  0.2648
27761W        W43895  10.307   3.245   1.358 -0.0831  0.0871  0.1324
27762W        W43896  11.392  18.480  10.426 -0.2273 -0.3217  0.1994
27763W        W43897   7.029  15.892  14.187 -0.1805  0.0889  0.1315
27764W        W43898   0.095   5.537  11.070  0.4204 -0.2931  0.0720
27765W        W43899  11.894   6.078  15.022 -0.3758 -0.2327  0.0020
27766W        W43900   8.645  10.520  13.991  0.1356 -0.2597  0.1481
27767W        W43901  13.666  14.381  14.150 -0.0107  0.0727  0.0991
27768W        W43902   1.982  12.472   0.471 -0.0196  0.2556  0.0742
27769W        W43903   4.612  10.950   4.427  0.1218 -0.3259 -0.1156
27770W        W43904   7.031  15.431   5.158  0.1302  0.1535 -0.2019
27771W        W43905   7.039  15.465   3.280  0.1246 -0.2153 -0.1419
27772W        W43906  12.192   9.273   4.681 -0.2114 -0.3510  0.2829
27773W        W43907  17.336   6.660  14.023  0.1623 -0.1579 -0.1970
27774W        W43908   0.818   1.336   3.996  0.3187  0.1231 -0.2721
27775W        W43909  12.793  17.360  14.032  0.0215  0.2060  0.2368
27776W        W43910   6.901   1.078   1.849 -0.0969  0.1086 -0.0599
27777W        W43911  12.956  11.157  11.287 -0.0074  0.3794  0.1787
27778W        W43912  11.682  14.298   2.084 -0.1260 -0.0299  0.1636
27779W        W43913   9.587   9.942   2.063  0.0290 -0.0308 -0.3446
27780W        W43914  13.884  17.163   1.299  0.5221  0.0765 -0.0377
27781W        W43915   1.826   3.257  13.151 -0.1730  0.0765 -0.0416
27782W        W43916   7.987  12.860   1.625 -0.0330  0.3832  0.3728
27783W        W43917   2.550   9.451  12.971 -0.0749  0.5044 -0.1492
27784W        W43918   4.232  18.189  11.728 -0.4238  0.0190  0.1317
27785W        W43919  15.538   4.527  10.462 -0.0645  0.2133  0.2831
27786W        W43920   1.315  14.552   2.445  0.0947 -0.1364  0.0468
27787W        W43921  10.245  17.307   4.637  0.0633  0.0764  0.1877
27788W        W43922   3.085  14.964   3.565  0.2041 -0.2589 -0.2898
27789W        W43923  15.367   0.631   3.399 -0.2287 -0.2159 -0.0754
27790W        W43924   8.359   9.932  15.134  0.2580  0.3499 -0.0162
27791W        W43925   1.639   0.966  13.352 -0.0452  0.0129  0.0303
27792W        W43926  10.323  10.065  14.181  0.0579  0.2834  0.1330
27793W        W43927  10.151   0.613  10.311  0.1247 -0.0547  0.0543
27794W        W43928  18.919   9.318  13.475 -0.0230 -0.0869 -0.0551
27795W        W43929   4.530   5.475   3.792  0.0976 -0.2405  0.1832
27796W        W43930   8.399   4.659   2.417  0.1739 -0.0853  0.0405
27797W        W43931   8.744  17.493   3.109  0.1609 -0.1106  0.1371
27798W        W43932  13.187  11.235  13.105 -0.1430 -0.2690 -0.0706
27799W        W43933  18.958  13.861   1.642 -0.0976  0.1842 -0.1136
27800W        W43934  12.594  11.503  14.407  0.0677 -0.2218  0.0717
27801W        W43935   6.043   1.001   3.619  0.1125 -0.0252 -0.0604
27802W        W43936   8.226   3.015  12.040 -0.0940  0.1294  0.1946
27803W        W43937  18.764  13.625   3.084 -0.2285 -0.1546 -0.0029
27804W        W43938  10.502  18.405   0.140 -0.0637 -0.0882  0.3970
27805W        W43939  15.983   2.876   2.599 -0.2018  0.2550 -0.1704
27806W        W43940   6.843  17.418  14.782 -0.1821  0.0983  0.1363
27807W        W43941   0.481  14.070   1.476  0.1943  0.2151 -0.0535
27808W        W43942  17.496  12.617  15.202 -0.1139  0.0257  0.0570
27809W        W43943   5.328   7.434   0.342  0.0516 -0.2063 -0.2973
27810W        W43944  11.091  12.843   3.585  0.0790 -0.0040 -0.3328
27811W        W43945   7.212   7.928   5.370 -0.1079 -0.0210 -0.1659
27812W        W43946   5.781   2.532  11.268 -0.0840 -0.0358 -0.2946
27813W        W43947   2.155  18.985   4.840  0.2828  0.2362 -0.2567
27814W        W43948   2.067  17.853   1.819 -0.1143  0.0564  0.2010
27815W        W43949   8.450   4.732  14.345  0.1728 -0.3537  0.1225
27816W        W43950   3.279  17.223  11.642  0.0088 -0.0937  0.2566
27817W        W43951   5.922   1.919   0.200  0.2844  0.3204 -0.0777
27818W        W43952   9.493  12.271   2.613 -0.1294  0.2086  0.1513
27819W        W43953   1.451  12.569   0.505 -0.0250  0.1269  0.2734
27820W        W43954  13.152   8.001  11.362 -0.0666  0.0447 -0.1883
27821W        W43955   2.360  13.618   5.692 -0.0076  0.0210  0.0819
27822W        W43956   0.956   3.253  15.147  0.1161 -0.0899  0.1704
27823W        W43957  18.879  18.917   1.062 -0.2596 -0.1657 -0.0224
27824W        W43958  18.944  18.573  12.519 -0.0677 -0.1663 -0.0162
27825W        W43959   0.156   0.183   5.006 -0.0399 -0.0262 -0.0679
27826W        W43960  10.792  14.389   3.857 -0.1503  0.2345  0.0600
27827W        W43961  16.111   4.755  13.512 -0.0993 -0.1830 -0.2089
27828W        W43962  18.353  19.095  13.989 -0.3197  0.0308 -0.1581
27829W        W43963   9.647  14.081   5.196  0.0519 -0.0091  0.2546
27830W        W43964   3.454   5.763   1.811  0.1013 -0.5168 -0.1566
27831W        W43965   9.597   7.681   2.958 -0.2024  0.1150  0.2237
27832W        W43966   1.085  14.147   3.719 -0.2709 -0.0302 -0.3583
27833W        W43967  10.409  17.452  12.231  0.0535  0.0459 -0.0621
27834W        W43968   1.587  10.158   3.183  0.0020 -0.1779  0.1442
27835W        W43969   8.022  10.643   0.557 -0.0418  0.2582  0.3148
27836W        W43970   2.556  12.459   4.210 -0.4257  0.1271  0.1786
27837W        W43971   0.443  10.906  13.452 -0.0701 -0.0386  0.1828
27838W        W43972   4.713  11.193   3.964 -0.0082 -0.0690 -0.0358
27839W        W43973   4.347  16.439   3.408  0.1612  0.2619  0.0438
27840W        W43974  10.345  14.225   1.863  0.0731 -0.0340  0.0455
27841W        W43975  13.141   1.573  13.274  0.2960  0.0075 -0.0945
27842W        W43976   3.285   3.554  12.333  0.1057  0.4141 -0.0554
27843W        W43977  14.955   5.582   2.181 -0.1604  0.2338 -0.2544
27844W        W43978   9.328   0.409   3.951  0.1337  0.0788 -0.0675
27845W        W43979  11.968   0.264  13.691 -0.0977  0.3467  0.2516
27846W        W43980  13.616  12.142  14.156  0.0033  0.4137 -0.1132
27847W        W43981   5.373  15.182   0.216  0.3283  0.4002  0.0267
27848W        W43982  11.246   5.988   0.571 -0.2291 -0.0282 -0.0244
27849W        W43983  18.108  16.375  11.538 -0.0445  0.0660 -0.2274
27850W        W43984  12.202   8.667   3.660  0.0478  0.2053 -0.2814
27851W        W43985  12.079  14.986  12.885 -0.0762 -0.0409 -0.0329
27852W        W43986   8.762  14.075   3.314 -0.4457 -0.3452  0.1942
27853W        W43987   8.930  13.544  15.002  0.1340 -0.1234  0.0124
27854W        W43988  12.481   0.457  14.889  0.1069 -0.0943 -0.1288
27855W        W43989   0.023   7.522   1.519 -0.1073  0.4003 -0.1993
27856W        W43990   2.921   0.375  14.181 -0.3866  0.0761  0.0235
27857W        W43991  17.845   7.216   0.348  0.0042 -0.2875 -0.2624
27858W        W43992  12.091  15.687   0.082 -0.0966 -0.1535 -0.1172
27859W        W43993  10.472   5.163  14.219 -0.0798  0.1635 -0.4297
27860W        W43994  18.452  19.110  11.321 -0.0821 -0.0838 -0.3402
27861W        W43995   1.071  19.036  12.255 -0.0112 -0.1696 -0.0569
27862W        W43996  17.213   1.262   4.105  0.1090 -0.1482 -0.0039
27863W        W43997  12.652   7.110   3.178 -0.2822  0.1081 -0.0883
27864W        W43998  10.002   6.971  12.441 -0.0730  0.0901  0.2899
27865W        W43999  11.480   0.770   5.160  0.1854  0.0226 -0.0324
27866W        W44000  14.600   2.243  14.909  0.2614 -0.1932  0.0714
27867W        W44001  10.966   2.374  12.040  0.3229  0.1687 -0.2468
27868W        W44002   4.849   1.841   4.022 -0.1055  0.2108  0.1235
27869W        W44003  13.702   3.899  10.933  0.2299 -0.0901  0.1549
27870W        W44004   2.521   9.883   0.414  0.0619 -0.0062 -0.1031
27871W        W44005   7.720   5.766   1.538  0.1628  0.0612  0.0436
27872W        W44006  10.272  15.249  12.682  0.2799  0.0928  0.0825
27873W        W44007  18.376  17.069  13.734 -0.1014  0.0211  0.0937
27874W        W44008   1.992   3.920  12.661  0.2394 -0.1071 -0.0072
27875W        W44009  16.339   7.113   1.630 -0.0040 -0.2466  0.1032
27876W        W44010   0.092  13.425  11.514  0.0945  0.2639  0.2605
27877W        W44011   4.778  11.790   4.194 -0.0254 -0.4521  0.2787
27878W        W44012   3.425   3.756   0.059  0.0657  0.0567 -0.4705
27879W        W44013  17.980  18.654  12.476  0.3017 -0.0907  0.1215
27880W        W44014  12.164  13.497   2.818 -0.0280  0.1780  0.2144
27881W        W44015   9.917   3.559  13.494 -0.0216 -0.1770 -0.0941
27882W        W44016  11.277  11.268   3.660  0.1285  0.0717  0.0724
27883W        W44017   5.954   1.108  14.085  0.0062  0.0254 -0.1587
27884W        W44018   9.372  12.274  12.940  0.1247  0.0990 -0.1310
27885W        W44019  12.173   7.075   0.159  0.0170  0.1688  0.0524
27886W        W44020   7.457   4.868  14.547 -0.1621 -0.0859 -0.1989
27887W        W44021   4.932  18.904  11.738 -0.2903 -0.1127  0.0960
27888W        W44022   9.101  14.644  11.074  0.2011 -0.0699 -0.0030
27889W        W44023   0.102  14.360   1.842 -0.0558  0.2689  0.0785
27890W        W44024   9.811   0.927  12.605 -0.3116 -0.1615 -0.2403
27891W        W44025  11.147   9.553   0.827 -0.2466 -0.2480  0.0925
27892W        W44026   9.075  10.129  10.946 -0.0409 -0.1143  0.3572
27893W        W44027  11.811   7.813   4.710 -0.0523 -0.1707 -0.2764
27894W        W44028  18.749   5.795   1.774 -0.1074 -0.0147  0.0979
27895W        W44029   4.305  14.940   4.143 -0.1955 -0.0863 -0.1628
27896W        W44030  12.388  18.987  10.300 -0.2354  0.3427  0.2804
27897W        W44031  11.175   5.093  10.862 -0.1039  0.1063 -0.0625
27898W        W44032   2.106   7.312  10.471 -0.1117 -0.1703 -0.0797
27899W        W44033   5.770  10.792   1.864 -0.4126  0.0622 -0.3211
27900W        W44034   9.612  18.159   1.248 -0.1980  0.0586  0.1219
27901W        W44035   1.040   7.116   0.233 -0.0208  0.0663 -0.2336
27902W        W44036   1.670  11.354  14.112  0.1823 -0.1889 -0.3246
27903W        W44037  16.197   1.006   5.014  0.0016  0.0567 -0.3601
27904W        W44038  18.589  17.197   1.708 -0.1336 -0.4110  0.0329
27905W        W44039   5.712  18.632  11.735 -0.2473 -0.1787  0.2547
27906W        W44040  10.611   1.998   0.408 -0.1390 -0.3527 -0.0905
27907W        W44041   0.432   2.343  10.462  0.0526 -0.2931 -0.2996
27908W        W44042  13.432   7.659   0.012 -0.3283  0.2856  0.0646
27909W        W44043   5.273  16.184   1.813  0.2356  0.0617 -0.1506
27910W        W44044  14.059   0.305  11.523 -0.0577 -0.1801 -0.2110
27911W        W44045  17.304   8.380   1.741  0.0158 -0.1762  0.0735
27912W        W44046   2.433  16.300   0.109  0.0547 -0.3262  0.1868
27913W        W44047  13.406   4.013  11.392 -0.1741 -0.3796  0.0455
27914W        W44048  16.662   5.645   3.652  0.0363  0.2311  0.3639
27915W        W44049  16.317   5.319  11.082 -0.1312 -0.1904  0.0853
27916W        W44050   4.450   6.955   1.846 -0.2462 -0.0533  0.1632
27917W        W44051   2.538  10.697   2.889 -0.1401 -0.3728 -0.1949
27918W        W44052   5.053   8.797   2.266 -0.1484 -0.2475  0.0898
27919W        W44053  12.262  18.987   4.873 -0.1869 -0.1637 -0.1960
27920W        W44054   4.668  16.946  13.271  0.1125 -0.0148  0.0438
27921W        W44055  14.960  12.033  11.225  0.0794 -0.1100 -0.2735
27922W        W44056   0.156   0.442   0.505  0.0211  0.0214 -0.1167
27923W        W44057   3.234  13.166  10.955 -0.1435  0.2466 -0.5795
27924W        W44058  17.368  11.525   2.774 -0.2060  0.4655  0.0508
27925W        W44059  19.001   4.827  14.416  0.0638 -0.0654 -0.1281
27926W        W44060  13.081   2.023  13.423 -0.1485 -0.4185 -0.1797
27927W        W44061  11.299   0.938   1.860 -0.0261 -0.0813  0.0206
27928W        W44062   3.264  10.551   0.219  0.1793  0.2421 -0.0284
27929W        W44063   3.481   4.483   0.768 -0.3441 -0.2192  0.1644
27930W        W44064  12.333  17.987  13.425  0.1255  0.0292 -0.6929
27931W        W44065   6.357   8.375   4.317 -0.1717 -0.2952  0.1215
27932W        W44066  18.978   7.084  14.905 -0.1805  0.1067  0.1187
27933W        W44067  16.513  14.057   1.803  0.1832  0.0128  0.4810
27934W        W44068  12.732   1.925   2.613 -0.0640  0.2408 -0.2595
27935W        W44069   0.537   6.392  13.813 -0.1248  0.1966 -0.0119
27936W        W44070  15.360  14.058   1.781  0.1347  0.0549 -0.3231
27937W        W44071   4.283   4.930  11.523 -0.1202  0.0841  0.0811
27938W        W44072  14.328   2.449   0.078  0.1032 -0.0276 -0.0412
27939W        W44073   7.107   5.166   2.850  0.0411  0.0924 -0.0715
27940W        W44074  14.721   0.812   1.354 -0.1801  0.2739  0.2315
27941W        W44075  14.529  16.488   9.183 -0.3130 -0.1417 -0.0554
27942W        W44076  18.229   7.739  13.813  0.1983  0.0503  0.2302
27943W        W44077  17.196   7.792  15.031  0.0915 -0.2045  0.3245
27944W        W44078  11.741   6.029   4.345 -0.0831  0.0607  0.0963
27945W        W44079  11.827   0.410   0.660  0.3324 -0.0604  0.0534
27946W        W44080  17.759   0.723   4.693  0.3872 -0.0340 -0.0811
27947W        W44081   7.423   5.562  13.310 -0.0864 -0.0378  0.0078
27948W        W44082  16.470   9.328   2.923  0.2326  0.0190  0.2451
27949W        W44083   3.973   6.930   2.628  0.1071 -0.0466 -0.0960
27950W        W44084   6.418   9.513   3.300 -0.2671 -0.2398  0.0755
27951W        W44085   8.393   0.474   0.728 -0.1079  0.0156  0.0543
27952W        W44086  15.257   1.124   2.023 -0.0866  0.1512  0.1746
27953W        W44087   3.698   1.811  10.919  0.0711  0.2150 -0.0765
27954W        W44088  11.546   3.300   1.289 -0.2188  0.1216 -0.0822
27955W        W44089   8.580   4.444   0.182 -0.0752 -0.0927 -0.1385
27956W        W44090   4.111  18.685   5.452 -0.0488  0.1040 -0.0091
27957W        W44091   8.208  15.709   0.494 -0.3088  0.0085  0.1509
27958W        W44092  18.064  12.621  11.087 -0.1779  0.0591  0.1763
27959W        W44093   1.672  17.030   0.964 -0.0381 -0.2237 -0.2935
27960W        W44094   1.747   9.126   2.777  0.0363 -0.3002  0.0743
27961W        W44095  11.207   3.225  15.100  0.0657  0.4067  0.0182
27962W        W44096   2.975   1.313  10.553  0.0853  0.1965  0.4777
27963W        W44097  18.110   4.665   5.523 -0.0732  0.1763  0.2788
27964W        W44098  13.396   4.947  12.361  0.1041  0.0498  0.3130
27965W        W44099  10.991   4.294   1.511 -0.2842  0.0760  0.1159
27966W        W44100  13.013   8.286  13.116  0.0405 -0.1835 -0.0327
27967W        W44101  16.425   1.826  14.388 -0.2752  0.1447  0.0933
27968W        W44102   5.724  14.896   5.573  0.0978  0.1147  0.2556
27969W        W44103   5.162   8.340  13.904  0.3518  0.2007  0.0155
27970W        W44104   3.586   5.963  11.610 -0.1689 -0.3510 -0.1089
27971W        W44105   1.246  11.810   3.987  0.0428  0.1039  0.1759
27972W        W44106  11.442  15.235  12.322 -0.0546 -0.1328  0.0719
27973W        W44107  15.207  13.290  11.013 -0.1668  0.3101  0.0275
27974W        W44108   6.596  13.536   4.776 -0.4452 -0.0201  0.0592
27975W        W44109  11.482   0.680  11.388  0.2303 -0.0881  0.2220
27976W        W44110  14.015   7.258   5.596 -0.1157 -0.0289 -0.0884
27977W        W44111  16.662   5.272  10.672 -0.2152  0.1861 -0.0458
27978W        W44112  18.673   4.089   0.756 -0.2516  0.0310 -0.3161
27979W        W44113   7.435  18.131   1.365 -0.0448  0.0515  0.1263
27980W        W44114  16.136   4.482  14.484 -0.2347  0.1105  0.0661
27981W        W44115   2.702  10.829  13.073 -0.3632 -0.0248 -0.1404
27982W        W44116  13.886   0.589  11.094  0.2861 -0.1657 -0.2494
27983W        W44117   0.040   3.623   1.633  0.0279 -0.2873  0.1627
27984W        W44118  15.377  18.119  10.957 -0.2475 -0.2254 -0.0874
27985W        W44119  10.164  13.868   3.761  0.1834 -0.0343 -0.0793
27986W        W44120  14.648  11.164   1.175 -0.0507  0.3415 -0.3253
27987W        W44121   2.204   9.470   0.372  0.2077 -0.3425 -0.0200
27988W        W44122  13.133  14.534  15.024  0.0807  0.4646 -0.2092
27989W        W44123   3.633   1.999  13.279  0.1304  0.3460  0.3319
27990W        W44124  13.611  14.305  13.217  0.2072  0.1414 -0.2622
27991W        W44125   6.672   9.180   0.419  0.1992  0.3666  0.0513
27992W        W44126  10.612  10.815   4.305 -0.0847  0.1237 -0.0415
27993W        W44127  12.973   2.845   3.045 -0.1997 -0.0129 -0.0053
27994W        W44128   0.783   8.721   1.824  0.2224 -0.0447  0.1013
27995W        W44129  13.340   4.964  11.317  0.1646  0.0497 -0.0797
27996W        W44130   6.166  10.072   5.366 -0.0773 -0.0821 -0.0826
27997W        W44131  11.854   1.121  12.974  0.0278  0.1438 -0.0956
27998W        W44132  18.888  10.404   0.179  0.0113  0.3795 -0.0519
27999W        W44133  15.426  16.898   0.479  0.3349 -0.1869 -0.1952
28000W        W44134  18.341   8.216   9.635  0.3222 -0.0557  0.1588
28001W        W44135   8.778  16.589  13.459  0.1489  0.0827  0.1993
28002W        W44136  18.800   8.763  12.075  0.1543  0.2832 -0.0753
28003W        W44137  10.253  18.885   0.880 -0.3321 -0.0051  0.1580
28004W        W44138  18.794   1.636   1.055 -0.3477 -0.4560  0.0561
28005W        W44139   0.431   7.245   0.837  0.1797  0.0001  0.0622
28006W        W44140   2.178  11.407  13.829 -0.2465  0.1725 -0.0187
28007W        W44141   8.590   9.760  12.342 -0.0315  0.1232 -0.3640
28008W        W44142   4.421   0.392   1.653  0.0159  0.2359  0.2532
28009W        W44143   0.003   8.307   4.386  0.0971 -0.1683 -0.1112
28010W        W44144  12.401   4.251   2.362 -0.0539 -0.2993  0.3419
28011W        W44145  10.092  15.331  11.832  0.0836  0.0832  0.4198
28012W        W44146   4.162   7.872   5.372  0.0278  0.3579  0.1802
28013W        W44147   6.692  18.496   3.866 -0.2831 -0.4007  0.1293
28014W        W44148  15.854   7.245  12.511 -0.2456  0.1023  0.0181
28015W        W44149   2.576   7.344  13.901  0.1165 -0.0520  0.2077
28016W        W44150  17.925   4.581   0.622 -0.0010  0.4581  0.0503
28017W        W44151   3.058  12.505  13.212  0.2299 -0.1313 -0.0533
28018W        W44152   7.966  13.508  11.170  0.1087  0.0639 -0.0209
28019W        W44153   4.049   0.272  13.410 -0.0559  0.0514  0.1356
28020W        W44154  14.902  18.386  14.544 -0.2112  0.4408 -0.0837
28021W        W44155  10.899  14.408  10.728 -0.0491  0.0808  0.0556
28022W        W44156  15.809  17.003  13.027 -0.0177 -0.1487 -0.0241
28023W        W44157  16.185  16.466   4.856 -0.0394 -0.2200 -0.0524
28024W        W44158  16.967   8.008   2.385  0.2012 -0.1542  0.3600
28025W        W44159  14.186   0.614   2.350 -0.0849 -0.3405  0.0788
28026W        W44160  12.737  10.264  13.485 -0.1778  0.6511  0.0151
28027W        W44161   1.744  11.104   0.515 -0.1713  0.0406  0.0684
28028W        W44162   8.558  15.333   4.039  0.2158 -0.0458 -0.1139
28029W        W44163   3.010   6.680  14.554 -0.2325  0.0794 -0.1828
28030W        W44164   5.471   8.550  12.658  0.2349 -0.3267  0.2067
28031W        W44165   9.086   1.561   4.556  0.0931 -0.0249 -0.1812
28032W        W44166  14.287   7.597   2.902  0.3528  0.0839 -0.0041
28033W        W44167  10.844  10.843  15.154 -0.1666  0.2135  0.0344
28034W        W44168   2.539  13.592   2.450 -0.2973  0.1784  0.2593
28035W        W44169  11.850   6.411   1.637 -0.1975 -0.0302  0.1920
28036W        W44170  12.394   5.464   4.996  0.0926 -0.0275  0.0944
28037W        W44171   6.700   1.924  10.608 -0.1707  0.0890  0.0777
28038W        W44172  12.605   2.042  12.353 -0.1409 -0.0410 -0.1007
28039W        W44173  15.110  16.438  10.456 -0.1611 -0.1945  0.0812
28040W        W44174   9.837   3.201  14.470  0.1120 -0.2578  0.1511
28041W        W44175  11.249   5.843   3.615 -0.0847 -0.0297  0.4411
28042W        W44176   5.102  14.437  12.397  0.1171  0.4045 -0.1635
28043W        W44177  12.693  15.767  14.865 -0.2549 -0.1477  0.0855
28044W        W44178   6.846   0.442   3.579 -0.2645  0.1429 -0.1841
28045W        W44179  11.973   3.034   2.006  0.0284  0.4036  0.1876
28046W        W44180  13.720  13.153   2.629  0.2782  0.3126 -0.3104
28047W        W44181   9.165  17.707  14.100 -0.4637 -0.2791  0.2947
28048W        W44182   6.245   1.319  11.820  0.1510  0.4125  0.1397
28049W        W44183  14.400   3.377   0.173 -0.0911  0.1220  0.0285
28050W        W44184  19.044  17.893  11.220  0.1787  0.0102  0.0860
28051W        W44185   0.882   8.703  10.659 -0.4391  0.2269  0.0833
28052W        W44186  11.634   9.363   4.040  0.0271  0.3731  0.2369
28053W        W44187   5.050  16.569   3.766 -0.3112  0.1809 -0.0350
28054W        W44188   8.107  17.623   0.673  0.0315 -0.0459  0.0626
28055W        W44189  17.600   4.543   4.482  0.0568  0.2663  0.1169
28056W        W44190   6.838   3.784   2.902 -0.1515  0.1642  0.1908
28057W        W44191   5.737   3.731   5.180 -0.1662  0.1519  0.0384
28058W        W44192  16.431  14.513  10.728 -0.2591  0.5072  0.2844
28059W        W44193  18.897  15.341  12.419  0.1792 -0.1260 -0.3226
28060W        W44194   9.412  17.891   4.599  0.1577  0.5942 -0.2468
28061W        W44195  16.086   8.586   3.990 -0.0194 -0.2729 -0.1197
28062W        W44196   9.917   0.646  11.911 -0.3780 -0.1933  0.0809
28063W        W44197  14.570  10.318   4.907  0.2443 -0.0321  0.0305
28064W        W44198  11.340   4.588  13.002 -0.0868 -0.0851  0.2526
28065W        W44199   3.810   9.049   2.279  0.0735 -0.2010  0.1391
28066W        W44200   9.655  11.121  13.568 -0.4299 -0.2458 -0.0431
28067W        W44201  14.442   0.784  12.379 -0.0681 -0.2040  0.2262
28068W        W44202  11.655  16.001  12.034  0.0167 -0.1667 -0.0503
28069W        W44203   9.776  18.787   4.256  0.2064  0.4256 -0.2208
28070W        W44204  12.609  14.531  13.763 -0.0703 -0.0252  0.2125
28071W        W44205   0.573   5.590   2.160 -0.2084 -0.0681 -0.1611
28072W        W44206   6.747   4.370  14.108  0.1128  0.1070  0.1230
28073W        W44207   7.399   9.105   5.334  0.1322  0.1192  0.2683
28074W        W44208   8.670  15.043  14.061 -0.0517 -0.2082  0.2736
28075W        W44209  13.425   6.565   0.907  0.1515 -0.0564 -0.2377
28076W        W44210  11.361   8.066  13.086  0.0362  0.0695 -0.0405
28077W        W44211  18.647   5.692   1.337  0.1333 -0.1235 -0.1679
28078W        W44212  13.818   4.844   2.590  0.0922 -0.0024  0.0060
28079W        W44213   5.384   9.976   2.290  0.1879  0.1172 -0.0133
28080W        W44214   9.638  10.262  13.724  0.1932  0.0291 -0.2113
28081W        W44215   3.000   9.560   4.947  0.0423 -0.0940  0.2598
28082W        W44216   0.509  15.206   0.496  0.2186  0.1973  0.4438
28083W        W44217  18.537   8.791   3.724 -0.0210 -0.0618 -0.3449
28084W        W44218  12.601  13.401  14.479 -0.1609  0.0848 -0.0513
28085W        W44219  18.003   2.298   3.283 -0.1489  0.1242  0.1088
28086W        W44220   3.225   5.848   2.246  0.0223 -0.0621 -0.0303
28087W        W44221   0.825  16.962  11.894 -0.0999 -0.2267  0.0178
28088W        W44222  19.114   2.896   2.942  0.1804  0.0607 -0.0213
28089W        W44223  13.134  12.186  12.297  0.0393 -0.0585 -0.5480
28090W        W44224   7.481  12.587   0.706 -0.0078 -0.2233  0.2931
28091W        W44225   0.498  13.935   3.755 -0.0226  0.1683  0.0128
28092W        W44226  18.856  13.523   0.960 -0.2359  0.1970  0.0709
28093W        W44227   3.113   4.886   1.974 -0.2532  0.1080 -0.1538
28094W        W44228   0.277   1.183  14.143  0.0428 -0.2949 -0.1306
28095W        W44229  12.667   0.993   4.633 -0.3212 -0.1015  0.1551
28096W        W44230   6.721  18.940   1.529 -0.2193  0.0241  0.1046
28097W        W44231   9.816   3.114  13.690  0.3834 -0.0096  0.3482
28098W        W44232   2.073   2.004  11.082  0.2056 -0.1141  0.3621
28099W        W44233  13.222  12.353   3.652 -0.1410  0.0993 -0.1528
28100W        W44234  17.337   6.854  11.501  0.0645  0.2182  0.0327
28101W        W44235  10.836  16.058   1.102 -0.0275  0.1623 -0.1391
28102W        W44236  15.191  12.090   2.146 -0.0119  0.2057 -0.0487
28103W        W44237  12.687  15.299   3.315 -0.0264 -0.4301 -0.0525
28104W        W44238   6.141  18.236   2.553 -0.0304 -0.1230 -0.2223
28105W        W44239   5.686   5.418  13.748 -0.1544 -0.0580  0.0952
28106W        W44240   0.926   1.223   2.449 -0.2766 -0.4303  0.2000
28107W        W44241  18.079   1.298  14.167 -0.0680 -0.3342  0.0451
28108W        W44242   8.440  18.306   3.593  0.2518 -0.0455 -0.1833
28109W        W44243  11.182   5.004  14.834 -0.0720 -0.0679  0.1617
28110W        W44244   5.865   3.237   2.277  0.0145 -0.4329  0.4296
28111W        W44245  11.976   2.673  12.468  0.2041 -0.5438  0.0709
28112W        W44246   4.073  11.807   2.210 -0.3103 -0.0334 -0.0032
28113W        W44247   4.718   5.034   2.588  0.0637  0.2377  0.0098
28114W        W44248   0.751  14.315  14.221 -0.0898 -0.1321 -0.3987
28115W        W44249   7.807  13.159  12.364  0.1390  0.1945  0.0248
28116W        W44250   6.179  18.617   0.865  0.0220 -0.1687  0.0887
28117W        W44251   7.739   3.240  11.190  0.1009  0.1384 -0.3253
28118W        W44252  13.682   5.561  12.445 -0.1227 -0.1287 -0.2259
28119W        W44253   3.590   5.205  14.373 -0.1324 -0.1052 -0.0688
28120W        W44254   5.390   1.169   3.396 -0.2734 -0.0758  0.2111
28121W        W44255   8.363   0.618   2.779 -0.0113  0.0368  0.3395
28122W        W44256   2.360  12.986   3.054 -0.1160 -0.3395 -0.1053
28123W        W44257   2.790  16.079  10.674 -0.1257 -0.4050 -0.1548
28124W        W44258   7.474  16.550  11.127 -0.0001 -0.0345  0.2439
28125W        W44259   4.466   6.686  13.045 -0.1197  0.0474 -0.2638
28126W        W44260  18.466   3.653   0.414 -0.1166 -0.2754 -0.1166
28127W        W44261  12.168  14.021   2.583  0.2946 -0.0344  0.1856
28128W        W44262  11.638  18.288  12.154 -0.2289  0.3233 -0.1382
28129W        W44263  16.490   0.788   1.804 -0.1698 -0.0672  0.0818
28130W        W44264  13.739  15.828   4.365 -0.2046  0.0769  0.0586
28131W        W44265   3.822   0.616  13.887 -0.1768 -0.0132  0.0276
28132W        W44266  17.444   6.696   4.708 -0.3011 -0.0956  0.1187
28133W        W44267  12.923  10.211   0.002  0.1096 -0.0325 -0.1877
28134W        W44268  17.907  14.140  14.010 -0.2560 -0.0573 -0.2853
28135W        W44269  17.783   3.719   0.374 -0.2185 -0.1868  0.1432
28136W        W44270   1.111   7.963   5.122 -0.0750  0.1901 -0.1561
28137W        W44271   1.613   8.502  10.310  0.1002  0.2074  0.0893
28138W        W44272  10.451  10.208   2.370  0.3178 -0.0210 -0.0799
28139W        W44273   1.570   6.471  13.840 -0.0175  0.2043  0.1195
28140W        W44274   7.318  14.194   5.060 -0.3229  0.1135  0.0441
28141W        W44275  12.751  17.235  12.548 -0.1197  0.0745 -0.0275
28142W        W44276  11.240   6.284   5.159 -0.0301  0.1271  0.1193
28143W        W44277  16.563   6.932  12.857 -0.1284  0.0006  0.0052
28144W        W44278   7.455   2.638  11.210 -0.0431  0.1092 -0.1417
28145W        W44279   0.203   5.061   4.794 -0.1129 -0.1818 -0.1917
28146W        W44280  14.835   2.210  10.433 -0.0695 -0.0225 -0.1622
28147W        W44281   4.408   2.064  10.939  0.1195 -0.1906  0.1161
28148W        W44282  17.284  18.603  13.234  0.2042  0.3708  0.0162
28149W        W44283  10.307  17.569  14.773  0.1972 -0.0422 -0.1293
28150W        W44284  19.149   9.246  14.409 -0.0164 -0.0928 -0.1618
28151W        W44285   7.781   2.743  11.843 -0.1273  0.0108 -0.0961
28152W        W44286   5.145   3.125  12.125  0.2509 -0.0270  0.1122
28153W        W44287   5.129   2.005  13.390  0.3686 -0.1493  0.2672
28154W        W44288   9.547  18.496  11.820  0.3685 -0.2275 -0.0150
28155W        W44289   8.074   9.782  13.864 -0.0648 -0.0472  0.0576
28156W        W44290   4.862   6.717  12.611  0.0883  0.2443 -0.0322
28157W        W44291   0.452  11.061  13.995  0.4146 -0.0309 -0.2442
28158W        W44292  12.630   7.398  14.010  0.1808  0.1381  0.1625
28159W        W44293  13.609   1.042   0.635 -0.0631 -0.1774 -0.2858
28160W        W44294  11.762  15.613  14.358 -0.1601 -0.0101  0.1290
28161W        W44295  11.071   7.765   3.146  0.0655 -0.0568  0.1924
28162W        W44296  18.637   4.898  10.417  0.0978 -0.4769  0.0359
28163W        W44297   3.264  10.125   0.449  0.1880  0.1652 -0.3001
28164W        W44298  11.755  18.786  12.193  0.1663 -0.1722  0.0396
28165W        W44299   4.894  13.547  11.597 -0.0102 -0.2997  0.2134
28166W        W44300   7.833   0.800   2.713 -0.1973  0.0411 -0.2225
28167W        W44301   8.990   8.797   2.765  0.2254 -0.1451 -0.2661
28168W        W44302   4.637   6.040  10.263 -0.0954  0.0039  0.0264
28169W        W44303  14.171  18.859  12.775 -0.3313 -0.2608 -0.4421
28170W        W44304   2.043   0.620   0.929  0.1593  0.0810  0.2036
28171W        W44305   6.508   3.400  13.947  0.0903  0.2020  0.2858
28172W        W44306  14.863  16.659   1.371 -0.7002  0.0398  0.0693
28173W        W44307   8.254  16.320   1.605  0.1132 -0.2045  0.0895
28174W        W44308   5.059  18.076  11.735 -0.1297 -0.1217 -0.0338
28175W        W44309  13.871  12.839  12.330  0.1372 -0.3022 -0.0503
28176W        W44310   6.408  13.964   2.769  0.0269 -0.1123 -0.3597
28177W        W44311  16.535  14.003  13.253  0.2594  0.0306 -0.1430
28178W        W44312   9.020  17.760   1.511 -0.0406  0.2218  0.0545
28179W        W44313   2.216  16.475  13.326  0.1069 -0.0411  0.0677
28180W        W44314  16.201   7.294   0.592  0.2742  0.0840 -0.1500
28181W        W44315   7.648   9.694  12.724  0.2217 -0.0085  0.1088
28182W        W44316   7.770   8.817   5.143 -0.1155 -0.3945 -0.1197
28183W        W44317   3.603  10.600  10.896 -0.1968 -0.1136  0.0698
28184W        W44318  10.362   3.451  10.600  0.3090 -0.0669  0.0465
28185W        W44319   5.741  17.312  13.805 -0.1260 -0.1125 -0.1504
28186W        W44320   8.681   1.798   2.428 -0.2491  0.0231 -0.0048
28187W        W44321  14.745  16.130   1.773  0.3758 -0.0811  0.0428
28188W        W44322   2.276  17.978   5.006 -0.0150 -0.0284 -0.3605
28189W        W44323   8.226   1.106  13.716  0.0121 -0.0346 -0.5014
28190W        W44324   5.086  18.941   1.625 -0.0879  0.0850 -0.3091
28191W        W44325   1.465  11.493  10.372  0.2231 -0.2159  0.3375
28192W        W44326   5.083  10.305  11.089  0.1088  0.1223 -0.0831
28193W        W44327  15.915   7.069  14.429 -0.1496 -0.0730  0.1422
28194W        W44328   9.135   9.855  11.470  0.2455 -0.1127  0.4807
28195W        W44329   7.721   6.017   5.379 -0.1543  0.0437 -0.1477
28196W        W44330   1.353   1.316  10.864 -0.0600 -0.1552  0.0588
28197W        W44331  18.054  18.359   3.755  0.1732  0.1714 -0.2819
28198W        W44332   5.513   5.892   1.506 -0.3798 -0.0816 -0.0831
28199W        W44333   9.446   2.047  13.911  0.7650  0.1820 -0.2449
28200W        W44334   2.770   7.330   3.169 -0.1895  0.1609  0.2548
28201W        W44335  11.618  17.055   2.194 -0.1198 -0.1318  0.0783
28202W        W44336  11.795   2.065  12.755 -0.0127 -0.0145  0.1044
28203W        W44337   3.302  10.110  13.082 -0.2253 -0.3330 -0.0629
28204W        W44338   9.978   3.271  11.824 -0.2841  0.0084  0.1375
28205W        W44339   8.683  15.874   6.020  0.0158  0.3028  0.0745
28206W        W44340   5.419   2.529   2.856  0.2923 -0.2655  0.0400
28207W        W44341   9.933   3.672   4.252  0.0676  0.1437 -0.0019
28208W        W44342  14.181   5.415  11.914  0.1718 -0.2440 -0.0863
28209W        W44343  10.643   7.244   4.579 -0.0003  0.1225  0.1248
28210W        W44344   3.783  11.705   1.535 -0.0343  0.0935  0.0020
28211W        W44345   2.929   8.821   0.252  0.0325 -0.1712 -0.0913
28212W        W44346   1.251  12.678   3.171 -0.3066 -0.0515 -0.1695
28213W        W44347  18.835  12.225   1.178 -0.3209 -0.1197  0.1306
28214W        W44348  11.367  15.431   4.159  0.0539 -0.2066 -0.0040
28215W        W44349  15.058   9.649  11.942  0.2875  0.1021 -0.2975
28216W        W44350   8.792   7.594  12.751 -0.1091 -0.0698 -0.0761
28217W        W44351  11.815  18.749   0.381  0.0149  0.1583  0.0060
28218W        W44352  16.178   1.136   0.441  0.1697  0.1451 -0.4261
28219W        W44353  15.179  17.823  12.774 -0.2061 -0.1634 -0.0607
28220W        W44354  14.812   4.082   0.117 -0.0444 -0.0560  0.0753
28221W        W44355  13.536  14.712  10.472  0.0943  0.1822  0.1765
28222W        W44356   1.621  10.632  11.286  0.1626 -0.0633  0.2518
28223W        W44357  17.923  11.544  10.601  0.0631  0.1114  0.1647
28224W        W44358  10.908  16.608  12.371  0.1370 -0.2039  0.5082
28225W        W44359  14.594   3.561  10.596  0.0557  0.2547  0.1309
28226W        W44360   3.869   3.204   2.630  0.1111  0.1997  0.1451
28227W        W44361   2.088  15.044  12.347 -0.2479  0.2466 -0.0052
28228W        W44362   0.363  16.840  12.524  0.0250 -0.1687 -0.3202
28229W        W44363   3.606  16.633   3.941 -0.0334 -0.1426  0.3972
28230W        W44364   4.798  15.063   0.219 -0.0997 -0.0640  0.5345
28231W        W44365   9.369  10.175   9.670  0.0291  0.0211  0.0121
28232W        W44366   1.218  17.053  11.555 -0.0386 -0.4135  0.0904
28233W        W44367   2.763  14.971   1.648  0.1380 -0.2095  0.2848
28234W        W44368  13.613   0.991  13.739 -0.0197  0.1345 -0.0386
28235W        W44369  10.161   0.296   3.510  0.3113  0.0692 -0.0289
28236W        W44370  13.279  16.343  12.509  0.0566 -0.1142  0.1701
28237W        W44371  18.516   5.464  10.945 -0.0801 -0.2996 -0.0517
28238W        W44372  11.860   9.040   1.221 -0.0301  0.0397 -0.1990
28239W        W44373  15.838   5.482   0.449  0.0163  0.1298 -0.2464
28240W        W44374   6.738   5.981   4.418 -0.1062  0.1708  0.1449
28241W        W44375   3.314  10.925   1.502  0.1124 -0.3932  0.0496
28242W        W44376  17.264  10.486  13.841  0.3497  0.2611  0.1118
28243W        W44377   7.556  11.466  11.121 -0.1354 -0.1049 -0.2715
28244W        W44378  10.673   7.399  11.650  0.1985 -0.3647 -0.0856
28245W        W44379  13.826   8.914  11.044  0.1861 -0.2792 -0.0875
28246W        W44380  10.603  13.938   3.485 -0.2831 -0.0975 -0.3668
28247W        W44381  18.437  12.792  13.965  0.1237  0.3216  0.0922
28248W        W44382  14.330  16.667   4.504  0.1538 -0.3601 -0.1161
28249W        W44383  10.403   1.525  11.093 -0.0317  0.1189  0.0661
28250W        W44384  18.263  15.134   2.236 -0.3303  0.4159 -0.1707
28251W        W44385   3.233  18.804  11.529 -0.1300 -0.0468 -0.0477
28252W        W44386   4.283   5.638   1.979 -0.1135 -0.3182  0.0184
28253W        W44387  17.480  11.881  11.259 -0.2770  0.0560 -0.0950
28254W        W44388  16.706  10.625   3.305 -0.2911 -0.2622 -0.4711
28255W        W44389  18.463  12.220   2.096  0.0519 -0.2401 -0.0914
28256W        W44390   6.989   3.226  12.733 -0.0483 -0.1192 -0.1603
28257W        W44391  10.402   4.866   5.190 -0.0900  0.2209  0.1332
28258W        W44392  19.102   5.367   0.538  0.1654  0.1003  0.0454
28259W        W44393   0.038   4.391  11.064 -0.1662 -0.0613  0.0936
28260W        W44394  15.562   0.342  13.519 -0.1104 -0.0152 -0.0142
28261W        W44395  16.885  13.856  11.932  0.1540  0.0766 -0.3032
28262W        W44396  13.350  12.424  11.941 -0.1437  0.1053  0.1607
28263W        W44397   8.886  12.483  12.853 -0.0209  0.1144  0.1902
28264W        W44398   6.099   2.473   4.373 -0.2541  0.1351 -0.1239
28265W        W44399   2.998  13.347  13.333  0.0055 -0.1163  0.0233
28266W        W44400  11.936   0.253   2.888 -0.0697  0.3973 -0.1862
28267W        W44401   0.281  10.171   4.339  0.4677  0.0553 -0.0908
28268W        W44402  15.308   8.965  14.840  0.1347 -0.3344  0.2071
28269W        W44403   7.320   9.521   2.523 -0.0718  0.0820  0.0116
28270W        W44404  10.696   0.123  12.159  0.0398  0.0454 -0.4003
28271W        W44405   2.793  15.125   0.832  0.2122 -0.2261 -0.1977
28272W        W44406  12.423   7.125  14.320  0.0327 -0.0620  0.1149
28273W        W44407  12.661  11.015   3.991  0.0999  0.1169 -0.2083
28274W        W44408  15.998  14.751  10.202 -0.1962  0.0946 -0.1272
28275W        W44409   3.613   2.032   0.055  0.0953 -0.1653 -0.0434
28276W        W44410   4.913   1.593   0.518 -0.5245 -0.0049  0.1427
28277W        W44411   7.961  16.538  13.508  0.1758 -0.1161  0.1124
28278W        W44412  16.520  17.562   2.394  0.0444  0.0091  0.0450
28279W        W44413  15.282  10.781  12.772 -0.0999 -0.1807 -0.0589
28280W        W44414  10.611   1.987   4.011 -0.0478  0.1509  0.0325
28281W        W44415   1.356  17.756   3.951 -0.2757  0.0380 -0.1648
28282W        W44416   7.998   0.484  13.816  0.0674  0.0407 -0.2576
28283W        W44417   8.972   1.235   4.087 -0.3877 -0.2591  0.0952
28284W        W44418   3.114   0.184   4.261 -0.1833  0.2472  0.0830
28285W        W44419  17.383   8.476   5.064  0.0838  0.1130  0.0924
28286W        W44420   8.304  14.991  11.441  0.1500  0.2838 -0.2079
28287W        W44421   9.486  12.053   3.935 -0.2234 -0.1308  0.0809
28288W        W44422  17.810   9.678   2.251 -0.0078  0.3514  0.0050
28289W        W44423  16.152   1.193  10.990  0.2035 -0.3370  0.5751
28290W        W44424  16.805   9.398  12.277  0.1438 -0.1389 -0.0343
28291W        W44425  11.725   8.344   0.317  0.0668 -0.0233  0.2622
28292W        W44426   1.746   0.783   2.067 -0.0660  0.2805 -0.1880
28293W        W44427  12.025  12.066   0.607  0.1787 -0.0675 -0.0267
28294W        W44428  14.401  13.375  14.800  0.1176  0.1160 -0.0822
28295W        W44429   9.656  14.368   2.346 -0.1957  0.2330 -0.3840
28296W        W44430   4.879  15.848   2.963  0.1773 -0.1598 -0.0576
28297W        W44431  18.534  10.753   4.543 -0.0330 -0.2140  0.2519
28298W        W44432   0.919   6.917   5.697 -0.0354  0.0872 -0.1629
28299W        W44433   0.099  16.875  14.842  0.2383 -0.2720 -0.0943
28300W        W44434  16.706  11.115  13.561  0.0990  0.3382  0.0178
28301W        W44435  13.724  10.280  13.684  0.0765  0.1181  0.0350
28302W        W44436  14.017  13.165   5.253  0.1714  0.1410  0.0236
28303W        W44437   4.556  18.709  14.772 -0.0634 -0.0394 -0.1401
28304W        W44438   7.241   9.880   1.084 -0.1201 -0.0385  0.0132
28305W        W44439   6.053   9.705  11.142  0.0252  0.0504 -0.0475
28306W        W44440   4.637  12.266  14.462 -0.2235  0.1376 -0.3553
28307W        W44441   5.210   2.369   1.271 -0.1756 -0.1731 -0.1586
28308W        W44442  17.675   3.723   1.641 -0.4132  0.0863  0.1537
28309W        W44443   6.108  17.945   0.777  0.4497 -0.1366  0.0715
28310W        W44444  16.687   9.013   5.048  0.2801  0.1404 -0.2503
28311W        W44445  17.363  17.712  10.982 -0.2115  0.0546  0.0364
28312W        W44446  12.157  14.403   2.954 -0.2651 -0.1278 -0.0555
28313W        W44447   0.103  14.410   4.203  0.0832 -0.0573  0.1247
28314W        W44448   2.129  14.729   1.493 -0.0735 -0.0215 -0.3883
28315W        W44449  11.887  16.364  10.513 -0.3277 -0.0825 -0.0914
28316W        W44450   6.333  13.100  14.833 -0.1622 -0.0236  0.1499
28317W        W44451  16.646   7.853   3.312  0.1910  0.0630  0.0481
28318W        W44452  10.027   2.875   0.483 -0.2415  0.2002 -0.0113
28319W        W44453  16.443   2.053  15.135  0.1225 -0.0759  0.0247
28320W        W44454   9.016  17.806   4.832  0.0473  0.2433  0.0444
28321W        W44455   8.439   9.191   5.276  0.1156 -0.1867 -0.1926
28322W        W44456  15.426   2.309  10.314 -0.1826 -0.3654  0.1383
28323W        W44457  11.898   2.970   3.077 -0.1713 -0.4187 -0.3195
28324W        W44458   5.981   5.900   0.799  0.2512 -0.2093  0.1178
28325W        W44459  15.337  17.283  11.772 -0.1040 -0.2072 -0.1254
28326W        W44460   4.969   0.052   1.091 -0.1108 -0.0118  0.1022
28327W        W44461   0.841   0.176  13.963  0.0480  0.1581  0.4124
28328W        W44462  10.682   3.930  11.327 -0.1637 -0.1216 -0.0704
28329W        W44463  11.119   9.358   4.095 -0.3452 -0.1951 -0.0055
28330W        W44464  16.619   5.686   4.170  0.0757  0.2356  0.1134
28331W        W44465  15.967   6.823   0.765 -0.1070 -0.0545  0.2627
28332W        W44466   6.250  13.476  11.514 -0.1961  0.1204  0.0703
28333W        W44467   2.894   3.212   4.964 -0.1323 -0.0723 -0.0103
28334W        W44468  10.430  18.318  11.830 -0.1904  0.0516 -0.1938
28335W        W44469   9.529   4.644   3.555  0.0232  0.1958  0.1107
28336W        W44470   3.279  19.108  12.390 -0.2245  0.1264 -0.0142
28337W        W44471  15.124  18.799   5.395  0.0141 -0.1697  0.0653
28338W        W44472   5.714  10.363   4.746 -0.0679 -0.1339 -0.0860
28339W        W44473  18.150   8.537   3.342  0.0369 -0.2958 -0.0273
28340W        W44474   0.780  16.552  11.616 -0.3343  0.0856 -0.2403
28341W        W44475  14.654   1.039  14.255 -0.0690 -0.5653 -0.1933
28342W        W44476  17.003   7.040  12.427 -0.0865  0.0370 -0.0946
28343W        W44477  11.729   3.321   3.373  0.2291  0.1919 -0.2482
28344W        W44478  14.138  14.925  12.568  0.0455  0.2056 -0.0451
28345W        W44479   7.994  13.494  13.396  0.3609 -0.0833 -0.1162
28346W        W44480   1.779   3.644   2.334  0.0159  0.0999  0.1568
28347W        W44481  14.335  10.220   3.837  0.0047 -0.0270  0.1229
28348W        W44482  10.150   6.602   1.274  0.3741 -0.0462 -0.3720
28349W        W44483  10.191  18.273   2.203  0.1188 -0.2710 -0.0442
28350W        W44484   1.356  11.870  10.643  0.2482 -0.0691 -0.1507
28351W        W44485  14.623  18.624   2.683  0.1205  0.0290  0.4851
28352W        W44486   7.448   5.731  14.653  0.2243  0.0472 -0.0350
28353W        W44487   6.908   7.519   2.257 -0.1728 -0.0409 -0.0063
28354W        W44488  16.369  14.373   2.860  0.1593 -0.1831  0.0371
28355W        W44489   2.435  18.282   3.053  0.0882  0.1226 -0.0827
28356W        W44490  14.287   6.776  15.117 -0.4178 -0.5321 -0.4202
28357W        W44491   7.933   7.900   4.181  0.1078  0.0153 -0.2018
28358W        W44492  11.857   1.679   4.811  0.0992 -0.3275  0.0953
28359W        W44493  17.414   0.805   1.885  0.2495 -0.1731  0.1823
28360W        W44494  10.163  12.643  15.123 -0.2144  0.1039  0.4967
28361W        W44495  14.250  12.358  11.081  0.0232 -0.0969  0.1254
28362W        W44496  10.584   3.245   5.455 -0.1156 -0.1951 -0.1230
28363W        W44497  16.852  18.661  13.673 -0.2755  0.0677  0.1258
28364W        W44498   0.146  19.132  10.687  0.0133 -0.0108  0.1050
28365W        W44499  18.090   1.291   4.266  0.0805 -0.3705  0.0619
28366W        W44500   0.401   6.660   3.235  0.0454  0.2059  0.0136
28367W        W44501   0.055  16.900   2.740 -0.1053 -0.3217 -0.0123
28368W        W44502   6.530  11.383   0.336  0.3604 -0.0542  0.0618
28369W        W44503   5.498   6.115  12.845  0.1163  0.0214 -0.2684
28370W        W44504  14.367   9.051  12.630 -0.1430 -0.0604  0.1636
28371W        W44505  18.613  12.961  12.202  0.1629  0.1499  0.5115
28372W        W44506  14.786  10.018   3.821 -0.2460  0.3024 -0.1628
28373W        W44507   1.203   7.842  12.356  0.2073 -0.0870  0.0975
28374W        W44508   9.666   0.103  13.027  0.1499 -0.0493 -0.0636
28375W        W44509   8.129   6.746  10.364  0.2591  0.2375  0.0857
28376W        W44510  13.232  12.489   0.728  0.0596  0.0442 -0.0262
28377W        W44511  12.700   6.093  11.702 -0.2723  0.1511 -0.0882
28378W        W44512  12.551   0.186  11.508 -0.2064  0.1799 -0.1657
28379W        W44513   3.795  12.852   4.775  0.0886  0.0151 -0.0032
28380W        W44514  19.087  17.320  14.637 -0.1750  0.3489  0.1957
28381W        W44515   2.614   4.186   1.855  0.0221  0.1810 -0.2922
28382W        W44516   4.599  11.819  14.187 -0.0091  0.0190 -0.1109
28383W        W44517   1.489  11.839   4.549  0.0553 -0.0400  0.3630
28384W        W44518  12.274   0.839  14.298  0.2692 -0.0502  0.0225
28385W        W44519  18.808  16.471  10.243 -0.0390  0.1631  0.0973
28386W        W44520  12.916   0.842  10.292 -0.1101 -0.0276  0.0935
28387W        W44521   4.524   6.491  13.618  0.2470 -0.2594  0.2608
28388W        W44522   8.782   4.765   5.200 -0.2033  0.1888  0.0171
28389W        W44523   1.047   2.614  11.722 -0.0430  0.1319  0.0622
28390W        W44524   6.155  13.135   1.232  0.1249  0.2955 -0.0590
28391W        W44525   5.895  17.271   3.326  0.1255  0.0652  0.3578
28392W        W44526  17.553  15.579   1.805 -0.3858 -0.0392  0.2249
28393W        W44527  10.334  13.190   2.666  0.3775 -0.2375 -0.2418
28394W        W44528  11.581   5.195  13.623 -0.0821  0.2985 -0.2422
28395W        W44529  11.182   5.259  11.557 -0.3256  0.1788  0.0871
28396W        W44530  18.034   6.258   0.030 -0.1162 -0.0034 -0.0042
28397W        W44531   2.993  11.619   0.772  0.1906  0.1281  0.0091
28398W        W44532  13.842  15.028  14.747 -0.3537 -0.2247 -0.0444
28399W        W44533   2.868  17.014   1.236  0.4359  0.0143  0.0045
28400W        W44534  16.571   7.897  13.461 -0.0559  0.1969 -0.1398
28401W        W44535   6.158  18.072  13.876 -0.1352  0.0221 -0.0129
28402W        W44536   4.176  16.591   2.354 -0.1142  0.1216  0.3151
28403W        W44537   8.459   1.238  14.510 -0.0312 -0.0796 -0.1844
28404W        W44538  14.199   0.257   0.893  0.1265  0.2439 -0.1603
28405W        W44539   9.331  11.409   5.070 -0.0382  0.3145 -0.0805
28406W        W44540  16.402   9.962   0.212  0.1776  0.1408 -0.4348
28407W        W44541  14.100   6.430  12.089 -0.4710  0.0077  0.0036
28408W        W44542   0.281  15.464   2.650  0.1393 -0.1430 -0.1936
28409W        W44543  18.053   1.753   0.347  0.1559 -0.0284  0.1896
28410W        W44544   6.711   2.385   9.726 -0.2480  0.2831  0.1570
28411W        W44545   4.335  17.958  12.882  0.2545 -0.1852 -0.0633
28412W        W44546  15.572   3.376  10.144 -0.0530 -0.3758 -0.2877
28413W        W44547   4.843   3.888  13.894 -0.1165  0.0152 -0.0423
28414W        W44548  15.175  16.050   2.090 -0.0712  0.0712  0.3302
28415W        W44549  13.560   8.577   1.070  0.1492  0.1875 -0.3248
28416W        W44550  11.848   2.706  11.995 -0.2465  0.1507 -0.0740
28417W        W44551   3.145   1.870  13.550 -0.0700 -0.0471 -0.1476
28418W        W44552   7.760   0.634   3.205  0.1497  0.2034 -0.0739
28419W        W44553   3.229   8.679  11.263  0.0546 -0.0111 -0.1247
28420W        W44554  13.752  13.342  11.513 -0.0277 -0.0275 -0.0128
28421W        W44555  17.663   2.962   0.221 -0.1606 -0.1940 -0.2594
28422W        W44556  17.044  12.898  13.706 -0.0946 -0.0078 -0.0506
28423W        W44557   5.439   0.643   2.730  0.4864  0.2797 -0.0367
28424W        W44558   6.833  16.468  14.997  0.2029 -0.1199  0.0342
28425W        W44559   9.534   0.818   1.270 -0.2672  0.0785  0.1052
28426W        W44560  17.245   4.661  14.634 -0.2294 -0.0172  0.1875
28427W        W44561  12.675   6.941   3.659 -0.1208  0.1886 -0.2883
28428W        W44562   0.394   3.854  10.826 -0.0608 -0.5161 -0.2811
28429W        W44563   7.436   8.776  10.434 -0.0447 -0.0103  0.2514
28430W        W44564   4.211  10.023   1.836  0.1949  0.2864 -0.1843
28431W        W44565   8.385   6.457   0.527 -0.0164 -0.1089 -0.0168
28432W        W44566  12.930   4.390   3.619  0.1983  0.1556 -0.1847
28433W        W44567   2.167  16.638  10.759 -0.1844 -0.0758 -0.1503
28434W        W44568  10.844   8.124   0.859 -0.0335 -0.1129  0.2815
28435W        W44569  12.065  13.045   1.231 -0.2517 -0.3713 -0.2330
28436W        W44570   1.098   4.588   2.741  0.1421 -0.6981  0.0217
28437W        W44571  13.720  13.405  15.088 -0.3010 -0.0087  0.0749
28438W        W44572   9.640   3.430  14.065  0.1870 -0.1513 -0.2121
28439W        W44573   7.335   9.230   3.799 -0.4476 -0.1585 -0.0123
28440W        W44574   0.702   7.674   3.814 -0.0641 -0.0975  0.2187
28441W        W44575   6.882  10.701   1.205 -0.1406 -0.1205  0.0446
28442W        W44576   4.504  15.082   1.560 -0.0427 -0.0793  0.2342
28443W        W44577   4.487   7.230  11.533 -0.0717  0.2558 -0.1708
28444W        W44578   9.980  16.953  14.491  0.1137 -0.2594  0.0128
28445W        W44579   7.612   5.885  11.334 -0.4554 -0.1147  0.2526
28446W        W44580   6.743   7.316  13.254  0.2185 -0.2941  0.1275
28447W        W44581  10.610  14.806   3.717 -0.3192 -0.2023 -0.2621
28448W        W44582  15.801   9.098   2.179 -0.0700  0.1883 -0.1964
28449W        W44583  14.288  11.550   1.045 -0.0136 -0.1015  0.1210
28450W        W44584   1.285   8.423  14.725 -0.2206  0.0086  0.0121
28451W        W44585   2.615   2.761   2.462 -0.1820  0.1014  0.1534
28452W        W44586   6.690  12.087  13.805 -0.0331 -0.1323 -0.3116
28453W        W44587  15.528   3.770   2.966 -0.2292  0.1819 -0.2244
28454W        W44588  10.279  14.599  13.561  0.0586  0.1319  0.0903
28455W        W44589  12.272   8.545  13.835  0.0214  0.1878 -0.2031
28456W        W44590   1.564   5.540   1.895 -0.0331 -0.1547 -0.4387
28457W        W44591  13.868  18.198  12.011 -0.0750  0.2156 -0.1126
28458W        W44592  11.909  18.171  12.984 -0.0747  0.0263  0.2711
28459W        W44593  17.550   7.956   3.473  0.3222  0.1141 -0.0226
28460W        W44594   0.170  10.661   0.973 -0.1852 -0.0377  0.1103
28461W        W44595  13.253  10.827   1.363 -0.2057  0.0054 -0.2755
28462W        W44596   5.835   2.972  10.580  0.1024 -0.0530 -0.0586
28463W        W44597  11.049   7.297  10.213  0.2818 -0.0472  0.0657
28464W        W44598   6.336  15.866   2.833 -0.0386  0.0104 -0.0166
28465W        W44599  16.855   1.242  12.060 -0.0777 -0.1147  0.1724
28466W        W44600   6.335   7.402   0.638 -0.0320  0.2491 -0.1768
28467W        W44601   0.675  18.670   4.859 -0.3024 -0.0659 -0.0467
28468W        W44602   9.372   6.785   1.375 -0.1755  0.3535  0.4069
28469W        W44603   1.647   1.787   0.735 -0.2159  0.0809  0.0424
28470W        W44604   0.369   8.118  15.074  0.1471 -0.1156  0.2931
28471W        W44605   6.215  14.931   2.689 -0.2334  0.1260 -0.1075
28472W        W44606   0.845  17.898  10.513 -0.1142 -0.3749  0.0695
28473W        W44607   6.157   6.834   1.963 -0.0165 -0.0450 -0.0144
28474W        W44608   9.214   0.231  10.784 -0.2759  0.0188 -0.0488
28475W        W44609   5.770  11.492   2.022 -0.0085 -0.1973 -0.0103
28476W        W44610   2.553   9.720   2.593  0.0179 -0.0636 -0.0273
28477W        W44611   7.335   1.280  11.916  0.2964  0.4378  0.2533
28478W        W44612   5.436  17.430   5.228  0.2764 -0.0777 -0.1454
28479W        W44613  18.358   0.545   5.101 -0.1070 -0.2546  0.0021
28480W        W44614   8.353  12.598   4.201  0.1889  0.0912  0.0412
28481W        W44615  11.524  16.784   0.364 -0.3883 -0.0162 -0.3412
28482W        W44616  11.625  18.291   1.649 -0.0539 -0.1113 -0.4736
28483W        W44617  15.226  12.477   3.031  0.2408 -0.0950 -0.2997
28484W        W44618   7.047  14.986  13.165  0.0147 -0.1919  0.2124
28485W        W44619  17.792   3.864   3.501 -0.1895 -0.0304  0.2298
28486W        W44620  10.615   8.768   3.363  0.1777  0.0367 -0.2362
28487W        W44621   7.124   7.357  14.049  0.2489  0.1022  0.2240
28488W        W44622  12.617  16.270  11.946 -0.1223  0.0155 -0.3378
28489W        W44623  12.830  18.883  11.135  0.0638  0.0877  0.0556
28490W        W44624   6.055  15.431   0.098 -0.1247 -0.1377 -0.0643
28491W        W44625   3.075  17.630   4.595 -0.1549  0.1153  0.1560
28492W        W44626  14.817   3.664   0.334  0.1266  0.1466  0.0343
28493W        W44627   4.447  11.441   4.267 -0.1304  0.0366 -0.0608
28494W        W44628   8.080  14.565  11.645  0.1156 -0.1221  0.2194
28495W        W44629   6.432   3.387   0.338 -0.0752 -0.1242 -0.0193
28496W        W44630   0.988   0.784  11.474 -0.0365 -0.0991 -0.0336
28497W        W44631   5.121  16.002   1.315 -0.0036  0.2104  0.0522
28498W        W44632   2.654  18.288  12.293 -0.1274 -0.0592  0.0445
28499W        W44633   8.166  14.872   1.212 -0.1536 -0.0926 -0.0647
28500W        W44634   3.607  17.043   3.070 -0.0397 -0.3112  0.1939
28501W        W44635  12.104   9.218  10.824  0.1431 -0.2034  0.0756
28502W        W44636   5.852  16.272  12.509  0.3475 -0.3246  0.0408
28503W        W44637   1.891  13.521   4.000  0.1374  0.0263 -0.0769
28504W        W44638   2.093  17.551   3.990 -0.0498 -0.0036 -0.1362
28505W        W44639   8.202  14.478  12.547  0.1635 -0.2474 -0.2099
28506W        W44640  13.556  13.535   1.274  0.1085 -0.3675  0.0134
28507W        W44641  18.316   7.944  13.325 -0.0186 -0.1155 -0.1140
28508W        W44642  15.847  14.326  13.802 -0.6205 -0.1942 -0.3935
28509W        W44643  18.215  13.897   0.316  0.2502  0.2207  0.3523
28510W        W44644   0.257   7.735   0.769 -0.2337  0.0283  0.2127
28511W        W44645   5.551  13.914   5.234  0.2733 -0.0671 -0.0290
28512W        W44646   8.737  12.328   4.970 -0.4222  0.4520  0.2251
28513W        W44647  15.533  14.143   2.755 -0.0518 -0.2180  0.1116
28514W        W44648   0.291  18.057  14.813  0.1776  0.0569  0.1824
28515W        W44649   2.283  10.214  15.181 -0.2567  0.1514  0.1665
28516W        W44650  17.081   3.588  11.296 -0.2185  0.0607  0.1055
28517W        W44651  10.600   9.968   5.811 -0.1882 -0.1272 -0.1134
28518W        W44652   4.511  10.435   3.389  0.0193  0.1977 -0.0259
28519W        W44653  15.652   5.084   1.289 -0.4610 -0.1348 -0.3724
28520W        W44654   0.287   3.084  12.847 -0.1335 -0.1450  0.0126
28521W        W44655   0.302  13.506   2.435  0.1835  0.0428 -0.2404
28522W        W44656   8.057  18.234   0.798  0.0076  0.0243 -0.1554
28523W        W44657  18.403  15.404   9.656 -0.1123  0.2011  0.1862
28524W        W44658  11.746  11.869  12.880  0.0812 -0.0945 -0.1109
28525W        W44659   8.905   3.770  15.067  0.2136  0.0764  0.0579
28526W        W44660  17.021   3.026   2.957  0.2557 -0.1179 -0.0564
28527W        W44661  16.907   9.996   0.243  0.3880  0.0943  0.2151
28528W        W44662   2.921   6.941   3.536  0.2150  0.0059 -0.2478
28529W        W44663  10.565   9.844   2.757  0.1031  0.0738  0.1183
28530W        W44664   1.554  13.497  12.245 -0.2844 -0.0136 -0.1319
28531W        W44665   7.150  13.546   2.007 -0.3521  0.0589 -0.4143
28532W        W44666  16.528  17.448   1.003  0.1516 -0.2332  0.1402
28533W        W44667   3.479  18.487  11.226 -0.0951  0.2094  0.0626
28534W        W44668  17.420  17.727   0.186 -0.1256  0.0179  0.0591
28535W        W44669   7.437  17.021   0.832  0.1503 -0.3534 -0.0899
28536W        W44670  14.572  17.049  12.924 -0.2079 -0.1655 -0.1269
28537W        W44671   0.020   8.439   0.145  0.2504  0.1649  0.0645
28538W        W44672  17.607  13.573  11.769 -0.0880  0.2200  0.2923
28539W        W44673  16.924  12.210   4.050 -0.0096 -0.1594  0.0269
28540W        W44674  14.203  14.715  14.290  0.0002 -0.0617  0.0313
28541W        W44675   9.898   1.695   2.023 -0.1757 -0.0139  0.1691
28542W        W44676  12.722  12.660  13.428  0.0807 -0.2924 -0.1010
28543W        W44677  11.213   5.784   3.055  0.0488 -0.1107  0.1845
28544W        W44678   0.485   5.183   3.818 -0.1434  0.2812  0.0362
28545W        W44679  17.837  11.485   1.650 -0.0333  0.0628  0.2248
28546W        W44680   6.334   7.733   3.974  0.0970  0.5769 -0.1870
28547W        W44681   8.934   3.328   3.569  0.0360 -0.0403  0.3561
28548W        W44682   8.144  15.290  12.191 -0.1091  0.2045 -0.0573
28549W        W44683  15.960  14.988   9.793 -0.1083  0.0157 -0.1961
28550W        W44684   6.794  14.513   4.803  0.2176  0.0322  0.0715
28551W        W44685   3.918  16.992   0.872  0.0090 -0.6796 -0.3168
28552W        W44686  13.454  13.046   1.449 -0.0033  0.0977 -0.1996
28553W        W44687  13.273  11.761   3.641  0.1106  0.3321 -0.0406
28554W        W44688   7.894   6.460   0.426 -0.0850 -0.1440 -0.0939
28555W        W44689  10.189  16.029   3.093 -0.2306  0.0416 -0.2882
28556W        W44690  18.569   3.275   5.655  0.3013  0.1362 -0.4515
28557W        W44691  14.282  14.822  14.758  0.0661  0.0392  0.0813
28558W        W44692   2.649   2.064  10.154  0.3972 -0.0521 -0.0733
28559W        W44693   7.405   7.708   4.954  0.2691 -0.0663  0.1401
28560W        W44694   4.659  15.730  10.614 -0.3642  0.1275 -0.2120
28561W        W44695   5.115   8.142   2.943 -0.0755  0.0748 -0.1010
28562W        W44696   9.999  12.072   2.100 -0.1422  0.0047 -0.3431
28563W        W44697  16.028   6.950   2.504  0.0299 -0.0550  0.1178
28564W        W44698  12.939  13.099  13.489 -0.0964 -0.4329  0.0391
28565W        W44699  10.139  13.494   0.472  0.1251  0.2992 -0.1021
28566W        W44700  10.485  14.247   0.527 -0.0287 -0.0678  0.1059
28567W        W44701   0.160   6.126   4.173 -0.1192  0.0864 -0.1278
28568W        W44702  11.830   5.316  14.339  0.2324  0.0044 -0.1781
28569W        W44703  16.634   7.668   0.763  0.3125  0.0658  0.1277
28570W        W44704   9.891  10.941   3.314  0.2108  0.0657 -0.2005
28571W        W44705   8.774  11.834   3.117  0.1090 -0.4967  0.2274
28572W        W44706   8.586   5.188   4.205 -0.0078  0.0886 -0.1019
28573W        W44707   9.378  16.733   3.934 -0.2516 -0.0862 -0.0706
28574W        W44708   7.454  18.224  11.180  0.2230 -0.0902  0.1416
28575W        W44709   9.521  15.076   6.058 -0.2556  0.2408  0.1444
28576W        W44710   2.398   9.024  10.184  0.1740 -0.1396  0.2254
28577W        W44711   5.710  18.091   2.272 -0.0190  0.0281  0.2282
28578W        W44712   5.269  15.556   5.672  0.0027  0.2001 -0.2508
28579W        W44713  11.202  14.004   4.377 -0.2654 -0.0066 -0.0818
28580W        W44714   6.922  16.407   4.286  0.0449  0.4089 -0.2050
28581W        W44715   5.811   5.626  10.324  0.0309  0.1367  0.0382
28582W        W44716   4.625  11.156  14.186 -0.0420  0.1909  0.2134
28583W        W44717   1.030   9.483  10.028  0.0835 -0.1377  0.2113
28584W        W44718  11.556   7.550   3.278 -0.1702  0.1024  0.0127
28585W        W44719  16.303   3.048   1.122  0.1323  0.1506  0.0417
28586W        W44720   0.076  18.201   0.953  0.0499  0.2694 -0.0048
28587W        W44721   3.859   6.092  11.160  0.1030 -0.0026  0.2316
28588W        W44722   4.439   7.270   0.031 -0.0009 -0.1920 -0.2114
28589W        W44723   9.254  17.845  12.540 -0.3099  0.1173  0.0313
28590W        W44724   8.869  10.258   3.810  0.0512 -0.0039  0.1297
28591W        W44725  18.491  18.458   3.919 -0.1122  0.1955  0.1458
28592W        W44726  17.630  10.245   9.928 -0.1647  0.1451 -0.3645
28593W        W44727   3.075   0.642   3.170  0.3411 -0.0009  0.0709
28594W        W44728   3.587  12.850   4.160  0.0731 -0.0304 -0.0707
28595W        W44729   1.254  16.399  14.036  0.0006 -0.3943  0.2845
28596W        W44730   0.074  12.152  12.050  0.2222  0.2176 -0.1692
28597W        W44731  17.610   2.341  10.575 -0.3216 -0.0263 -0.0322
28598W        W44732   4.809   7.848   2.603 -0.2034 -0.1140 -0.1697
28599W        W44733   2.527   6.949  12.175  0.0112 -0.1812 -0.1761
28600W        W44734   4.844  11.264   3.458  0.2720 -0.0854 -0.1404
28601W        W44735  14.226   8.731   4.382  0.1860  0.3075  0.0035
28602W        W44736  15.428   4.321  13.645 -0.1027  0.3735 -0.0739
28603W        W44737   3.556  14.927  13.759  0.4234 -0.2804 -0.0990
28604W        W44738   9.962  10.658   5.731  0.1605 -0.0463  0.4524
28605W        W44739   5.094   7.261   9.151 -0.2564 -0.0606  0.0213
28606W        W44740  10.605   0.635  14.287  0.2469  0.1544  0.1876
28607W        W44741  18.095  14.056  12.801 -0.1380  0.1230 -0.0198
28608W        W44742   8.894  16.452   4.133  0.1997 -0.2651 -0.1047
28609W        W44743   5.778   1.798   3.732 -0.2822  0.0663 -0.0425
28610W        W44744   4.628   4.687  11.140  0.2048  0.5100 -0.4727
28611W        W44745  18.116  18.913  13.514 -0.2168 -0.0609 -0.1516
28612W        W44746  17.161  10.194   0.757  0.0472  0.0699 -0.0576
28613W        W44747   5.455   1.885  13.005 -0.1056 -0.4013  0.2301
28614W        W44748   9.381   1.031   9.959 -0.1390 -0.1825 -0.2172
28615W        W44749   5.612   8.527  14.860 -0.1294 -0.3227 -0.0782
28616W        W44750   8.526  14.240  13.032 -0.0417  0.2477 -0.0361
28617W        W44751   8.335   2.338   2.989 -0.3606  0.0359 -0.1009
28618W        W44752  18.540   4.257   1.267 -0.2096  0.0057 -0.0836
28619W        W44753  17.363  15.689  14.422  0.1339 -0.1425 -0.1668
28620W        W44754   2.288  15.284   4.738  0.2115  0.0831  0.1269
28621W        W44755   5.696   5.768  13.121 -0.3671  0.1431 -0.0489
28622W        W44756   8.432   7.551   2.598  0.2079 -0.2431  0.1118
28623W        W44757  16.917   4.328   1.684 -0.1138 -0.0103  0.2885
28624W        W44758  11.592  14.083   9.698  0.2481  0.3030  0.1431
28625W        W44759  18.753  16.277  13.333  0.0153 -0.1562 -0.0248
28626W        W44760   2.825  17.510   3.021 -0.0536 -0.2125 -0.1662
28627W        W44761  10.037   6.155  13.207  0.2860  0.0535  0.0442
28628W        W44762  17.769  15.305   2.112  0.4871  0.3013 -0.1005
28629W        W44763  14.980   0.900  11.538  0.2159 -0.1183 -0.1245
28630W        W44764  10.874  15.859   4.338 -0.3215  0.1937  0.0211
28631W        W44765  16.127   7.655   5.078  0.1713  0.0423  0.1197
28632W        W44766   0.299   3.456  10.615 -0.2403  0.2567  0.2403
28633W        W44767   8.975   3.346   5.176 -0.3375  0.2027 -0.1496
28634W        W44768  18.555  17.365  12.857 -0.0936  0.0607  0.0790
28635W        W44769   6.549   1.028   0.682  0.1558  0.0790  0.0744
28636W        W44770  18.696  12.156  13.896  0.1566  0.1971 -0.0107
28637W        W44771   1.853  17.946  10.493  0.0420  0.3726 -0.1728
28638W        W44772   2.691   6.182  12.008 -0.3323 -0.0670  0.0775
28639W        W44773  16.768  18.488  11.870  0.2592 -0.1039  0.1187
28640W        W44774   0.655   7.329  12.919  0.1384  0.0908 -0.1124
28641W        W44775   2.487   2.380   1.779 -0.0170  0.0881  0.1287
28642W        W44776  11.815  10.861   3.543 -0.0371  0.0444  0.0912
28643W        W44777  10.806  14.495   3.250  0.2125  0.0717 -0.0045
28644W        W44778  10.263   7.262   3.553  0.0042  0.3418 -0.3065
28645W        W44779  13.276   9.749  10.152 -0.1189  0.2546  0.4083
28646W        W44780  13.717  12.170  14.756  0.0564  0.0924  0.2782
28647W        W44781   8.176  16.459   0.793 -0.3558  0.0980  0.0442
28648W        W44782   2.268   1.937   9.336 -0.1953 -0.1414 -0.0495
28649W        W44783   7.112  12.447   0.979  0.0496  0.0850  0.0261
28650W        W44784   5.174   4.293   1.288 -0.1707  0.0650  0.0767
28651W        W44785   2.288  16.183  14.225  0.0348 -0.1540 -0.0910
28652W        W44786   2.101  15.800  12.115  0.0077 -0.1607  0.2735
28653W        W44787   0.484  15.755  13.292  0.0552  0.0429 -0.0555
28654W        W44788   3.454   5.866  13.635 -0.0468  0.0721  0.1402
28655W        W44789  14.324  13.517   1.999 -0.2280 -0.0614  0.1552
28656W        W44790  15.417   2.460  11.170  0.2346 -0.1788 -0.0072
28657W        W44791   5.368  13.700   1.578  0.1672  0.0028 -0.0413
28658W        W44792  11.681   7.347   0.220  0.0350  0.0771 -0.2309
28659W        W44793   7.084   8.859   4.490 -0.0297 -0.0404 -0.1042
28660W        W44794  18.957  12.596  12.037  0.0119  0.0293  0.4191
28661W        W44795  15.190   4.079  10.533 -0.1815  0.0060 -0.2478
28662W        W44796  15.369  12.624   1.976 -0.2776  0.3810 -0.6324
28663W        W44797  18.249   4.246  13.889 -0.2748  0.1860 -0.1493
28664W        W44798   7.367  14.825  13.947 -0.1097  0.1894 -0.1601
28665W        W44799  18.308   7.482  12.993  0.2472 -0.0878 -0.0724
28666W        W44800  16.564  14.820   5.190 -0.0242 -0.2842 -0.2950
28667W        W44801   7.387   8.838  10.958 -0.4544  0.0348 -0.1100
28668W        W44802  18.527  11.754   2.161  0.0708  0.2605  0.0191
28669W        W44803   5.182   2.086   2.889 -0.2483 -0.0255 -0.4938
28670W        W44804   4.652   8.853  12.079  0.1768  0.1665  0.3253
28671W        W44805   1.150  16.295   2.194  0.1807 -0.2659  0.2145
28672W        W44806  17.645  17.156   4.060  0.2917 -0.1643  0.0873
28673W        W44807  16.134   5.042   0.473 -0.1367  0.1527  0.1199
28674W        W44808  15.476   2.230   4.509 -0.2941  0.2073  0.1495
28675W        W44809   8.955   6.230  15.168 -0.2574  0.0686 -0.1256
28676W        W44810  17.698   3.694   9.718  0.0102 -0.3351 -0.2438
28677W        W44811   2.406   7.558  15.037 -0.1912 -0.3275  0.0055
28678W        W44812  16.881  13.109   2.069  0.2669 -0.1954  0.0331
28679W        W44813   0.423  17.838  12.534  0.0959 -0.0182 -0.2712
28680W        W44814  17.741   4.065   4.361  0.2586  0.1164  0.1872
28681W        W44815   0.344  16.449   1.918 -0.2836  0.0241 -0.0609
28682W        W44816   0.418  17.993  14.311 -0.0813  0.0883 -0.1455
28683W        W44817  13.003  10.697  13.178  0.3396 -0.2658 -0.0187
28684W        W44818  13.669   9.587   0.808  0.2139 -0.0433  0.1564
28685W        W44819   4.708  13.499   3.620  0.0931  0.2686 -0.0557
28686W        W44820  15.178   4.297  14.935 -0.0679 -0.3908 -0.1445
28687W        W44821  15.103   3.854   3.227 -0.1736 -0.2815 -0.0798
28688W        W44822  10.187  17.597  13.707  0.0022 -0.1044  0.1051
28689W        W44823  12.788  15.770  13.197  0.0546 -0.1796 -0.0839
28690W        W44824  15.112  13.457   2.550  0.1340 -0.2645  0.0193
28691W        W44825   3.953   1.632   0.164  0.1439  0.0222 -0.0849
28692W        W44826   6.388  19.006  11.169 -0.0467 -0.3732  0.3140
28693W        W44827  14.173   6.720   2.321 -0.0776  0.2828 -0.0344
28694W        W44828  15.623   1.557  11.313 -0.1055  0.1466 -0.0148
28695W        W44829  15.995  11.365  11.846 -0.2114 -0.4524  0.1411
28696W        W44830  13.510   7.019  13.729  0.2714  0.1250 -0.0893
28697W        W44831   8.304  12.164  11.242 -0.1456 -0.0708  0.1836
28698W        W44832  12.403   6.656   4.905 -0.0055  0.1757  0.1803
28699W        W44833  13.990  12.843   3.119 -0.0629  0.1544  0.0722
28700W        W44834   9.927  11.859  13.227 -0.0740 -0.1610 -0.2233
28701W        W44835   2.429   0.109   1.758 -0.3487 -0.2213 -0.0087
28702W        W44836  16.090  10.622  10.795 -0.2480 -0.0559  0.0857
28703W        W44837  12.926   0.989   0.247 -0.3358  0.0343  0.0688
28704W        W44838   2.556  16.746   2.086 -0.1785 -0.2880 -0.1815
28705W        W44839   7.433  12.027   5.257  0.3339  0.1269  0.3076
28706W        W44840  12.590  13.626  14.035  0.3805  0.1503  0.0484
28707W        W44841  18.368  11.488   1.732  0.3176  0.3258 -0.4418
28708W        W44842  10.781  13.954  10.760 -0.1617 -0.1154 -0.0607
28709W        W44843   1.764  15.116   1.463  0.0536  0.2016 -0.1352
28710W        W44844   5.716   0.892   3.224 -0.2228  0.0459 -0.0555
28711W        W44845  13.558  15.494  15.104  0.1211 -0.1146 -0.0781
28712W        W44846   3.242   9.187   3.737  0.2435  0.2264 -0.0338
28713W        W44847   2.282   6.740   0.715  0.0446  0.0607 -0.0758
28714W        W44848   9.393   1.065  14.031 -0.0466  0.1317  0.0027
28715W        W44849  13.527   8.633   0.522  0.0613  0.0239 -0.1829
28716W        W44850   3.944   3.121   4.988  0.2478  0.0107 -0.3310
28717W        W44851   4.519   5.407  12.229  0.2667  0.1568  0.1494
28718W        W44852   6.139   5.476  13.982  0.0013 -0.1235  0.1086
28719W        W44853  15.108   8.077  14.905  0.0651 -0.0789 -0.0208
28720W        W44854  14.149  10.025  12.413  0.0222 -0.0273  0.0554
28721W        W44855   7.219   0.762   3.516  0.0674 -0.2678  0.2621
28722W        W44856  18.205  15.419  14.240  0.0736  0.2345  0.1670
28723W        W44857   9.605  19.136  12.500  0.0593 -0.1347 -0.1498
28724W        W44858  13.888  10.536   3.513  0.0137  0.2055 -0.1729
28725W        W44859   1.149  12.245  14.441 -0.0597  0.2649 -0.2546
28726W        W44860  14.413  18.320   0.096  0.1692 -0.0549  0.2311
28727W        W44861  17.850  12.151  13.308 -0.4555 -0.1873 -0.0515
28728W        W44862  13.455  15.539  14.051  0.1639  0.0393  0.1815
28729W        W44863  14.055  17.065  11.604  0.3467  0.1125  0.1578
28730W        W44864  15.247  10.421   3.619 -0.1885 -0.0274  0.0443
28731W        W44865  14.971  13.278  10.390 -0.1528  0.2588 -0.1983
28732W        W44866  16.841   8.837   1.129  0.0926  0.0732 -0.3634
28733W        W44867   7.177   2.779   4.651  0.0291  0.2092  0.0684
28734W        W44868  12.231  17.034   2.458  0.2875 -0.1384 -0.4033
28735W        W44869   2.378  17.418   3.114  0.3448 -0.0534  0.3143
28736W        W44870  12.347  14.299  10.787 -0.1369  0.2015 -0.2323
28737W        W44871  17.185  12.393   3.084  0.0175 -0.2492 -0.1186
28738W        W44872   1.624   0.778  13.905  0.0230  0.1314  0.2783
28739W        W44873  13.519  14.088  10.642 -0.0839  0.0490 -0.1894
28740W        W44874   8.766   4.041  13.614  0.2218 -0.0440  0.2693
28741W        W44875   1.233  14.945   2.041  0.5682 -0.4002 -0.0601
28742W        W44876  10.666  17.383  15.047  0.3843  0.1160  0.1963
28743W        W44877  11.246   9.350  13.071 -0.1796  0.1512 -0.0983
28744W        W44878  11.220  14.622   2.985  0.0733 -0.1029  0.0189
28745W        W44879   4.432  16.411  13.934 -0.0417  0.0258  0.4074
28746W        W44880  11.162   2.078   1.222  0.1535 -0.0468  0.2429
28747W        W44881   1.619   3.702   1.790 -0.0109  0.1352 -0.2759
28748W        W44882  10.058  13.095   5.112  0.0316 -0.1962  0.2484
28749W        W44883   3.004  17.944   1.739 -0.1428 -0.1527  0.3068
28750W        W44884  11.281  10.695  10.960 -0.0286  0.0973 -0.2966
28751W        W44885   8.171   3.860  13.396 -0.1130 -0.0192  0.1937
28752W        W44886   2.107  10.889  11.090 -0.0103 -0.0643  0.2256
28753W        W44887   0.395  12.790  14.676 -0.5062 -0.0246 -0.0773
28754W        W44888  10.821   5.326  14.656  0.2298 -0.1534  0.4995
28755W        W44889   0.498   6.411  14.756 -0.2999 -0.0600 -0.3346
28756W        W44890   6.274   4.374   1.847 -0.0849 -0.4459  0.1282
28757W        W44891  13.583  11.116   2.879 -0.0068  0.2329 -0.0550
28758W        W44892  14.809   5.624  14.661  0.4400  0.0079 -0.2523
28759W        W44893   8.979   4.156   2.356 -0.0494  0.0232  0.0167
28760W        W44894  14.176   9.951  10.240 -0.0707  0.1891 -0.3468
28761W        W44895   2.413   0.872   5.196 -0.0045 -0.3200  0.2160
28762W        W44896   4.361   4.110   2.423 -0.1827 -0.0840 -0.1295
28763W        W44897   5.172   3.591   2.681  0.1673  0.1381  0.1604
28764W        W44898  16.103   4.812   3.825  0.1145  0.2175  0.2473
28765W        W44899  14.593   1.968   3.414  0.1046 -0.0460  0.0397
28766W        W44900   7.507  10.359   0.451 -0.1572  0.0750 -0.1622
28767W        W44901   3.469   1.975  12.760  0.3180  0.1028  0.0451
28768W        W44902  13.272   5.354   3.411 -0.0114  0.0428 -0.0789
28769W        W44903   4.353  10.094   0.035 -0.0195  0.2267 -0.0998
28770W        W44904   4.227  15.984   0.090  0.0978  0.5667 -0.2235
28771W        W44905   9.597  10.956  13.156 -0.0173  0.2119 -0.0007
28772W        W44906  18.852  15.097   3.304  0.2068  0.2594 -0.0210
28773W        W44907  10.211  16.304  11.573 -0.1827 -0.0479 -0.2172
28774W        W44908   2.018   0.446   1.865  0.0488  0.3753  0.2173
28775W        W44909  11.070  14.741   3.581 -0.0013 -0.0992 -0.0635
28776W        W44910   6.582   5.833  12.178 -0.0306  0.0115  0.0896
28777W        W44911   5.740   1.493   3.234 -0.1985 -0.4483  0.1078
28778W        W44912   7.659  12.599  10.892  0.2393  0.1257 -0.3706
28779W        W44913   7.084   4.443  10.917 -0.2681  0.2323 -0.0325
28780W        W44914   2.162   7.905  14.738  0.3693  0.0986  0.0993
28781W        W44915   8.520  10.876   1.402 -0.3503  0.0996 -0.0593
28782W        W44916   2.165   8.587  10.093  0.0092  0.1817  0.0572
28783W        W44917   4.733  13.946  14.787  0.0755 -0.0371  0.3114
28784W        W44918   3.328  15.667   0.950  0.2909 -0.3560  0.1290
28785W        W44919  11.584   5.684   1.881  0.1026  0.1755  0.0883
28786W        W44920  17.161   3.566  12.613 -0.1152  0.0978 -0.0278
28787W        W44921   9.409  18.077   0.618 -0.3705 -0.5369  0.1820
28788W        W44922  16.063   7.387  13.037 -0.0646  0.0635 -0.1428
28789W        W44923   4.197   0.482  14.335  0.1730 -0.2546  0.0438
28790W        W44924  17.195  19.041  10.267  0.0788  0.1083  0.1131
28791W        W44925  16.021   8.522   0.412  0.1979 -0.1121 -0.0969
28792W        W44926   4.333   0.532   5.298  0.2069  0.0406 -0.0551
28793W        W44927  19.010  14.365   5.060  0.1146 -0.4105 -0.2570
28794W        W44928  16.168  12.575  13.895 -0.0931  0.1207  0.2646
28795W        W44929   6.142  16.746   5.906  0.2576  0.2338 -0.1287
28796W        W44930   3.743  16.761  11.621 -0.0144 -0.1249 -0.1105
28797W        W44931   1.792  10.975  13.710 -0.1351 -0.2892  0.3163
28798W        W44932   6.087  14.215  11.545 -0.1112  0.0330  0.2664
28799W        W44933  10.086  14.021   2.279  0.0117 -0.1979  0.2389
28800W        W44934   5.221   2.389  10.898 -0.3336  0.0129  0.0046
28801W        W44935  11.369   4.148   2.936  0.0077 -0.2414  0.3397
28802W        W44936   2.288   0.848   0.411  0.1020  0.1627 -0.1960
28803W        W44937  11.390  15.990   2.034 -0.3931  0.0164 -0.0106
28804W        W44938  16.528   1.922  12.596  0.2618  0.0855  0.1583
28805W        W44939   7.568   3.418  11.941  0.2149 -0.0435  0.0979
28806W        W44940  14.131   2.399   4.672  0.0524 -0.2656  0.2036
28807W        W44941   7.272  15.802   4.855  0.1834  0.3494 -0.0998
28808W        W44942   2.194  13.335   3.427 -0.0866  0.0303  0.0084
28809W        W44943  10.158   5.852  12.403 -0.1045  0.0342 -0.2116
28810W        W44944  17.458  12.487   2.607  0.0270 -0.2171 -0.0157
28811W        W44945  15.618   8.351  15.159 -0.0541 -0.1471 -0.0039
28812W        W44946  11.799   8.832  12.276  0.0564 -0.0708  0.1090
28813W        W44947   9.326   2.949  14.637  0.0705  0.1586  0.1644
28814W        W44948   6.615   2.339  12.803  0.3269  0.0650 -0.3734
28815W        W44949   6.168   5.236   4.760 -0.0255 -0.2311 -0.0209
28816W        W44950  18.417  18.516  12.616 -0.1539 -0.1326 -0.1748
28817W        W44951   3.697   3.421   4.607  0.0592 -0.1999 -0.2002
28818W        W44952  10.175   5.157   0.176  0.0876  0.1075 -0.0891
28819W        W44953   0.285  16.866   5.029 -0.1412 -0.0756  0.1145
28820W        W44954  16.043  16.992  13.538 -0.2544  0.1983  0.4087
28821W        W44955   2.309  15.411  13.984  0.0306  0.3195 -0.1066
28822W        W44956  15.634   4.942  12.860  0.2287  0.1419  0.0498
28823W        W44957   2.102  14.331   1.015 -0.0304  0.3075 -0.1342
28824W        W44958   8.705   7.571   3.378  0.3976  0.0018  0.1381
28825W        W44959  18.038  12.272  12.858  0.0216 -0.1544  0.0240
28826W        W44960   1.092   2.698   2.783  0.0574 -0.2632 -0.1234
28827W        W44961   6.917  15.388   4.209 -0.1714 -0.1743  0.2683
28828W        W44962  14.957   6.915  12.612 -0.1977 -0.0384 -0.1238
28829W        W44963   1.736   4.609   1.636 -0.2408 -0.1601 -0.0034
28830W        W44964   5.462   2.520   0.886  0.0009 -0.1449 -0.0508
28831W        W44965   7.252  12.761   5.812  0.1965 -0.0255 -0.0479
28832W        W44966  10.699   6.270   1.928 -0.0233 -0.0626 -0.1345
28833W        W44967   4.948  18.056   4.862  0.1236 -0.1534  0.1461
28834W        W44968  11.060   1.834  13.751 -0.0702 -0.1308 -0.3850
28835W        W44969   6.283  14.401   4.761 -0.1381 -0.0956 -0.0744
28836W        W44970   2.715   6.783  14.991 -0.3929  0.3675  0.1355
28837W        W44971  17.913  15.891  13.262  0.1598  0.1863 -0.1103
28838W        W44972  16.498   4.827   0.800  0.0468 -0.1333 -0.0787
28839W        W44973   8.839   4.076  12.504  0.4584 -0.0970  0.0142
28840W        W44974   9.178   7.490   0.985  0.3323  0.1404  0.1618
28841W        W44975  15.351  11.893   0.626  0.0225 -0.0468  0.1340
28842W        W44976  17.638  14.601  14.070  0.0447  0.0235  0.0178
28843W        W44977  17.179   1.487  12.458 -0.2420  0.0469  0.3859
28844W        W44978   9.353   6.799   0.896  0.0055 -0.0540  0.0079
28845W        W44979  12.575   4.696  14.200 -0.1477  0.0633 -0.0208
28846W        W44980  10.842   0.435  14.712  0.4909 -0.1998  0.0544
28847W        W44981   0.315   3.704   4.838 -0.0221 -0.1231  0.2059
28848W        W44982   6.299  10.187   0.527 -0.1565  0.2659  0.0422
28849W        W44983  16.375  17.674  14.946  0.2446  0.0905 -0.1104
28850W        W44984  15.974  11.735  14.047  0.4263  0.1964 -0.0481
28851W        W44985  15.244  17.179   5.292  0.3135 -0.0446  0.2701
28852W        W44986   9.641   8.926  14.403  0.0423  0.1722 -0.2718
28853W        W44987  16.817  18.316  14.935  0.0987 -0.1453 -0.3782
28854W        W44988  17.462  11.149  14.962  0.1357 -0.0970  0.1717
28855W        W44989   0.804   5.690   1.736  0.1325 -0.2326 -0.0912
28856W        W44990  12.008  17.577   1.089  0.2032 -0.1612 -0.0820
28857W        W44991  15.201  10.318   1.006 -0.0407  0.4109 -0.0230
28858W        W44992  14.485   4.337   2.190  0.0474 -0.0163  0.1014
28859W        W44993  14.783  12.657   4.835 -0.1184  0.1462 -0.2403
28860W        W44994  19.003  16.103  12.953  0.1270 -0.0655  0.1421
28861W        W44995   4.112   9.672   3.654 -0.3650 -0.3225  0.0303
28862W        W44996  17.374   4.126  14.667 -0.0309 -0.1778 -0.1073
28863W        W44997   2.233  11.816   1.309  0.0796 -0.0795  0.1652
28864W        W44998  11.024  18.199   5.747 -0.1854 -0.3934  0.0352
28865W        W44999  14.775   0.602  11.902  0.1503  0.2256  0.0526
28866W        W45000  14.599   9.987   1.892  0.0554  0.2625  0.1912
28867W        W45001  14.627   5.110  14.556 -0.1099  0.3746 -0.5186
28868W        W45002  12.743   1.509   2.000  0.1093 -0.1634 -0.0957
28869W        W45003  12.746   2.537   4.007 -0.2282  0.2632  0.4407
28870W        W45004   2.980  11.016  13.562  0.1655 -0.1869 -0.0138
28871W        W45005   7.445  18.312  14.735 -0.0814  0.1138 -0.0092
28872W        W45006   7.978  16.079   4.046 -0.0447 -0.1473  0.0281
28873W        W45007  17.493  18.050   1.704  0.0962 -0.0002 -0.0923
28874W        W45008   9.006  13.811  10.828  0.3458  0.0318 -0.2366
28875W        W45009  12.746   4.280  10.729  0.0981 -0.1685  0.0935
28876W        W45010  12.675   8.223  14.105 -0.1168 -0.1866 -0.1734
28877W        W45011   2.138  17.727  14.773 -0.1388  0.2589 -0.2983
28878W        W45012  15.329  18.776   1.809  0.1443 -0.1372 -0.0634
28879W        W45013  15.208  15.980  13.888 -0.0905 -0.3022 -0.1039
28880W        W45014  17.067   8.703   4.103 -0.0134 -0.1286 -0.0095
28881W        W45015   5.308   7.230   5.787  0.1435  0.0636 -0.1888
28882W        W45016   1.023  18.399  11.909 -0.2748  0.3856 -0.0050
28883W        W45017  16.899   4.966  11.595  0.1693  0.1104  0.2470
28884W        W45018   0.559  18.732   3.010 -0.2417  0.0942 -0.0181
28885W        W45019  16.103   9.049   3.135 -0.2946 -0.0280 -0.1456
28886W        W45020   8.103   2.513  15.112  0.0915  0.0950 -0.1049
28887W        W45021  11.482   3.475   5.399  0.1927 -0.0948  0.0908
28888W        W45022  12.343   7.380   5.755 -0.0710  0.0084  0.4182
28889W        W45023   6.978  16.328  13.336 -0.1230  0.2316 -0.0006
28890W        W45024   1.054  16.922  14.376 -0.0265 -0.1405  0.3902
28891W        W45025   7.797  11.927  12.270  0.0823 -0.2977  0.3479
28892W        W45026   8.254   0.164   4.751 -0.0470 -0.3308 -0.1772
28893W        W45027   9.084  10.438   4.187 -0.3273  0.1680 -0.2818
28894W        W45028   0.710   5.649  15.102  0.0201 -0.2610  0.1567
28895W        W45029   4.103   8.208   1.465 -0.4073 -0.1531 -0.2008
28896W        W45030   4.066  16.784   0.306 -0.0546  0.0593 -0.1178
28897W        W45031   0.008   1.350  13.041 -0.0955 -0.2111 -0.2041
28898W        W45032   5.641   8.207  10.308 -0.6531  0.2734  0.1117
28899W        W45033   1.662  12.521  15.016 -0.3565  0.1923  0.0322
28900W        W45034  18.948  14.628  10.968  0.1329 -0.3493 -0.0474
28901W        W45035   2.317  19.112  14.668  0.1606 -0.0756 -0.2072
28902W        W45036   4.879  11.698   1.469  0.1827 -0.0880 -0.1427
28903W        W45037  17.001   1.995  11.798  0.0195 -0.4018 -0.1073
28904W        W45038  10.164   6.399  11.617 -0.1314  0.0312  0.0214
28905W        W45039   1.685   6.677  14.287 -0.3426 -0.1807 -0.2114
28906W        W45040  14.577  13.955  11.735  0.0797  0.0480  0.2652
28907W        W45041  16.982   6.553   4.690 -0.1052 -0.1175 -0.0957
28908W        W45042   6.022   6.986   1.487  0.3097  0.0809 -0.0256
28909W        W45043   8.144   6.605  13.268  0.2166 -0.0621  0.1373
28910W        W45044  13.730   0.124   4.558  0.0760  0.1724 -0.2323
28911W        W45045  10.569  17.373   3.540  0.0105 -0.2605  0.0496
28912W        W45046  12.350  16.580  15.207  0.2736 -0.0166 -0.0708
28913W        W45047   6.940  16.716   3.869  0.0923 -0.0970 -0.2663
28914W        W45048  11.893   5.726  12.067  0.0587  0.1937  0.0791
28915W        W45049   6.814   7.692   0.739 -0.1255 -0.1157 -0.1457
28916W        W45050  17.066  15.296   4.800 -0.0740  0.0037  0.2747
28917W        W45051   0.078   9.980   2.868  0.1884 -0.0649  0.0026
28918W        W45052  17.366   9.529  12.188 -0.0023  0.1353  0.1291
28919W        W45053   5.173   1.544  11.163  0.0534  0.4074  0.1864
28920W        W45054   2.097   0.946   3.407  0.2372 -0.0734 -0.1217
28921W        W45055   4.945  16.451  12.639  0.2557  0.1670  0.1526
28922W        W45056   9.669   7.915  11.117 -0.3127  0.1630  0.1886
28923W        W45057   1.746   3.995   0.038 -0.1472  0.0484 -0.2175
28924W        W45058   4.820   3.230   2.626  0.2340  0.0898  0.1950
28925W        W45059   3.932  16.401  12.630 -0.1187  0.0993  0.1126
28926W        W45060  16.425   6.611   4.551 -0.0075 -0.1043 -0.0066
28927W        W45061   8.937   6.940   2.143 -0.1479  0.1272  0.1153
28928W        W45062   0.617   4.697   3.028  0.0182 -0.0487 -0.2752
28929W        W45063  13.413  15.451  12.751 -0.0791 -0.2422 -0.2416
28930W        W45064   8.774  11.058  12.481  0.0592 -0.3508 -0.2436
28931W        W45065   5.440  18.478  14.334 -0.0215  0.1163  0.0608
28932W        W45066  13.953   8.834   3.901 -0.2013  0.0120 -0.1850
28933W        W45067  12.270   1.944  11.989  0.5372  0.1848  0.1447
28934W        W45068  18.067   7.275   1.770 -0.1668 -0.2718 -0.0385
28935W        W45069  11.319  18.131  11.264 -0.0777  0.1190  0.1660
28936W        W45070   8.842   0.429   9.333  0.3975 -0.1523  0.0371
28937W        W45071  18.776   0.983  11.712 -0.0942  0.1974  0.0271
28938W        W45072   2.400  10.875  10.679  0.0488 -0.0443  0.4283
28939W        W45073   6.296   1.583   0.116  0.0588  0.2745 -0.1069
28940W        W45074  14.080  12.507  11.616 -0.1591 -0.2891 -0.2039
28941W        W45075   0.922   3.164   2.726  0.0501  0.1306 -0.1559
28942W        W45076  17.041   4.401  14.252  0.1933 -0.0566 -0.2517
28943W        W45077   2.548   4.338  14.184  0.0219 -0.0338 -0.0945
28944W        W45078   3.044   2.204   2.608 -0.1798 -0.1643 -0.1567
28945W        W45079   6.763  14.073   3.306 -0.1618 -0.0177  0.0587
28946W        W45080   9.210  13.095   5.529  0.3737  0.1865  0.3811
28947W        W45081   1.075   9.177   1.887 -0.0684  0.0475  0.0541
28948W        W45082  19.081   0.636  14.730 -0.0689 -0.0150 -0.0223
28949W        W45083  13.848   7.873  14.379  0.2039 -0.3066 -0.2411
28950W        W45084   4.374   3.613  12.706 -0.1983 -0.1070 -0.1251
28951W        W45085   5.165  19.045   3.003  0.0265  0.0821 -0.1316
28952W        W45086  13.535  18.076  12.371  0.0812  0.1034  0.0379
28953W        W45087  17.470   8.353   3.125 -0.0055 -0.1013 -0.1934
28954W        W45088  11.706   4.640   5.775 -0.2031  0.2511 -0.0614
28955W        W45089  10.541  16.342   5.252 -0.4066 -0.0311 -0.1042
28956W        W45090   6.078  17.719   1.294 -0.1714  0.0733  0.0153
28957W        W45091  13.139   6.808   3.227 -0.1583 -0.3535  0.2389
28958W        W45092   1.694  18.418  10.351  0.0748 -0.1428  0.0202
28959W        W45093   3.778   6.364   1.352 -0.0771 -0.0230  0.1114
28960W        W45094  16.516  15.075  13.975  0.0886 -0.0738 -0.2115
28961W        W45095  15.146  11.383  10.642 -0.0085 -0.0517  0.2383
28962W        W45096   9.335  16.545  13.273  0.0200 -0.0186 -0.1297
28963W        W45097  17.847  12.472   2.250  0.0655  0.0274 -0.0016
28964W        W45098   4.155   1.035  10.531 -0.0487 -0.0608 -0.1023
28965W        W45099   0.740   7.573  12.058 -0.0024  0.1433 -0.2954
28966W        W45100  18.568   0.281   3.705  0.0801  0.5343  0.0079
28967W        W45101   4.810  18.331  15.018  0.2039 -0.1106 -0.1152
28968W        W45102  14.305   5.598  13.303  0.0428  0.0246  0.0749
28969W        W45103  17.444   0.994   0.645  0.1046 -0.3765  0.1607
28970W        W45104   0.467   5.161   0.713 -0.0983 -0.0012 -0.2894
28971W        W45105  14.781   6.761   3.248 -0.3506 -0.2773  0.1346
28972W        W45106  13.115  14.769   0.414  0.0838  0.0185 -0.0006
28973W        W45107  18.202  16.296   4.898  0.0532 -0.1454 -0.3730
28974W        W45108  10.902  18.433  11.711 -0.0182  0.3383  0.1479
28975W        W45109  11.853   2.243  13.925 -0.2631 -0.1282 -0.2097
28976W        W45110   7.735   6.576  10.684 -0.1529 -0.0241 -0.0660
28977W        W45111   1.640   2.592   4.974  0.3861 -0.0665 -0.5264
28978W        W45112   4.163  18.449  13.590 -0.2873  0.3378 -0.1353
28979W        W45113   0.037  16.254  15.080  0.0506  0.1306  0.1063
28980W        W45114   5.434  17.375   2.452 -0.0022 -0.0045  0.3429
28981W        W45115  16.112   0.940  14.656  0.2209 -0.1428 -0.2794
28982W        W45116   9.810   2.624   4.188 -0.2166  0.3815  0.1263
28983W        W45117  16.510   4.029  10.856 -0.0853  0.3963  0.1070
28984W        W45118   1.682  10.126  11.205 -0.4582 -0.2488  0.0154
28985W        W45119  19.015  12.416  10.530  0.1678  0.0465 -0.2963
28986W        W45120   0.689   5.307  10.504  0.0892 -0.1816 -0.0779
28987W        W45121  10.298   0.733  12.257  0.1504  0.0555 -0.2101
28988W        W45122  15.226  15.004   2.139  0.0681 -0.0867 -0.0982
28989W        W45123   5.312  12.952  13.942  0.5403  0.0137 -0.4273
28990W        W45124   4.490  11.459   2.202  0.1834 -0.2436  0.2523
28991W        W45125  13.112   9.010  14.018  0.0230  0.2903 -0.1056
28992W        W45126  13.756   1.819   3.986 -0.0365  0.0825 -0.0094
28993W        W45127  17.893   1.432  13.178  0.1628 -0.1701  0.1026
28994W        W45128  14.166   0.373   4.855 -0.1541 -0.1106 -0.2527
28995W        W45129  12.300   8.887  12.513 -0.1460 -0.1438 -0.0811
28996W        W45130  14.373  17.100   2.323  0.1453 -0.1948 -0.0919
28997W        W45131  16.587   2.118  13.489 -0.0951 -0.0826  0.2935
28998W        W45132  13.606  17.432  12.974  0.0977  0.3921  0.0360
28999W        W45133   3.981  10.252  12.903 -0.1701  0.1231 -0.0292
29000W        W45134  11.340  12.486   0.118  0.0687  0.2091  0.4354
29001W        W45135   8.297  13.251   4.515  0.2961 -0.0302 -0.1572
29002W        W45136  18.395   6.764   2.716  0.0065 -0.1135 -0.0292
29003W        W45137  18.195   7.713   2.758  0.0566 -0.1307  0.3698
29004W        W45138   9.775   0.976  13.100 -0.0343  0.4659  0.0868
29005W        W45139  17.597  15.448   3.219  0.2773 -0.0308 -0.1605
29006W        W45140   2.890   1.334   3.490 -0.3360  0.0360 -0.1591
29007W        W45141  16.030   3.303  11.797 -0.0455  0.1533  0.4880
29008W        W45142  17.301  16.116  12.168  0.3004 -0.0360  0.0352
29009W        W45143  17.303   4.905   2.251 -0.0340 -0.3688  0.4652
29010W        W45144   3.279   2.987  14.716 -0.0426 -0.2214 -0.0239
29011W        W45145  18.190  18.255   2.143 -0.2967  0.2464 -0.2510
29012W        W45146   6.861   3.595  10.374 -0.2115 -0.0250 -0.0965
29013W        W45147   7.187  12.871   1.256  0.1051 -0.0068  0.3278
29014W        W45148   6.029  17.194   0.239 -0.0596 -0.1339  0.3649
29015W        W45149  13.180  11.038  14.957 -0.1335 -0.0592 -0.1325
29016W        W45150  17.566  15.428   2.740  0.1631  0.0378 -0.0341
29017W        W45151   4.086   6.484  10.965  0.0494 -0.0993 -0.0471
29018W        W45152   9.717  17.911  13.760  0.1255 -0.2084  0.1302
29019W        W45153   9.366   4.732   1.697 -0.1181  0.3495  0.2051
29020W        W45154  18.196   8.065   4.819 -0.3919 -0.0702  0.0118
29021W        W45155   7.827   7.154   4.395 -0.0403  0.0509 -0.0857
29022W        W45156   2.421   6.637  14.571  0.3259  0.1134 -0.3232
29023W        W45157   5.688  10.294   1.327  0.1926  0.0021  0.0692
29024W        W45158   8.112  15.734  10.771 -0.1879  0.1139  0.1294
29025W        W45159   4.541  16.708  10.390 -0.0469 -0.0654 -0.0299
29026W        W45160  13.316   2.183   0.404  0.1346 -0.4543 -0.1882
29027W        W45161   2.744  15.569  13.847  0.0222  0.1648 -0.1489
29028W        W45162   8.168  17.578   3.759  0.1991 -0.0465 -0.2899
29029W        W45163  12.859  11.619   3.269 -0.3676 -0.1558 -0.0080
29030W        W45164  12.198  11.326   4.526  0.4664  0.1645 -0.2318
29031W        W45165   8.101   2.421  12.175 -0.0534  0.1732  0.1287
29032W        W45166  14.448   3.466   2.118  0.1127 -0.2454  0.1023
29033W        W45167   1.984   5.363   2.090 -0.0992  0.3386  0.3085
29034W        W45168   4.727  16.644  11.757 -0.0149 -0.0492  0.0941
29035W        W45169  16.744  16.347   4.922  0.1905  0.1972  0.0075
29036W        W45170   4.891  11.415  13.271  0.1028  0.2142  0.0679
29037W        W45171   6.005  14.198   5.193 -0.1261  0.3183  0.1330
29038W        W45172  18.313  16.085  13.498 -0.2470  0.1914  0.3102
29039W        W45173   5.406  19.120   0.683 -0.2241 -0.2017 -0.0865
29040W        W45174   0.663   2.144  13.247  0.2122  0.1863 -0.1157
29041W        W45175  13.657  18.582   5.893  0.0394 -0.1662 -0.3199
29042W        W45176   7.100   3.182   0.324  0.0153  0.1787  0.1473
29043W        W45177  11.903   5.178  11.387  0.2012 -0.0537  0.0405
29044W        W45178   9.178  16.799   9.870 -0.0729 -0.2264  0.1461
29045W        W45179   6.206   9.163  13.726 -0.0407 -0.1667  0.3436
29046W        W45180  18.731  14.830   1.361  0.0565  0.0579  0.4979
29047W        W45181  13.140  11.988   3.040  0.1571  0.0496  0.0680
29048W        W45182   1.007  10.489   0.367 -0.0570 -0.2534 -0.0988
29049W        W45183  11.963   1.773  11.642  0.2849 -0.2021 -0.2401
29050W        W45184  17.461  18.194  15.096 -0.1227 -0.2795 -0.0200
29051W        W45185  11.857  12.002   2.655  0.1368 -0.0311  0.1755
29052W        W45186  10.349  14.754  14.739 -0.0065 -0.1702  0.0614
29053W        W45187  10.586  16.241  11.189  0.0394 -0.4112 -0.0333
29054W        W45188   4.884   6.995   2.151  0.1466 -0.0675 -0.1167
29055W        W45189  17.423  10.176   0.282  0.0274  0.3451 -0.2819
29056W        W45190  11.038   8.661   0.864  0.1143 -0.0215 -0.1411
29057W        W45191  13.628  15.710  10.808  0.0725 -0.0061 -0.3792
29058W        W45192   5.489   6.005  10.910  0.0712  0.0873  0.0674
29059W        W45193   9.827  13.643   3.526 -0.1517 -0.2706 -0.2576
29060W        W45194  13.328  15.299   4.649 -0.1888 -0.0416  0.1212
29061W        W45195   9.196  13.724  12.571 -0.1275 -0.1924  0.3430
29062W        W45196  13.738  14.578   2.338  0.0768 -0.0156 -0.3266
29063W        W45197   4.113  18.509  12.826 -0.0542  0.4479 -0.1042
29064W        W45198   1.688   2.044   4.075  0.2203  0.3078 -0.1970
29065W        W45199   1.529  18.484   3.773  0.0901  0.1662  0.2385
29066W        W45200  15.621  16.073  14.313  0.1293 -0.3823  0.2738
29067W        W45201   6.012  18.264  10.927 -0.2022 -0.2220 -0.0736
29068W        W45202   9.054   1.508   1.325 -0.0032 -0.1636  0.1253
29069W        W45203   7.738   4.626   1.630 -0.2507  0.0822 -0.1955
29070W        W45204   8.311   0.510  13.313 -0.1452  0.0686 -0.0924
29071W        W45205   5.358  10.369   3.079  0.0470 -0.3781 -0.1492
29072W        W45206  12.875   4.240  14.963  0.0174 -0.1631 -0.4156
29073W        W45207  19.045  17.660   2.217  0.0103 -0.0588  0.1770
29074W        W45208   3.867   9.345  14.673  0.0814 -0.4010  0.3861
29075W        W45209   7.625   4.626  12.611  0.2032  0.0293 -0.0210
29076W        W45210  17.968   8.135  11.226 -0.2035  0.2414 -0.1477
29077W        W45211   0.298   1.506   4.056 -0.1577 -0.1470  0.1423
29078W        W45212  18.382  13.810   3.410  0.2480  0.2675 -0.1405
29079W        W45213  18.493   4.055  11.373  0.5207  0.0072 -0.1793
29080W        W45214  13.200  12.100   4.141 -0.5030  0.0190  0.0075
29081W        W45215   9.035   9.734   2.119  0.3429 -0.2882 -0.1060
29082W        W45216  10.854   8.223  14.015 -0.1788 -0.2080 -0.1440
29083W        W45217   8.798   4.676   4.234 -0.1210  0.4092 -0.1016
29084W        W45218   8.728  17.401   4.860 -0.0172  0.1669 -0.1457
29085W        W45219   3.116   8.104  12.473 -0.0175  0.2181  0.0905
29086W        W45220  14.016  11.546   1.883 -0.0803  0.1555 -0.1162
29087W        W45221  15.908   5.741   9.890  0.0564 -0.0162 -0.1989
29088W        W45222   4.196   5.979   2.598 -0.2052 -0.0360  0.2409
29089W        W45223  11.082  14.842  12.658 -0.1351 -0.3468  0.0884
29090W        W45224  15.676   4.835   4.036  0.1005 -0.0450  0.3681
29091W        W45225   6.704   5.666   1.850  0.0238 -0.1648  0.0187
29092W        W45226   5.374   6.711  12.501 -0.5506  0.1521  0.2314
29093W        W45227  18.862   4.092   3.485  0.3362 -0.1321  0.0675
29094W        W45228   8.486  15.426  14.316 -0.1256 -0.0873  0.0523
29095W        W45229  15.602  14.878   3.224 -0.1799  0.0735  0.0011
29096W        W45230   8.044   4.129  11.234 -0.1936 -0.1575 -0.2479
29097W        W45231  10.671  11.365  14.415 -0.0429  0.1440  0.0617
29098W        W45232  15.123  10.697   2.245  0.0997  0.0118  0.3756
29099W        W45233  13.956  14.687  12.123 -0.1731  0.2276 -0.0584
29100W        W45234   5.778   6.414  13.454 -0.1785  0.0001  0.0186
29101W        W45235  10.373   4.835  13.666 -0.2728  0.0887 -0.0413
29102W        W45236   1.360   7.481  13.982 -0.3752 -0.3644  0.0063
29103W        W45237  10.625  16.691   1.821 -0.1514  0.0975 -0.4361
29104W        W45238   2.375   7.124   3.543 -0.0922 -0.0090 -0.1480
29105W        W45239   1.424   4.675   2.060 -0.0861 -0.0551  0.1758
29106W        W45240  13.822  16.527   2.568  0.0201 -0.1708 -0.0828
29107W        W45241   3.984   2.713   2.780  0.2481  0.1727 -0.1172
29108W        W45242  18.460   5.880  14.366 -0.0100 -0.0030  0.1217
29109W        W45243  18.789   1.957  10.603 -0.0349 -0.1693 -0.0400
29110W        W45244   4.316  18.044   3.963  0.1152  0.3725 -0.0392
29111W        W45245  16.119   7.979  13.727 -0.2919 -0.2665  0.0725
29112W        W45246   2.445  10.471  10.388 -0.0730 -0.0753  0.0607
29113W        W45247  15.879  16.479  11.627 -0.0169  0.2085 -0.1619
29114W        W45248  17.098   9.017   4.779 -0.2758 -0.1512  0.0053
29115W        W45249  10.917   8.288   3.184  0.0332  0.2799  0.3441
29116W        W45250  15.557  16.732  11.969 -0.3506  0.1966 -0.2320
29117W        W45251   9.597  12.584  13.297  0.0580  0.2029  0.0594
29118W        W45252   5.859  14.221   0.646 -0.0220 -0.0733  0.0774
29119W        W45253  18.484   9.475  11.291  0.0966 -0.0056 -0.1747
29120W        W45254   8.907   3.758  12.052 -0.0652  0.1837 -0.0449
29121W        W45255   6.775  10.691  13.152 -0.3122  0.1477 -0.0901
29122W        W45256   7.599  12.245   1.003  0.2884  0.0114  0.0083
29123W        W45257   4.095  12.387  14.299 -0.1422 -0.1828  0.1213
29124W        W45258   7.133  13.133   9.947  0.1572  0.2051  0.2196
29125W        W45259   2.743  16.660  13.172  0.1660  0.0993  0.1188
29126W        W45260   6.851   3.525   0.578  0.0894 -0.1448 -0.2511
29127W        W45261   1.076   9.967   4.412  0.2774  0.0447  0.2907
29128W        W45262   2.920   4.628   3.549 -0.2555 -0.2005 -0.0846
29129W        W45263  13.548  17.965  14.772 -0.1222  0.0791 -0.1552
29130W        W45264   3.634   1.649  14.473 -0.1180  0.2648  0.0853
29131W        W45265  18.345  13.350   3.228  0.0042  0.0040 -0.1873
29132W        W45266  16.991  18.493   2.954  0.0406 -0.1182 -0.0528
29133W        W45267  12.728   1.206  12.551 -0.0733  0.0186 -0.1219
29134W        W45268  14.797  15.861  14.271  0.1294  0.4135  0.5105
29135W        W45269   5.974   9.516  13.382 -0.0250  0.0249  0.3852
29136W        W45270   5.997  10.321  14.648 -0.1346 -0.0315 -0.0021
29137W        W45271   1.251   5.092  13.284 -0.1826 -0.0209 -0.1492
29138W        W45272  12.434   4.931   0.223 -0.0307 -0.2601  0.1028
29139W        W45273   6.080  11.338   0.082 -0.1161 -0.0997 -0.2457
29140W        W45274   4.724  15.140  12.239  0.0358 -0.1859 -0.0130
29141W        W45275   3.738  13.333   1.655  0.0766 -0.0575 -0.1083
29142W        W45276  10.003   2.260  14.396 -0.3711 -0.0833 -0.1152
29143W        W45277  10.065   1.427  13.844 -0.1354  0.0734  0.4094
29144W        W45278  11.082   0.003  13.297  0.0966  0.0510 -0.1147
29145W        W45279   3.270  18.755   0.487  0.4375 -0.0911 -0.0570
29146W        W45280  13.030   3.298   0.191  0.0976  0.3049 -0.2859
29147W        W45281  16.418   2.138   3.202  0.2837 -0.1871  0.0174
29148W        W45282  14.201  16.777  10.247  0.1600 -0.1625 -0.0671
29149W        W45283   3.497  13.404  11.561 -0.3441  0.2608  0.0493
29150W        W45284   9.208  14.203   3.585  0.0490  0.0835  0.0735
29151W        W45285   2.103  15.831   3.027  0.0863  0.0485 -0.2224
29152W        W45286   7.886   9.275  13.868  0.3784  0.0722  0.2988
29153W        W45287   5.550  18.163  11.599 -0.2388 -0.0942  0.1569
29154W        W45288  15.765   9.299  10.745 -0.1842 -0.1085 -0.0849
29155W        W45289  10.897   8.339  14.806  0.1509  0.3984 -0.3186
29156W        W45290   1.443   0.492   0.964 -0.0485 -0.0837 -0.1733
29157W        W45291  16.952  15.161  12.205  0.4842  0.0671  0.1639
29158W        W45292  15.884  10.421   2.888  0.0275  0.1761  0.2929
29159W        W45293   4.044   2.045  13.694  0.3723  0.0414 -0.1321
29160W        W45294   3.924   8.349  14.613 -0.0072 -0.0648  0.1798
29161W        W45295  14.206  18.253   4.146  0.1144 -0.0433 -0.3127
29162W        W45296  14.217   5.578  14.586 -0.0171 -0.1741  0.5060
29163W        W45297  14.652   7.870   0.773  0.0089 -0.1981  0.1440
29164W        W45298   8.032   7.689   2.180 -0.1502 -0.1290 -0.1653
29165W        W45299  14.170   2.607  11.553 -0.2466  0.0914  0.1827
29166W        W45300  18.689  15.666  10.367  0.0442 -0.2440 -0.0194
29167W        W45301  13.935  14.970   2.135 -0.0330 -0.1024  0.1155
29168W        W45302  10.207  17.807  14.239  0.0581  0.4678  0.2152
29169W        W45303  13.028   2.364  11.567  0.0122 -0.3042 -0.2152
29170W        W45304  14.457  14.094  10.670  0.0503 -0.1061 -0.1038
29171W        W45305  13.515   6.218   3.940 -0.0234  0.5291  0.1385
29172W        W45306   3.636   2.598  13.325 -0.1259 -0.2999  0.0913
29173W        W45307   2.705  10.729  11.139 -0.0298 -0.0163 -0.3045
29174W        W45308  16.216  13.990  14.020 -0.4139  0.0734 -0.1408
29175W        W45309  14.744  18.385  13.425  0.0784 -0.0201 -0.0506
29176W        W45310  13.743   9.518  11.775 -0.2802 -0.3879  0.0479
29177W        W45311   0.266  12.800  13.624  0.0828  0.0698 -0.0830
29178W        W45312   4.531  16.769   2.112  0.1028 -0.0545  0.6823
29179W        W45313   7.507   1.878   0.318 -0.0782 -0.2277  0.0752
29180W        W45314  18.597   7.199  11.039 -0.1797  0.2294 -0.0796
29181W        W45315  18.952   7.137   3.986  0.2499 -0.1067  0.2921
29182W        W45316  18.772  16.001  14.744  0.0560  0.0097 -0.1031
29183W        W45317   9.553  12.940   0.210 -0.1070 -0.1719  0.1808
29184W        W45318   2.856   5.725  12.215 -0.0979 -0.0664  0.1686
29185W        W45319   9.571  17.758  11.191 -0.3022  0.1200  0.0487
29186W        W45320  18.233  15.572   0.797  0.2180 -0.2821  0.1711
29187W        W45321   4.452   8.592  12.525 -0.0554  0.0903  0.1126
29188W        W45322   2.989  14.361  14.213 -0.1007  0.4481 -0.0388
29189W        W45323   3.678   6.425  14.948 -0.0946 -0.3741  0.0480
29190W        W45324  14.132  16.023  11.477  0.1738 -0.1004 -0.4199
29191W        W45325  14.106  12.072  14.292 -0.0003  0.2991 -0.1183
29192W        W45326   8.267   5.201  12.231 -0.0956 -0.1697 -0.0475
29193W        W45327  12.862  12.074   1.719  0.1045 -0.1693 -0.1572
29194W        W45328  17.481  12.762   3.035  0.2732  0.0405 -0.0123
29195W        W45329  16.890   9.409   0.252  0.1018  0.2696  0.1625
29196W        W45330   0.516   7.080  11.509 -0.3399 -0.0823 -0.3400
29197W        W45331   6.357   6.274   5.479  0.1602  0.0992  0.0936
29198W        W45332   5.194   8.200  15.002 -0.3653 -0.3122  0.0175
29199W        W45333  14.628   7.720   2.103  0.0977  0.0152 -0.0218
29200W        W45334   1.585  18.246  12.644 -0.1095  0.0516 -0.0591
29201W        W45335  16.825   6.921  11.637 -0.2603 -0.2557  0.0335
29202W        W45336  11.190   2.237   0.399  0.0128 -0.1217 -0.3967
29203W        W45337  14.379   3.822  12.912 -0.1131  0.1140  0.1277
29204W        W45338  14.558  15.193   4.275  0.1101  0.1422  0.0229
29205W        W45339  11.972   7.252   0.662  0.3684  0.0291 -0.0893
29206W        W45340  11.963   1.240  12.436 -0.1690 -0.0785  0.4644
29207W        W45341  16.307  12.190  11.926  0.2169  0.0703  0.0597
29208W        W45342   6.047  17.579   9.806 -0.2790 -0.1914 -0.2138
29209W        W45343   7.560   9.252   1.808  0.1648  0.0003  0.2778
29210W        W45344  12.354  17.178  13.324 -0.1079 -0.3083  0.2252
29211W        W45345  12.246   2.019   2.820 -0.0025  0.2025 -0.1884
29212W        W45346   8.447  17.985   3.997  0.2048 -0.0665 -0.0877
29213W        W45347  12.169  16.362  14.446  0.1122 -0.0526  0.1290
29214W        W45348   9.379  18.079   2.662 -0.4274 -0.1986 -0.0403
29215W        W45349   7.905  13.409   0.945  0.0399  0.1206 -0.0053
29216W        W45350  18.149   4.615   3.813 -0.1896  0.1557  0.0861
29217W        W45351  18.692  18.634   3.392  0.1062  0.0490 -0.1808
29218W        W45352   9.519  15.018  10.697 -0.2977  0.0668 -0.0502
29219W        W45353   9.630  19.005   4.700 -0.1935  0.0535  0.1110
29220W        W45354  17.944  12.163   3.343 -0.1372  0.2505 -0.0200
29221W        W45355   6.085   6.003   9.983  0.1817  0.0288 -0.4231
29222W        W45356   2.192   5.248  10.701  0.0760  0.2921 -0.0314
29223W        W45357  14.696  12.284  15.074  0.0380  0.0174  0.0097
29224W        W45358   3.063   2.696   2.661 -0.0856 -0.1381 -0.1425
29225W        W45359   5.803  11.714  14.134  0.0168  0.0969  0.0349
29226W        W45360   5.798   9.794   9.863 -0.0267 -0.3681 -0.1627
29227W        W45361   6.603  10.344  10.775  0.3243 -0.3212 -0.2027
29228W        W45362   6.482   5.069   9.842 -0.2297 -0.2817 -0.0688
29229W        W45363   7.981   2.993  15.075 -0.1223 -0.1400  0.2881
29230W        W45364  16.602   3.419   9.455  0.1486 -0.2164  0.3319
29231W        W45365  11.888  16.635  10.895 -0.0609  0.0422 -0.1809
29232W        W45366  15.265   2.674   0.233  0.3324  0.1082  0.0678
29233W        W45367   9.794  16.311   3.822  0.1675  0.0861  0.0408
29234W        W45368   3.096   6.696   4.389  0.1803 -0.0634  0.0328
29235W        W45369  17.935  16.730   4.886  0.1020 -0.0078 -0.0702
29236W        W45370   3.209   2.831   2.109 -0.1321 -0.0592  0.0781
29237W        W45371   8.168  17.923   3.459  0.0348  0.0620  0.1462
29238W        W45372   8.616  18.645   5.555 -0.0999  0.4227  0.0661
29239W        W45373  12.143   8.883   1.703 -0.1171 -0.0461 -0.0949
29240W        W45374  17.298   0.054  14.084  0.0390  0.0505  0.2699
29241W        W45375  19.119   6.708  13.178 -0.2839 -0.1310 -0.1526
29242W        W45376   2.159   8.403  14.548 -0.0046  0.4205 -0.1251
29243W        W45377   5.753  11.517   3.006 -0.0564  0.1157 -0.0894
29244W        W45378  16.614  12.675  10.620  0.0541  0.1185 -0.1387
29245W        W45379  16.879   5.060  13.002 -0.0772 -0.2039  0.1113
29246W        W45380   6.607   5.066  12.646 -0.2497  0.2795  0.2262
29247W        W45381   1.624   2.030   2.078 -0.0265 -0.2578 -0.1712
29248W        W45382   2.730   7.034   0.632  0.3188 -0.3282  0.0481
29249W        W45383   3.966   9.642   4.157 -0.1074  0.1825  0.3002
29250W        W45384  10.269   9.774   4.422  0.0713 -0.0542 -0.1142
29251W        W45385   5.813  12.602  13.007 -0.0235  0.3177  0.0696
29252W        W45386  12.615  11.827   5.190 -0.4231  0.2151  0.2034
29253W        W45387  18.873   2.340   1.802 -0.0424 -0.1969 -0.0123
29254W        W45388   2.592   7.646  11.991  0.3233  0.0339 -0.0735
29255W        W45389   1.360  15.296   2.754  0.0285  0.0958  0.3017
29256W        W45390  13.099  16.066  11.904  0.1505 -0.1472 -0.0440
29257W        W45391  15.010   2.803   5.403  0.3983  0.2928 -0.0436
29258W        W45392   1.960   4.690  12.008  0.2005  0.0325  0.0523
29259W        W45393  13.183   0.492   1.793  0.3061 -0.1757 -0.0999
29260W        W45394  17.825  14.849  11.649  0.3274  0.2075 -0.2259
29261W        W45395   8.580   2.567  14.376 -0.1612  0.2035  0.3058
29262W        W45396   2.708  13.878   4.422  0.0088  0.1381 -0.0239
29263W        W45397  17.842   5.783  11.323 -0.0364 -0.2127  0.1902
29264W        W45398   3.804   6.677  10.520 -0.2084  0.1514 -0.0994
29265W        W45399   1.784  11.461  12.340  0.0007 -0.2975  0.3045
29266W        W45400   8.300  10.250  14.698  0.1684 -0.1346  0.3679
29267W        W45401  16.270   5.977  12.319 -0.0617 -0.2424 -0.1448
29268W        W45402  10.222  16.423  10.951 -0.5759  0.1726  0.1441
29269W        W45403   7.008   2.049  12.154 -0.0540 -0.0003 -0.3431
29270W        W45404  18.257   5.327  12.211  0.1896 -0.1740  0.2359
29271W        W45405  11.024   6.253  11.892  0.1929  0.1806  0.0203
29272W        W45406  12.430  10.028  12.082 -0.0580  0.2510  0.2290
29273W        W45407   8.027   4.317  11.689 -0.1134  0.2416  0.0440
29274W        W45408  16.884   6.267   2.210  0.1331 -0.2039 -0.3906
29275W        W45409  15.000  18.647  12.668 -0.0777 -0.1319 -0.2774
29276W        W45410   7.924   1.161  12.129  0.0798  0.1066 -0.0248
29277W        W45411  10.394  13.725   1.960 -0.4948  0.0468 -0.5418
29278W        W45412  10.307   7.830  14.210 -0.0127  0.0162 -0.2533
29279W        W45413   4.988  12.762  10.987 -0.0891  0.1377  0.0979
29280W        W45414  11.089   7.218   3.196  0.0782  0.0479 -0.2113
29281W        W45415   2.409  11.473   4.565 -0.1091  0.0788 -0.1034
29282W        W45416  19.018   0.332   4.017  0.2036 -0.1744 -0.4332
29283W        W45417  16.923  17.578   0.417  0.0165 -0.0289 -0.0652
29284W        W45418   3.301  15.503   5.300 -0.3798 -0.2790  0.1162
29285W        W45419   2.618   3.137   0.039  0.3999 -0.1550 -0.0297
29286W        W45420   8.027  17.172   1.981 -0.1209 -0.3778  0.1522
29287W        W45421   2.980  18.535  14.260  0.2590  0.2333 -0.4361
29288W        W45422   5.225   3.780   3.653  0.1066 -0.2378  0.1828
29289W        W45423  13.670   0.089   5.072 -0.0221 -0.2433 -0.1304
29290W        W45424  14.344  14.627   3.628  0.3724  0.0261  0.0517
29291W        W45425  12.993  14.243   0.230 -0.3016 -0.1126 -0.1232
29292W        W45426  19.021  14.607   2.255  0.0744  0.0960 -0.2359
29293W        W45427  15.620  12.425  14.730 -0.0446  0.0773 -0.0460
29294W        W45428   3.790   4.625   4.494 -0.1913  0.1443 -0.0959
29295W        W45429   8.734  11.623   0.275  0.3204 -0.0793 -0.0996
29296W        W45430   7.461  15.386  14.613  0.1675 -0.0969  0.0485
29297W        W45431   6.577   8.003  14.525 -0.1656 -0.1235  0.3244
29298W        W45432   8.230  11.544   2.476 -0.0284 -0.3333  0.1407
29299W        W45433   6.670  14.113   4.474 -0.2136  0.0406  0.0880
29300W        W45434  19.050  11.428   0.371  0.0979 -0.0116  0.0218
29301W        W45435  15.308   4.006   2.237  0.0650  0.2677  0.0144
29302W        W45436  18.535   8.906  10.836 -0.0571 -0.4460 -0.0169
29303W        W45437   1.661   9.517   2.343 -0.0982  0.2804 -0.2036
29304W        W45438   7.081  18.924   0.551  0.1090  0.2540 -0.1416
29305W        W45439   8.695  15.672   0.208 -0.0920 -0.1894 -0.4440
29306W        W45440   1.836   4.383  10.551 -0.1338 -0.2346  0.1715
29307W        W45441   7.171   3.051  12.256  0.2964  0.0071  0.0839
29308W        W45442   5.481  13.946   3.523 -0.0036  0.0254  0.3677
29309W        W45443   2.664  15.018  13.472 -0.2015 -0.1281  0.1247
29310W        W45444   2.057  10.641  15.097  0.0062 -0.0990  0.0292
29311W        W45445  11.217   0.459  14.304  0.0445  0.1503 -0.3229
29312W        W45446  17.551   4.575  12.039 -0.0146  0.0593 -0.0817
29313W        W45447   1.824  17.767   4.787  0.0881  0.1214 -0.1280
29314W        W45448   1.657  12.067   3.763 -0.0307 -0.0017 -0.1736
29315W        W45449   4.309   1.875  12.369 -0.4350 -0.0581 -0.0502
29316W        W45450  10.093   7.737  10.718 -0.1766  0.1284  0.1085
29317W        W45451  15.455   1.478  13.054  0.3257  0.1427  0.2825
29318W        W45452   1.929   5.600  12.411  0.2455  0.0044  0.2852
29319W        W45453  16.335  10.403  12.601  0.0185  0.1241  0.1800
29320W        W45454   9.859   2.625   2.483 -0.0258  0.1445  0.2003
29321W        W45455  13.125  14.131   1.463  0.3369  0.0941  0.0095
29322W        W45456   9.428   3.954   2.513 -0.0093  0.0422  0.2171
29323W        W45457   3.095  18.439   0.844  0.1792 -0.0508  0.1073
29324W        W45458  17.563  16.222  11.522  0.3625  0.0019  0.0343
29325W        W45459  19.060  15.560   3.099  0.4618  0.0786 -0.4185
29326W        W45460  18.630   1.299  14.011  0.0313  0.1869  0.0618
29327W        W45461   1.080   8.836   3.141 -0.0570  0.0795 -0.0770
29328W        W45462  11.080   8.749   3.350 -0.3039 -0.0544 -0.3029
29329W        W45463  11.104   5.506   3.940 -0.1677  0.1669 -0.1310
29330W        W45464  10.763  15.727  10.570 -0.0097 -0.1836  0.0428
29331W        W45465   2.274  14.490   3.597 -0.1017 -0.2116 -0.0977
29332W        W45466  18.185   5.046   0.259  0.0986 -0.1296  0.0931
29333W        W45467   2.442  16.112  11.841  0.1599 -0.0256  0.1491
29334W        W45468   3.384   2.846  12.210  0.2688 -0.1872 -0.2182
29335W        W45469  15.720   8.520  12.160 -0.1587 -0.1278 -0.2991
29336W        W45470   1.525   9.311  13.531 -0.1398 -0.1649 -0.0554
29337W        W45471  13.045  13.655   4.388 -0.0949 -0.2630  0.1374
29338W        W45472   8.497  19.084   3.988 -0.1250  0.0468 -0.1135
29339W        W45473  17.787   7.720   4.835 -0.1276 -0.2040  0.2841
29340W        W45474  14.455   1.719  14.492 -0.0249 -0.1147  0.2404
29341W        W45475  14.760  17.124   1.417 -0.0066 -0.1263 -0.0256
29342W        W45476   5.134  14.931   4.255 -0.0243  0.0301  0.0678
29343W        W45477  16.178   6.859   0.315 -0.3948 -0.0296  0.2138
29344W        W45478   8.112   6.573   5.112 -0.2540  0.1931  0.0487
29345W        W45479   0.151   0.241  11.487  0.0264  0.0189 -0.0104
29346W        W45480   0.203  16.544   4.712  0.1895 -0.0389  0.1421
29347W        W45481   4.550   3.557   4.183  0.3410 -0.0769 -0.1854
29348W        W45482   2.317   7.317   9.986 -0.3441 -0.4882 -0.3770
29349W        W45483  18.943   0.800   0.685  0.0818 -0.1589  0.2424
29350W        W45484   5.799  11.405  13.056 -0.2513  0.1064  0.1689
29351W        W45485  18.484  13.502  12.942  0.0916 -0.1526 -0.1477
29352W        W45486   9.955   4.895  14.999  0.1725 -0.0728  0.3114
29353W        W45487   0.471   6.280  11.153 -0.3337 -0.3481  0.0818
29354W        W45488   3.802   9.625   0.996 -0.2024 -0.0858 -0.2397
29355W        W45489   7.516  13.041   0.914  0.1708 -0.3078 -0.2235
29356W        W45490  10.082  14.682  14.008 -0.1112 -0.1178 -0.0938
29357W        W45491  15.092   2.898   4.899  0.0306 -0.2161 -0.3858
29358W        W45492   5.854  13.837   1.366  0.0199  0.5419  0.0740
29359W        W45493  11.175  11.861   9.697 -0.0325 -0.0470 -0.2239
29360W        W45494  19.005   8.014  15.202  0.0357 -0.2410 -0.3828
29361W        W45495  16.941   7.901   0.300 -0.1211 -0.0310  0.0725
29362W        W45496   7.305  15.957  10.360  0.6443 -0.1638  0.1303
29363W        W45497   2.352   6.144   4.400 -0.2239 -0.0877  0.1928
29364W        W45498   9.392  14.155  12.717 -0.2233  0.1015 -0.3399
29365W        W45499   6.059   9.445  11.856  0.3135  0.0925  0.0473
29366W        W45500   2.671  16.751   3.706 -0.2260 -0.0666  0.0376
29367W        W45501   0.761  12.586  13.474 -0.0160  0.1218 -0.0848
29368W        W45502  19.002   3.220  14.316  0.4413  0.3600 -0.1530
29369W        W45503   7.700  11.095   4.514 -0.2332  0.1594 -0.0143
29370W        W45504  15.936   5.913  11.774 -0.0972  0.2138  0.1285
29371W        W45505   2.471   8.247  10.352 -0.3041  0.0431  0.2245
29372W        W45506   2.643  17.875  14.690 -0.0629 -0.1020  0.1188
29373W        W45507   7.837  11.431   2.087  0.0953 -0.0556 -0.2629
29374W        W45508  13.486  10.428   0.197  0.2467  0.1004  0.0534
29375W        W45509  16.998  15.110   0.544  0.0569  0.0490  0.0035
29376W        W45510   8.882  16.922  11.172 -0.0032  0.0746  0.0618
29377W        W45511   7.020  10.131   0.404 -0.4609 -0.0073 -0.2543
29378W        W45512   6.399  17.593   1.766 -0.1285 -0.2361  0.1437
29379W        W45513   3.157   7.292   0.422 -0.1243 -0.0076  0.0717
29380W        W45514  15.197   8.103  11.780 -0.2200 -0.3085 -0.0970
29381W        W45515   3.912  16.322   2.019 -0.1039  0.1405 -0.1139
29382W        W45516  17.767  18.020   2.449 -0.0960 -0.0219  0.2665
29383W        W45517  11.897  12.185  14.039  0.0615  0.2955 -0.1381
29384W        W45518  11.965  15.941  10.726 -0.1742  0.0972  0.3953
29385W        W45519   1.123   3.860  11.146  0.4824 -0.1851  0.0586
29386W        W45520   5.364   0.558   3.239 -0.1163 -0.1686 -0.1904
29387W        W45521  17.238   4.092   3.334 -0.1582  0.0032  0.1251
29388W        W45522  18.851   4.935  13.061  0.2962 -0.1373 -0.0393
29389W        W45523   8.033  18.214   3.848 -0.2686 -0.0532  0.2386
29390W        W45524   8.281  16.218  10.733 -0.1197  0.0220 -0.0699
29391W        W45525  15.326   7.710  10.827  0.2041 -0.2560  0.2791
29392W        W45526   3.484  16.897  12.878 -0.0735 -0.4433 -0.2193
29393W        W45527   9.601   1.843   5.199  0.4941  0.0189  0.3176
29394W        W45528   3.809   5.435  14.963 -0.1328 -0.0982  0.2883
29395W        W45529  10.539   3.909  14.179 -0.1022  0.0548 -0.0398
29396W        W45530  11.843  17.990   4.466  0.0155  0.2520  0.0428
29397W        W45531   5.244  18.228  12.880 -0.0484 -0.2739  0.1393
29398W        W45532  14.504  13.942   9.979  0.1697 -0.2654  0.0730
29399W        W45533  18.298  14.349  14.292 -0.2985  0.0107 -0.0198
29400W        W45534   4.916   5.882   4.270  0.2112 -0.1029 -0.0918
29401W        W45535  16.633  14.197   3.951  0.2911  0.2067  0.0073
29402W        W45536  10.572   4.005   2.682  0.0972 -0.2252  0.0319
29403W        W45537  19.131  16.520   1.370  0.0758  0.2014  0.0665
29404W        W45538  12.555   9.007  10.428  0.0390 -0.5264 -0.0525
29405W        W45539  12.918  14.218   2.720 -0.1164 -0.1389 -0.1383
29406W        W45540   9.700   7.733  12.309  0.3205  0.1843 -0.1631
29407W        W45541  10.492   5.283   0.525  0.1067  0.2196 -0.0395
29408W        W45542  10.704   1.747  14.669  0.2034 -0.1899 -0.2680
29409W        W45543   7.706  15.034   5.501  0.0561  0.3117 -0.4179
29410W        W45544  15.883  18.146   3.878  0.0298  0.2840  0.0974
29411W        W45545  14.659   6.134  11.616 -0.0238  0.0299  0.1601
29412W        W45546   4.770   5.413  13.307  0.0659 -0.3187 -0.1360
29413W        W45547  16.752   2.758   4.857  0.0661 -0.3593 -0.0461
29414W        W45548  11.122   6.475  13.220  0.0423 -0.1464 -0.2677
29415W        W45549  14.524  11.973  13.324 -0.1668 -0.1578 -0.0260
29416W        W45550   7.328   2.463   3.930  0.4253 -0.5483 -0.0436
29417W        W45551  16.037  15.042   3.480  0.1370 -0.2165 -0.0250
29418W        W45552   4.404  16.416   0.239  0.0815  0.1136  0.0595
29419W        W45553   1.780  18.699  14.721  0.0539  0.2471  0.0369
29420W        W45554  18.215  14.433   2.015 -0.0862 -0.2112  0.0462
29421W        W45555   9.450   1.238   0.969 -0.0209  0.0498  0.4608
29422W        W45556   7.695  15.825  15.082 -0.0867  0.1101 -0.0508
29423W        W45557   4.074  17.136  11.442 -0.3220 -0.2054 -0.0765
29424W        W45558   8.951  12.400   1.481 -0.0752  0.0463  0.2473
29425W        W45559   8.434   8.549   5.448  0.3120  0.1141  0.2039
29426W        W45560   0.449   7.312  14.768 -0.1348  0.0008  0.4687
29427W        W45561  15.049  12.399   1.667 -0.0852  0.0266 -0.0616
29428W        W45562  18.800  16.574  15.009 -0.0719 -0.2289  0.3005
29429W        W45563  16.122  14.141   1.321 -0.1151 -0.3015  0.0417
29430W        W45564  16.442  10.518  11.553 -0.1754 -0.2887  0.0204
29431W        W45565  10.582   5.620   1.756  0.1006  0.2049  0.0934
29432W        W45566   8.640   5.163  10.906  0.3594 -0.2779  0.3378
29433W        W45567   2.107  12.363  12.742  0.1113 -0.0188  0.2417
29434W        W45568   9.042  13.765   2.537 -0.0198 -0.5243 -0.3014
29435W        W45569   8.846   4.638  14.655 -0.1750  0.3040 -0.1574
29436W        W45570   2.804  17.088   2.449  0.0698 -0.0834  0.0353
29437W        W45571  10.532   1.365   2.593 -0.3893 -0.0401 -0.2053
29438W        W45572  11.203   1.742  14.488 -0.1592  0.3346  0.2242
29439W        W45573   4.008  10.633  12.587 -0.2285  0.3417 -0.0062
29440W        W45574   2.116  10.361   3.105 -0.3408 -0.0360 -0.2208
29441W        W45575   3.390   3.176   4.944  0.1582 -0.2988  0.0564
29442W        W45576  10.230  10.519   5.298  0.1071 -0.0837  0.1982
29443W        W45577  17.261  17.146   1.708  0.0567 -0.0414 -0.1663
29444W        W45578   0.782  17.615   1.166  0.0638 -0.3793  0.0656
29445W        W45579  19.067   2.712  14.931 -0.1611  0.0443  0.1806
29446W        W45580   5.102   7.878   0.192 -0.0588 -0.0941 -0.0737
29447W        W45581  17.460   6.904  14.594 -0.0423 -0.0378  0.1237
29448W        W45582   7.593  18.699   5.816  0.0149  0.1439 -0.0409
29449W        W45583   9.582  15.853  11.372  0.0520  0.1853 -0.3042
29450W        W45584   9.756  11.621   4.070  0.0645 -0.1739  0.2761
29451W        W45585  18.956  13.697  14.499  0.0621  0.4263 -0.1230
29452W        W45586  17.879  14.932  14.286  0.0063 -0.2632 -0.1459
29453W        W45587  12.673  14.441   3.083  0.2363  0.0587  0.0940
29454W        W45588   1.524   9.312  10.141 -0.0403  0.3166  0.2165
29455W        W45589   4.463   5.869   4.526 -0.0572 -0.4377 -0.0091
29456W        W45590  14.015  10.086   3.436 -0.1655 -0.5835  0.0276
29457W        W45591  17.671  10.433   3.914 -0.2303  0.0473 -0.1191
29458W        W45592   2.322  17.292   0.394 -0.2804 -0.1395  0.0865
29459W        W45593   3.976   7.353   0.273  0.1268 -0.1202 -0.1983
29460W        W45594   1.821   0.273  14.044 -0.0972 -0.2244  0.2504
29461W        W45595   1.824  18.199   3.448  0.1858 -0.1370  0.3267
29462W        W45596  17.087  17.409   0.003  0.0158  0.0669  0.1857
29463W        W45597   2.162  14.167  13.202 -0.2865  0.0567 -0.2019
29464W        W45598  14.715  10.293   2.277 -0.3019 -0.1020 -0.0067
29465W        W45599  10.275  12.371   2.934 -0.1150 -0.2461 -0.0292
29466W        W45600   9.916   0.905  11.381 -0.0459  0.2288 -0.1535
29467W        W45601   5.009   1.238  10.709 -0.0250 -0.1610 -0.1551
29468W        W45602  10.552   0.557  11.879  0.1256 -0.1577  0.1792
29469W        W45603  11.529   7.990  14.555  0.2485 -0.0875 -0.1881
29470W        W45604  11.267  15.753  15.131  0.0233 -0.1473  0.1577
29471W        W45605  10.952  14.359  11.848 -0.0730  0.1790 -0.2575
29472W        W45606  14.744   6.624  10.377 -0.3287 -0.2391 -0.1571
29473W        W45607  11.619   6.852   5.155  0.1372  0.0452  0.1241
29474W        W45608  10.574  18.749   4.536 -0.0085 -0.0898 -0.0456
29475W        W45609  10.291   4.859  12.799 -0.2048 -0.3636  0.0438
29476W        W45610   7.667   7.812  12.899 -0.2979 -0.1666  0.2194
29477W        W45611  18.472   1.442  11.259 -0.0047  0.0711  0.0681
29478W        W45612  13.384  17.626   0.749  0.0162  0.3476 -0.1218
29479W        W45613  18.890  12.612  12.496 -0.1263 -0.0515 -0.1182
29480W        W45614   0.404  11.123  12.058 -0.0908  0.3757  0.2669
29481W        W45615  16.850   4.105   0.671 -0.0797  0.2670  0.0074
29482W        W45616   2.967  11.876  12.022 -0.4009  0.0630  0.0161
29483W        W45617   3.404  13.020   1.332  0.3604  0.2296  0.2985
29484W        W45618   0.403  18.438  15.137 -0.0385 -0.1179  0.0317
29485W        W45619  16.472  14.128   3.494 -0.1570  0.0320  0.3720
29486W        W45620  14.271   9.122   4.751 -0.2108  0.1825 -0.1788
29487W        W45621  14.306  12.167  11.955  0.0284  0.1359  0.0245
29488W        W45622  15.098  18.820   3.589  0.0866  0.1106 -0.2581
29489W        W45623  18.327   4.902   2.716  0.3929 -0.1571 -0.1333
29490W        W45624  17.079  18.589  14.098 -0.4601 -0.2167  0.0700
29491W        W45625   1.322   0.521   4.318  0.0191 -0.0365  0.0116
29492W        W45626   6.423  17.218  14.138  0.1031  0.2540  0.2848
29493W        W45627  15.442  18.188  11.457  0.3421 -0.3394  0.0027
29494W        W45628   6.256  14.472   0.926  0.0424  0.0585 -0.0593
29495W        W45629  11.959   2.872   3.644  0.1244  0.0261 -0.0603
29496W        W45630  10.969  10.232   2.167  0.0139 -0.2479 -0.1271
29497W        W45631  14.313   7.209  13.439  0.2323 -0.2372  0.0583
29498W        W45632  17.722  15.805  11.854 -0.0737  0.1933  0.1174
29499W        W45633   1.068   2.448   1.155  0.0958 -0.3065  0.2041
29500W        W45634   5.286   5.221  13.944  0.1535 -0.2376 -0.2700
29501W        W45635   8.043   6.091  13.143  0.1831 -0.0441  0.0498
29502W        W45636  11.657   5.488   3.486 -0.0836 -0.1108 -0.1155
29503W        W45637   0.534   5.581  10.852  0.4982  0.0220 -0.0930
29504W        W45638  10.041   3.022   5.417 -0.1831 -0.0580 -0.0480
29505W        W45639  11.697   6.055  13.861  0.1440  0.0747 -0.0028
29506W        W45640  14.607  16.191   0.586  0.0334 -0.1992  0.2888
29507W        W45641   9.424  12.662   9.861  0.4739 -0.0420  0.0659
29508W        W45642  13.558   3.880   3.012  0.1870  0.2954 -0.2247
29509W        W45643  15.206  13.357   0.848 -0.2725  0.1795 -0.4776
29510W        W45644   8.242   7.674   3.615  0.2924  0.1211 -0.0161
29511W        W45645   0.529   2.201  14.111  0.0344  0.0338 -0.0181
29512W        W45646  10.138   2.292   2.247  0.1543  0.3155 -0.0278
29513W        W45647   9.239   8.200   4.155  0.0511 -0.0010 -0.1169
29514W        W45648  10.891   2.116   3.631  0.1882  0.0068 -0.5105
29515W        W45649  13.108   3.819  13.243 -0.0403 -0.2799 -0.0224
29516W        W45650  12.843  16.046   1.092  0.0333 -0.0322  0.0681
29517W        W45651   2.134  10.786  10.191  0.0673  0.2598  0.1093
29518W        W45652   8.489   0.436   2.123 -0.1340 -0.2575  0.0198
29519W        W45653   6.678   8.883   2.745  0.2478  0.0128  0.1794
29520W        W45654  17.246  13.751  11.467  0.1895  0.2945  0.0954
29521W        W45655  11.529   5.563   0.346  0.2600 -0.0632 -0.0084
29522W        W45656   1.905   1.459   2.779 -0.2978 -0.1715 -0.1316
29523W        W45657   1.995   2.311  11.879  0.0885 -0.0110  0.0428
29524W        W45658  18.697  13.166   2.087  0.1670  0.1654  0.4269
29525W        W45659  11.413   0.979  14.245 -0.1841  0.3659  0.0857
29526W        W45660   9.964   9.070   0.574 -0.0950  0.1163  0.1489
29527W        W45661   5.783   3.605  13.362  0.1638  0.6197  0.1891
29528W        W45662   1.344   9.505  15.052 -0.1197 -0.3350  0.0365
29529W        W45663   1.137   4.082   4.544  0.0596 -0.3415 -0.4890
29530W        W45664   4.862  13.003  13.321 -0.0758  0.2555 -0.0504
29531W        W45665   9.712   9.325   2.057  0.1855 -0.0512 -0.3177
29532W        W45666   2.736  13.246   2.009  0.2235 -0.1914  0.1631
29533W        W45667  14.477   1.242  13.810 -0.0122  0.0541  0.0248
29534W        W45668  10.466   2.494   3.591  0.0462 -0.2182 -0.0903
29535W        W45669  11.806   5.193  12.323  0.2501  0.1721  0.2426
29536W        W45670  11.822  13.681  13.349 -0.2520  0.3245 -0.0812
29537W        W45671   0.933  15.976  14.582  0.0684 -0.1565  0.0554
29538W        W45672   2.982  16.136  12.420 -0.3099 -0.0588 -0.0873
29539W        W45673  15.201  12.527   1.248 -0.0973  0.4197  0.2132
29540W        W45674  13.290  10.132  12.251  0.1167  0.0618 -0.2650
29541W        W45675  14.479  18.237   3.770  0.0987  0.0215 -0.1682
29542W        W45676   4.310   5.478   5.334  0.2608 -0.0346 -0.1839
29543W        W45677   1.000  10.517   1.284  0.3848  0.0797 -0.0571
29544W        W45678   3.635  11.062  13.855 -0.4305 -0.1291 -0.1411
29545W        W45679   4.543   0.492   2.197 -0.2834  0.1965 -0.1352
29546W        W45680   5.572  15.503  14.564 -0.0343 -0.0530 -0.1742
29547W        W45681  16.485  13.496   2.239 -0.3946 -0.0438 -0.1279
29548W        W45682   4.156  11.467  14.239  0.0512  0.1461 -0.0069
29549W        W45683   1.407   6.758  13.473 -0.2210  0.0156 -0.0588
29550W        W45684   5.987   7.154   2.489  0.2859 -0.1660 -0.4342
29551W        W45685   4.671   5.933  12.061 -0.0142 -0.1989 -0.0460
29552W        W45686   7.087  13.021   2.190 -0.0659  0.0878 -0.3164
29553W        W45687   2.717  14.770   2.849  0.0554  0.1251 -0.1306
29554W        W45688   0.828  16.467  14.508 -0.4025 -0.0505  0.1730
29555W        W45689   2.648  13.768   2.012  0.0146 -0.2394 -0.0841
29556W        W45690  19.071  12.350   2.427 -0.0469 -0.1268 -0.2178
29557W        W45691   9.200   8.020   0.709 -0.0442  0.1070 -0.0768
29558W        W45692   1.298  15.340  10.510  0.2110 -0.0175  0.0649
29559W        W45693   9.919   4.907   3.699 -0.1707 -0.1448  0.2287
29560W        W45694  18.363  16.803   4.248 -0.1794 -0.1117 -0.0273
29561W        W45695  11.153   5.890  12.623 -0.0481  0.0294  0.1041
29562W        W45696  11.039  18.193  13.702  0.2072  0.1036 -0.1252
29563W        W45697   1.910   4.189   5.659 -0.0833 -0.1266  0.2269
29564W        W45698   0.111   8.555  13.020 -0.0509 -0.0182 -0.1765
29565W        W45699  10.485  12.456   3.613 -0.2012  0.2228 -0.2119
29566W        W45700   5.532   9.793   1.385  0.1431 -0.0510  0.2001
29567W        W45701  14.791   3.314  13.531  0.2125  0.4762  0.0215
29568W        W45702  13.354   5.729   5.111  0.0322 -0.0771  0.3192
29569W        W45703  11.270   0.399   3.479 -0.2534  0.3702  0.1615
29570W        W45704   1.999  12.709   4.166 -0.1243 -0.0030  0.1847
29571W        W45705  14.635  10.806   2.380  0.2862  0.1850 -0.2382
29572W        W45706  17.541  15.664  10.720  0.1156 -0.0244  0.2733
29573W        W45707   0.262   7.630  11.460 -0.0117  0.0341 -0.2163
29574W        W45708   1.664   0.660   2.595 -0.0661  0.0270 -0.4755
29575W        W45709   7.717   9.073  10.629 -0.0983 -0.1617 -0.3473
29576W        W45710  17.519   2.973  10.797 -0.0837  0.0120 -0.3388
29577W        W45711   0.655   8.423  11.643  0.2861  0.0673  0.1246
29578W        W45712   8.425   1.704   1.445 -0.0427  0.4101  0.2054
29579W        W45713  11.346  12.745   0.533  0.0864 -0.2524 -0.0488
29580W        W45714   9.758   3.199   5.070  0.1059  0.0057  0.2173
29581W        W45715   9.705   7.357  14.093  0.0514  0.2732 -0.0341
29582W        W45716  13.037   5.601   4.334 -0.3969 -0.0090 -0.1613
29583W        W45717  12.796   5.291   0.337 -0.2230 -0.0015 -0.0354
29584W        W45718   5.614  14.518   0.290  0.1153 -0.1228 -0.1668
29585W        W45719  10.975  18.974  12.488  0.2722 -0.1462 -0.0440
29586W        W45720   0.180   6.783  14.167 -0.3270  0.0403  0.0295
29587W        W45721   6.996   2.133   4.045  0.4468 -0.0038 -0.0044
29588W        W45722  11.016   2.519   2.821  0.0527 -0.3324 -0.3535
29589W        W45723   7.229  13.927   3.646 -0.1857 -0.0400  0.0135
29590W        W45724   2.451  13.080  10.501  0.0334  0.0104 -0.3734
29591W        W45725   7.826   8.177   2.237  0.1416 -0.2869 -0.1740
29592W        W45726   9.497   4.764   4.351  0.2891  0.1393 -0.1372
29593W        W45727  10.794  15.384   1.614  0.1464  0.1320 -0.1874
29594W        W45728  12.706  18.787  11.601 -0.3002 -0.0780 -0.0209
29595W        W45729  11.567   6.190  12.469  0.0210  0.0661 -0.0153
29596W        W45730   8.986   5.370   2.103 -0.1979 -0.1907  0.2536
29597W        W45731  15.044   7.717   1.077 -0.2314 -0.0978  0.2282
29598W        W45732  17.562   8.828   1.276  0.1310  0.2794 -0.1654
29599W        W45733   1.502   8.837  13.373  0.0044  0.2279 -0.0002
29600W        W45734   2.783   3.714  10.879  0.0748  0.2407  0.2832
29601W        W45735  14.762  10.535   3.770  0.1902 -0.2851 -0.1299
29602W        W45736   0.278   6.134   3.158  0.2076  0.0081  0.0392
29603W        W45737   5.374  12.880  14.512  0.2399 -0.0969 -0.1316
29604W        W45738  14.965  18.285   5.363 -0.0862  0.0664  0.1576
29605W        W45739  17.150  14.844  14.029  0.0138 -0.1665  0.2249
29606W        W45740   9.614  12.378  11.566  0.2728 -0.0117  0.2563
29607W        W45741   4.773   9.245   2.302 -0.1639  0.2266  0.1600
29608W        W45742  15.747   6.056  12.226  0.1551 -0.1008  0.1984
29609W        W45743   4.352  12.865   2.034 -0.1440 -0.2764  0.0481
29610W        W45744   6.281  14.164   1.946 -0.1605 -0.2292 -0.0172
29611W        W45745  17.594  16.621  13.543 -0.0313 -0.1085  0.2748
29612W        W45746   7.262   5.382   0.790 -0.4082 -0.3123 -0.2242
29613W        W45747  13.184  18.030   2.127 -0.2781  0.0313 -0.1975
29614W        W45748   0.013   7.032  11.613 -0.1777 -0.1909  0.0433
29615W        W45749   5.480   6.298   1.957 -0.1783  0.2632  0.0150
29616W        W45750   0.888   9.850  12.068 -0.0310 -0.0355  0.2410
29617W        W45751  14.147   2.378  12.292  0.0860  0.0224 -0.1096
29618W        W45752  18.844   7.059   2.759  0.1448 -0.1112  0.0702
29619W        W45753   2.033   0.212   0.103  0.0083  0.1961 -0.2142
29620W        W45754   1.915  11.671  10.547  0.0964 -0.1978  0.1763
29621W        W45755   5.465  11.729  14.596  0.0129 -0.0646 -0.0413
29622W        W45756   8.104  11.745   3.696  0.1787  0.1388 -0.1132
29623W        W45757   6.354  17.101   1.413 -0.3236  0.1599 -0.2582
29624W        W45758   1.586   4.504   2.936  0.3430  0.2945 -0.0364
29625W        W45759  14.645   7.603  14.761  0.1312  0.1800  0.1726
29626W        W45760   7.425   4.742  13.692 -0.2047 -0.1194  0.1131
29627W        W45761   5.537   4.333  11.345 -0.0745 -0.0080 -0.3169
29628W        W45762  11.953   9.209   0.756  0.2103 -0.2194 -0.1267
29629W        W45763   9.316   8.076  12.079 -0.0330  0.0760 -0.1291
29630W        W45764  10.533   3.259  12.635  0.0486 -0.0554  0.0883
29631W        W45765   3.448   8.424  15.044 -0.4254  0.0695  0.0881
29632W        W45766  13.812   7.079   1.225 -0.0286  0.2790 -0.0677
29633W        W45767   3.068  11.308  10.985  0.2379 -0.3587 -0.0173
29634W        W45768   9.538   7.501   2.252  0.3646  0.1590 -0.1194
29635W        W45769   9.764   4.484  10.599  0.0298  0.0520 -0.0281
29636W        W45770  16.151  11.587   3.548  0.0868  0.1335  0.1176
29637W        W45771  19.053   6.662  10.364 -0.2862 -0.1665  0.1235
29638W        W45772   7.214  11.976   0.808  0.0398 -0.0941  0.0711
29639W        W45773   6.552  16.476   3.620  0.0362  0.1366  0.3777
29640W        W45774   6.130   4.708  10.684 -0.0126 -0.1586  0.0890
29641W        W45775   1.083  17.732   0.083  0.0589  0.1766  0.0303
29642W        W45776  11.492   4.724  13.532  0.3447  0.2380 -0.0204
29643W        W45777  15.635   1.076  10.871  0.2754 -0.0079  0.0027
29644W        W45778  14.627   8.663   0.281 -0.2670  0.0228  0.1438
29645W        W45779  14.388  10.971   3.081  0.1761  0.0918  0.1207
29646W        W45780  17.223  13.280   4.678 -0.3854  0.2140 -0.4162
29647W        W45781   9.605   5.875  13.216  0.1699 -0.0903  0.0808
29648W        W45782  14.792  18.348   0.881 -0.0708  0.1153 -0.2333
29649W        W45783   3.887  13.914   3.591 -0.0050  0.0787  0.1010
29650W        W45784   2.050  15.415   0.795 -0.1089  0.2159  0.0984
29651W        W45785   0.196   4.016  13.071 -0.1475 -0.2164  0.2033
29652W        W45786   9.781   5.896   3.716 -0.0779  0.0587  0.2618
29653W        W45787  11.964   5.684   5.255 -0.0789 -0.0600 -0.1404
29654W        W45788  11.306   8.446  11.493  0.0064 -0.3027 -0.1985
29655W        W45789   5.782   0.604  14.785  0.2936  0.0067  0.0830
29656W        W45790   1.120   9.549   4.038  0.0017 -0.2699 -0.0908
29657W        W45791   2.696   8.553  14.321 -0.6511  0.3459  0.0005
29658W        W45792  10.219   8.300   0.311 -0.1181  0.2096  0.0684
29659W        W45793  17.611   3.841  15.061  0.0052  0.0489  0.3539
29660W        W45794  18.765  11.737  11.677  0.0194  0.0959  0.0447
29661W        W45795   8.205  12.234   1.709  0.2026 -0.0104  0.3660
29662W        W45796  10.389  10.397  14.605 -0.2260  0.2877  0.0511
29663W        W45797  14.620   3.985  12.438 -0.4041  0.1566 -0.0397
29664W        W45798   3.258  12.293   3.468  0.1557  0.0066 -0.0122
29665W        W45799   7.613  12.133  14.757 -0.1847  0.1906  0.0208
29666W        W45800   3.557  14.034   9.576 -0.1027 -0.0161  0.0921
29667W        W45801   3.721   6.939  14.933  0.2486  0.1734  0.1460
29668W        W45802   6.014  13.555  12.948  0.1234  0.1803  0.1045
29669W        W45803  14.854   8.247   1.752 -0.5068  0.2109 -0.0025
29670W        W45804  14.706   8.231   1.227  0.1608  0.1055 -0.0519
29671W        W45805   7.369   7.975   6.202 -0.1732  0.0089 -0.1314
29672W        W45806  10.634   5.243  15.143  0.1429 -0.3095  0.3248
29673W        W45807  15.779  16.333  12.250  0.0380  0.0496  0.1480
29674W        W45808  14.996   3.298   0.019  0.2655 -0.2241  0.0091
29675W        W45809   2.946   3.839   5.027  0.1664 -0.0565 -0.0855
29676W        W45810   7.257   1.601  13.637  0.0065  0.0115  0.2061
29677W        W45811  12.217   7.028   2.863 -0.0096 -0.3203  0.1450
29678W        W45812   7.879  18.995   4.851  0.2606  0.1159 -0.2775
29679W        W45813  11.113   4.617   1.872  0.0202 -0.2055 -0.1098
29680W        W45814  18.533  11.048   3.922  0.0848 -0.0640 -0.0396
29681W        W45815   5.209  10.326  13.434  0.0430  0.1360 -0.2485
29682W        W45816  17.126   0.170  14.551  0.2598 -0.1300 -0.2641
29683W        W45817   6.510  10.622  10.167 -0.1086  0.0277  0.1199
29684W        W45818   5.487   0.421  14.347  0.2627 -0.2253 -0.1815
29685W        W45819   3.633   8.780   3.893 -0.1822 -0.1554 -0.1198
29686W        W45820  16.256   5.902   3.432 -0.0086  0.2245 -0.0794
29687W        W45821   6.113  12.853   3.855  0.0758  0.1097  0.0531
29688W        W45822  17.740   7.484   0.988 -0.2487  0.3759  0.2494
29689W        W45823   8.533   2.613  11.203 -0.0819 -0.0559 -0.0839
29690W        W45824   8.519   5.775   3.338  0.1976  0.2107  0.1007
29691W        W45825   2.865  16.561   2.666 -0.0580 -0.2627 -0.4822
29692W        W45826   2.379   9.026  14.112  0.2477  0.2238  0.0057
29693W        W45827   7.085  16.673   2.456 -0.0838  0.0819  0.1109
29694W        W45828   3.537  18.341   0.648 -0.2565 -0.1002  0.1051
29695W        W45829   6.017   7.370   1.871  0.0937  0.1540 -0.0481
29696W        W45830   8.936   8.290  11.262  0.1151  0.2356  0.0970
29697W        W45831  17.950   9.757  13.960 -0.1145 -0.1559  0.0590
29698W        W45832   9.647  11.354  12.535 -0.1188 -0.1198  0.0553
29699W        W45833   1.299  13.914  12.118  0.2613  0.1943 -0.2364
29700W        W45834   3.264  15.553   4.241  0.0088  0.2183  0.1144
29701W        W45835   4.241  10.046   4.373 -0.0843 -0.1769  0.0492
29702W        W45836   1.904   3.761  11.516 -0.0027  0.1414 -0.1800
29703W        W45837  17.674  10.662  15.185 -0.1891 -0.2070 -0.0863
29704W        W45838  14.667   3.642  15.051  0.3452  0.0080  0.2082
29705W        W45839   1.193   4.493  14.096  0.2531  0.1169  0.2046
29706W        W45840  14.468  16.342   1.325 -0.0269  0.3079 -0.0747
29707W        W45841   5.789   5.294   1.005  0.1491  0.0694 -0.1785
29708W        W45842   0.654   9.124   4.852  0.0583 -0.0462 -0.0739
29709W        W45843  18.062   1.036  12.814 -0.0188  0.0682 -0.2932
29710W        W45844  15.609  18.561   0.910 -0.1957 -0.0052  0.1088
29711W        W45845  15.399   1.537   0.629 -0.0619  0.1934 -0.0634
29712W        W45846  10.195  16.629  13.721  0.0446 -0.0778 -0.1065
29713W        W45847  18.086   0.394   4.471  0.3578  0.0220  0.2399
29714W        W45848   1.567  10.682   0.237 -0.1818 -0.1826 -0.1165
29715W        W45849  10.979   0.880  14.517  0.2889 -0.3523 -0.0584
29716W        W45850   9.169   9.781  13.639  0.0487  0.1324 -0.1365
29717W        W45851  15.419  12.191   3.938  0.2366 -0.2504  0.4556
29718W        W45852  16.233  13.340   3.085 -0.1936 -0.3153  0.1439
29719W        W45853  17.979   4.909   1.060  0.1676 -0.0439  0.2892
29720W        W45854   6.194  13.773   2.350  0.0242  0.2582 -0.0486
29721W        W45855   4.831   0.748  12.812 -0.1720 -0.2864  0.0468
29722W        W45856   6.367  12.606   1.349 -0.2962  0.0126 -0.2370
29723W        W45857   8.842  14.886  11.499  0.0501  0.1007  0.1221
29724W        W45858   6.363   7.698  14.182  0.1627  0.1377  0.1655
29725W        W45859   7.469   0.770   9.544 -0.1627 -0.0913 -0.3614
29726W        W45860  15.175   3.236   3.981 -0.1460 -0.0826 -0.1709
29727W        W45861  17.792  13.234  12.529  0.0781 -0.0939  0.1438
29728W        W45862  15.046   6.143  11.265 -0.0987 -0.1783 -0.2797
29729W        W45863  10.722  18.505  14.879  0.1373 -0.1087 -0.0775
29730W        W45864  18.534   0.102   2.452  0.0055  0.0609  0.0117
29731W        W45865   5.671  15.056   4.228 -0.0942  0.0086 -0.0483
29732W        W45866   2.326  13.303   3.943  0.0867 -0.0676 -0.0712
29733W        W45867   2.368   3.394   4.061  0.0878  0.2539 -0.1736
29734W        W45868   9.489  16.727  11.256 -0.0265  0.2168  0.3406
29735W        W45869  17.524   5.063   4.636 -0.3877  0.0364  0.0748
29736W        W45870   9.509  13.033   5.167 -0.2434 -0.0728 -0.0661
29737W        W45871   7.623  14.109   1.305  0.0723 -0.2438  0.1648
29738W        W45872   6.689   4.400  11.396  0.0325  0.0884 -0.1667
29739W        W45873  10.251  15.453   3.146 -0.3160 -0.0226 -0.2258
29740W        W45874  12.547   0.680   0.144 -0.1545 -0.0400 -0.0457
29741W        W45875   9.335   4.885  14.576  0.1884 -0.1554 -0.3764
29742W        W45876   1.652   2.315   1.297 -0.2845  0.0602  0.2748
29743W        W45877   4.103   0.434   0.377  0.1405  0.0406 -0.0453
29744W        W45878   5.764   0.079  14.534 -0.0678  0.0458  0.1646
29745W        W45879   1.515  13.292  13.549  0.2357 -0.3931 -0.2163
29746W        W45880   2.365  11.866  10.104  0.1788 -0.0516 -0.5098
29747W        W45881  11.809  17.591  11.907  0.1190 -0.0607 -0.0683
29748W        W45882  18.655   9.425  12.284 -0.1731  0.0264 -0.3766
29749W        W45883  14.750   6.494  13.089  0.1011  0.1032  0.0301
29750W        W45884  16.069  14.826   5.264 -0.1670  0.0241  0.2345
29751W        W45885  11.984  11.024  10.863 -0.0943 -0.5436  0.1680
29752W        W45886   5.544   8.170   2.096  0.1854 -0.0337 -0.3567
29753W        W45887  12.287   1.577  10.356 -0.1073  0.2008  0.0847
29754W        W45888  10.088   5.537  14.092  0.1086 -0.0322  0.2350
29755W        W45889   1.197  16.495   4.014  0.2038  0.3834 -0.0478
29756W        W45890   7.806  12.007   1.411  0.1244 -0.0964  0.6248
29757W        W45891   3.989  14.624  14.421  0.1257 -0.1624 -0.0184
29758W        W45892  13.018   0.372  14.649  0.1435  0.1147  0.0604
29759W        W45893   4.450  12.669  12.477 -0.1999  0.2502 -0.3118
29760W        W45894  13.858  16.474   0.041 -0.0056  0.1631 -0.3810
29761W        W45895  18.852  15.402   3.803  0.0266  0.1334  0.0092
29762W        W45896   7.977  15.532  14.638 -0.3262 -0.2135  0.2219
29763W        W45897   7.716   2.235  14.512  0.1500  0.0823  0.2959
29764W        W45898   2.681   3.463  11.726  0.3376  0.0288  0.1068
29765W        W45899  12.819  13.212   3.590  0.1929 -0.0302 -0.1763
29766W        W45900  11.389   9.645  13.413  0.1662 -0.0994 -0.1013
29767W        W45901  12.902   0.288   4.258 -0.2163 -0.2705  0.1750
29768W        W45902   5.989   6.402   2.069  0.5101 -0.0917 -0.2038
29769W        W45903  13.311  12.250   1.612  0.1752 -0.1275  0.1861
29770W        W45904   4.429  13.668   1.176  0.1040  0.0623  0.3795
29771W        W45905   9.320   6.675   1.854  0.3261 -0.0341  0.3448
29772W        W45906  15.140   5.950  14.999 -0.0713  0.3051 -0.0423
29773W        W45907  16.771   1.991   3.955 -0.2383  0.0439  0.3850
29774W        W45908  18.452   6.277  10.857  0.2264  0.0606  0.1077
29775W        W45909  16.800  10.574   1.596 -0.0250 -0.2809  0.1313
29776W        W45910   7.395  18.915  14.809  0.1375 -0.2046  0.0793
29777W        W45911   3.217   0.200   2.404  0.2723  0.0312  0.0464
29778W        W45912   1.686  18.762  11.047  0.1210 -0.0379  0.1708
29779W        W45913   0.683  14.891   0.099  0.0351  0.1905  0.0040
29780W        W45914   3.588   2.564  11.828  0.1143  0.1531  0.1308
29781W        W45915  10.508  17.689  10.804  0.2378  0.0652 -0.0147
29782W        W45916  14.014   0.014  15.196 -0.0866 -0.2177  0.0278
29783W        W45917   8.388   3.538  11.955  0.2581  0.1616  0.0206
29784W        W45918  12.091  15.127  13.771  0.0456  0.1233  0.0615
29785W        W45919  12.108   6.644  13.396  0.2328 -0.1487 -0.2222
29786W        W45920  14.124  15.544  13.394  0.0510  0.1471 -0.0666
29787W        W45921  11.842   0.674   4.865 -0.2027  0.0590 -0.4417
29788W        W45922   9.564  12.106   5.471 -0.0435 -0.1973  0.0339
29789W        W45923  13.575  10.695  11.888 -0.2997  0.1299 -0.0773
29790W        W45924   8.310   4.051  12.991 -0.0450 -0.0849 -0.3928
29791W        W45925  10.728  17.061   4.696  0.0173  0.1199 -0.3685
29792W        W45926  17.444   6.252   9.975 -0.2026 -0.0054  0.1041
29793W        W45927  17.976  15.152   0.516  0.0426 -0.0125  0.0823
29794W        W45928   1.094  10.992   1.467 -0.2144 -0.1914  0.1845
29795W        W45929   4.628  10.536  14.258  0.4197 -0.0632  0.3532
29796W        W45930  12.073   6.292   2.227 -0.0758  0.1261  0.2134
29797W        W45931  16.861   1.500   3.850  0.1889 -0.1536 -0.1323
29798W        W45932  18.555  17.814  15.071 -0.2010 -0.1414 -0.1228
29799W        W45933  14.654   5.160   4.854  0.2922  0.1706 -0.1164
29800W        W45934  11.609   7.897   3.726  0.1020  0.4045  0.0761
29801W        W45935  17.988   8.115  13.010 -0.1777  0.1484  0.1905
29802W        W45936  16.491   6.483  14.032 -0.1644  0.1741  0.0854
29803W        W45937   0.605  14.977  10.594  0.0042  0.1868 -0.0584
29804W        W45938   7.759   1.058  14.040 -0.0648 -0.0912 -0.0910
29805W        W45939  13.062  15.708   4.684 -0.4102  0.1787  0.1621
29806W        W45940  15.892   2.088  10.227  0.2394  0.0427  0.2263
29807W        W45941  12.745   7.893   3.456 -0.1202 -0.0680  0.1205
29808W        W45942   9.256   3.493   3.195  0.0240  0.2730 -0.3384
29809W        W45943   0.654   9.385  11.898 -0.4392  0.2809 -0.0832
29810W        W45944   4.602  13.150   1.352  0.1721 -0.0049  0.2193
29811W        W45945  15.480   5.556  15.191  0.1998 -0.5637 -0.1959
29812W        W45946  18.403   2.388  10.558 -0.1320  0.0781 -0.0611
29813W        W45947  18.717  14.388   4.626 -0.2002  0.0723  0.2581
29814W        W45948   4.386  12.674  14.594 -0.0562 -0.0187 -0.3683
29815W        W45949   6.666   8.066  13.476 -0.0309  0.0691  0.0231
29816W        W45950   0.990   9.333  14.421  0.1459  0.1991 -0.0876
29817W        W45951   3.954   0.335   1.745  0.3651  0.0867  0.1649
29818W        W45952  14.092   1.647  13.217  0.0220 -0.1655 -0.0982
29819W        W45953  12.985  10.226   2.218 -0.1375 -0.1102 -0.1108
29820W        W45954   1.017   7.123  12.687  0.1758  0.0057  0.0010
29821W        W45955   6.170  19.052  15.090  0.2987  0.0477  0.1589
29822W        W45956  17.216  14.570   3.936  0.0140  0.0145 -0.1224
29823W        W45957  15.963   8.020  14.163 -0.0026 -0.2408 -0.3923
29824W        W45958  18.890  13.710  13.323 -0.0280 -0.2634 -0.2932
29825W        W45959  18.544  11.023  11.542 -0.2349  0.1188 -0.0177
29826W        W45960  16.164   9.606   2.480  0.1593 -0.1195  0.1957
29827W        W45961   9.971   8.203  10.048  0.0361 -0.0386 -0.2324
29828W        W45962  14.511   7.159  10.370  0.0974 -0.0983 -0.1175
29829W        W45963   7.505  11.084   0.213 -0.3766  0.0308  0.2137
29830W        W45964   0.873  18.620   0.424  0.3495 -0.0548  0.1091
29831W        W45965   1.728   2.775   0.449  0.0184  0.0138  0.1505
29832W        W45966   8.499   2.826   0.037 -0.1926 -0.0564  0.0655
29833W        W45967   2.246   2.290  13.364  0.2699  0.0698 -0.2054
29834W        W45968   6.669   4.851  11.698 -0.0085 -0.0635 -0.0604
29835W        W45969  17.042  12.304   0.184 -0.0035 -0.0823 -0.0394
29836W        W45970   0.632   8.396  13.636  0.3577 -0.0167 -0.0158
29837W        W45971   9.211  13.183   1.126 -0.0303  0.0440 -0.0886
29838W        W45972  12.226   2.311  14.466  0.1002 -0.2168  0.0390
29839W        W45973  14.592  16.882   2.828 -0.0755  0.2146  0.0021
29840W        W45974   9.712  15.462   2.205 -0.2613 -0.1183  0.0018
29841W        W45975   7.562   6.978  12.721  0.2641  0.3378 -0.0545
29842W        W45976   1.600  14.113   2.506  0.1887 -0.1601 -0.1110
29843W        W45977  18.383   9.898  14.122 -0.0405  0.2110  0.1690
29844W        W45978   8.253   8.765   1.530 -0.3384  0.2057  0.0603
29845W        W45979   8.804  14.009   5.678 -0.2285 -0.2599  0.3574
29846W        W45980   8.964   8.630  10.786  0.1497 -0.1838 -0.2701
29847W        W45981  12.253  13.672   1.589  0.3373  0.1815  0.2976
29848W        W45982  12.473  18.971   2.681 -0.0685  0.0479  0.2571
29849W        W45983   8.510  10.615  11.407  0.1507  0.0080  0.3104
29850W        W45984  15.704  18.065  14.890  0.1589  0.3503  0.1169
29851W        W45985  10.204  12.041   5.869  0.1817  0.0529  0.0493
29852W        W45986   0.411  14.912  12.777  0.0651  0.2219  0.0779
29853W        W45987   6.634   2.470  15.126 -0.0403  0.1616 -0.3071
29854W        W45988  14.966  14.324  11.802 -0.0372  0.2577 -0.1227
29855W        W45989   5.324  11.853   2.076  0.0082 -0.0221 -0.1947
29856W        W45990  12.741   1.825   1.249  0.0186  0.4938  0.1345
29857W        W45991  18.573   5.449   3.076  0.3934  0.2373 -0.1659
29858W        W45992  15.083   0.530   5.278  0.2277  0.0586  0.0773
29859W        W45993  12.463   0.313  13.865  0.4356 -0.5304  0.0968
29860W        W45994  16.404  16.919   0.218  0.0704 -0.0832 -0.1693
29861W        W45995   4.295  10.691   9.524  0.0316 -0.1203 -0.0894
29862W        W45996  16.881   7.441  13.444  0.1566  0.1300  0.1138
29863W        W45997   6.080   0.309  12.506  0.0169 -0.1554 -0.1813
29864W        W45998   9.224   6.211  11.640 -0.2058  0.2576 -0.2587
29865W        W45999   7.040  14.572   2.298  0.2720  0.1283  0.3638
29866W        W46000  10.820  17.286  11.008  0.2855 -0.0029  0.1038
29867W        W46001   5.599  11.007  12.837  0.2163  0.0111 -0.0274
29868W        W46002   7.877   7.216  13.921 -0.1797  0.3757  0.0200
29869W        W46003   3.752  15.478  14.662 -0.1127  0.1157  0.3190
29870W        W46004   5.827  13.274   0.314  0.0511 -0.0165  0.0817
29871W        W46005  15.250   5.527   2.862  0.2023 -0.0680 -0.0380
29872W        W46006   8.426   9.596   2.441  0.1432 -0.0904  0.1003
29873W        W46007   7.763   0.983  11.251  0.2693  0.1494  0.1536
29874W        W46008  11.056  13.911   3.829 -0.1457 -0.0399  0.1054
29875W        W46009  15.495   9.986  14.862 -0.0909 -0.0624  0.0990
29876W        W46010  10.592  15.952  14.111 -0.0393 -0.0645  0.1302
29877W        W46011   5.701  11.330  10.735  0.1656 -0.2372 -0.1838
29878W        W46012   8.918  11.011   2.529  0.1105  0.1838  0.0017
29879W        W46013  10.202  10.079   5.018  0.1500  0.1129  0.0793
29880W        W46014   5.007  14.245   0.378 -0.0291  0.2900 -0.1718
29881W        W46015  12.738  15.863   0.607  0.0064  0.0108  0.2223
29882W        W46016   2.955  12.593  12.670 -0.0794  0.1535  0.0035
29883W        W46017   8.120  12.434  13.910  0.0659  0.1817  0.0598
29884W        W46018   1.561  12.616   3.804 -0.1004  0.2162 -0.0818
29885W        W46019  14.473  15.855   3.707  0.1476  0.1473 -0.0019
29886W        W46020   3.131   5.646  12.947  0.3039 -0.0925 -0.2873
29887W        W46021   9.570  14.008  12.281 -0.2379  0.3350  0.1060
29888W        W46022  13.546  18.825  13.582 -0.1549 -0.3307  0.0649
29889W        W46023  10.476  18.221   4.743  0.0743 -0.1758 -0.3533
29890W        W46024   9.085  10.759  15.190  0.1024 -0.1126  0.1614
29891W        W46025   3.513   5.503   0.157 -0.2664 -0.1602  0.1388
29892W        W46026  12.169   4.776  14.481 -0.0888  0.0663 -0.2695
29893W        W46027   2.533   6.288  14.895 -0.0793 -0.0292  0.3549
29894W        W46028  19.082  15.746  14.009  0.0333  0.0730  0.1202
29895W        W46029  11.305   9.098   0.817  0.4118 -0.2463  0.0905
29896W        W46030  18.946   6.981   0.261  0.1466 -0.4213 -0.0859
29897W        W46031  18.258  16.470   0.163  0.0999  0.1997  0.0428
29898W        W46032   0.794   6.696   4.638  0.0078  0.2762  0.1461
29899W        W46033  18.515   7.204   4.683 -0.0288  0.3672  0.0480
29900W        W46034  14.036   9.951  13.991  0.0774  0.3938 -0.2538
29901W        W46035  12.483  12.381   1.629  0.3962 -0.1230  0.2756
29902W        W46036   8.235   8.789   5.077  0.0457  0.2357  0.2402
29903W        W46037  14.731   4.857   3.832 -0.2770 -0.2963 -0.2690
29904W        W46038   5.345   1.509   9.493  0.0238 -0.1413  0.0078
29905W        W46039  13.650  12.369   2.263 -0.1663 -0.1903 -0.2144
29906W        W46040   5.499   7.319  10.773 -0.0273  0.1043  0.1106
29907W        W46041  17.850   9.832   2.761  0.0769  0.0019  0.1973
29908W        W46042   8.938   9.613   2.607 -0.0510  0.3574  0.1341
29909W        W46043  10.085   2.314   4.600  0.0169  0.1748  0.0591
29910W        W46044  14.407  14.745   4.976  0.0017 -0.0731  0.1191
29911W        W46045  13.427  16.167   4.518 -0.1283 -0.0030  0.0327
29912W        W46046   0.567  15.715  14.817  0.0290  0.0550  0.3670
29913W        W46047   6.499  17.242  13.231  0.1761 -0.3204 -0.0809
29914W        W46048  10.450  18.935  12.552  0.0665 -0.1581  0.1508
29915W        W46049  18.270   7.506   0.617  0.1038 -0.2511  0.0450
29916W        W46050   3.396   0.865   1.926 -0.1517  0.2587 -0.3824
29917W        W46051   1.059   3.546  12.077  0.1255  0.0570  0.1345
29918W        W46052  14.325   3.545   3.131  0.3230  0.0231  0.1140
29919W        W46053   0.377   4.537   3.675 -0.0646  0.0184  0.0513
29920W        W46054   7.647   8.342   0.848 -0.1558  0.0782  0.1189
29921W        W46055   4.173   9.733   5.431  0.0421  0.0901  0.0010
29922W        W46056  11.234  17.957   3.218  0.1393  0.2311 -0.2562
29923W        W46057   2.221  11.660   5.066 -0.3043  0.0521  0.0786
29924W        W46058   6.178   6.086   2.492  0.0503  0.3923 -0.0080
29925W        W46059   9.071  13.411  11.199  0.0880  0.0655 -0.1558
29926W        W46060  14.267   3.995   3.455 -0.6405 -0.0369 -0.4165
29927W        W46061  17.628  17.092   4.531 -0.2843 -0.5914 -0.3627
29928W        W46062   4.772  10.494  10.658  0.1264  0.3877  0.0938
29929W        W46063  15.117  14.537  11.357  0.0510  0.3721  0.3342
29930W        W46064   9.273  19.005   0.959  0.0435 -0.0509 -0.1647
29931W        W46065   6.649  18.142  14.102 -0.1694  0.1203 -0.1437
29932W        W46066   5.385   2.618  14.273 -0.0608 -0.0028 -0.0281
29933W        W46067  12.019   8.995  13.976 -0.2745  0.0825 -0.0141
29934W        W46068   3.368  17.280   4.782 -0.3177 -0.2123 -0.3500
29935W        W46069  10.232  13.826  12.889 -0.1234 -0.2286  0.0061
29936W        W46070   9.392   6.426  13.332  0.0290 -0.1267 -0.0259
29937W        W46071   7.965   8.658  12.635  0.0733 -0.0087  0.1274
29938W        W46072   3.212   5.851   3.943  0.1563 -0.0016  0.0911
29939W        W46073   9.010  13.647   4.582  0.4023  0.0530  0.0163
29940W        W46074   0.505   8.611   3.507 -0.1390  0.1300  0.2308
29941W        W46075  13.909   3.379  14.548 -0.3184 -0.2369  0.0615
29942W        W46076  17.408  11.733  11.930  0.0523  0.0695 -0.0829
29943W        W46077   7.116  14.845   4.468  0.1155  0.0027  0.0099
29944W        W46078   8.405  17.658  12.094 -0.1308 -0.3457  0.0224
29945W        W46079  15.262  17.806  13.978 -0.0698  0.2774 -0.1060
29946W        W46080  10.352   6.145   4.426 -0.2491  0.2398  0.1081
29947W        W46081  15.478   0.138  13.015  0.3996  0.0027 -0.1292
29948W        W46082   7.945   4.880   2.016 -0.1583  0.2262  0.0955
29949W        W46083  17.051   1.258  12.928  0.2026  0.0120 -0.1880
29950W        W46084   7.734   6.205  12.306 -0.0722  0.2749 -0.0066
29951W        W46085   8.408  13.475   5.209 -0.1297 -0.0740  0.1172
29952W        W46086  12.763   7.326   3.984  0.1151 -0.1989  0.2861
29953W        W46087   0.513  14.895   4.906 -0.4554  0.1442 -0.0526
29954W        W46088   3.827   6.340   1.976  0.2912 -0.1617  0.0835
29955W        W46089   7.035   7.916   0.358  0.1443 -0.0239  0.2682
29956W        W46090   7.076  12.285   5.707 -0.0821  0.0029 -0.2299
29957W        W46091   1.117  14.870  10.764  0.1910  0.3503 -0.0391
29958W        W46092  15.051  10.673  11.193 -0.4267  0.0097 -0.1666
29959W        W46093  17.642   5.035   1.389  0.0861  0.0838  0.1597
29960W        W46094   3.092  12.931  13.575 -0.2139  0.0454  0.1612
29961W        W46095  17.105  18.732  14.699 -0.2217  0.0833 -0.2754
29962W        W46096   2.538   9.846  14.727  0.0880  0.0202  0.3865
29963W        W46097   8.653   1.634  13.877 -0.1248 -0.2858 -0.2485
29964W        W46098  10.503   0.534   3.133  0.1988  0.4526 -0.1864
29965W        W46099  15.547  16.477  10.759 -0.0667 -0.2447 -0.2418
29966W        W46100  16.059  16.081  13.442  0.1131 -0.3771  0.2080
29967W        W46101  13.429   6.946   1.788 -0.2999  0.2715  0.1788
29968W        W46102   9.287  14.898   0.619 -0.0353 -0.0727  0.1917
29969W        W46103  12.038   9.717  12.874  0.2388  0.2309 -0.0409
29970W        W46104  17.818   8.837  11.816 -0.0218 -0.2143 -0.0349
29971W        W46105   1.878  13.723   0.828  0.1129  0.2523 -0.1802
29972W        W46106  12.042   7.135  13.491 -0.0352 -0.0686  0.1797
29973W        W46107  16.988  15.908  13.909  0.1634 -0.1077  0.4085
29974W        W46108  14.777  11.154  14.108 -0.0336  0.2024  0.1067
29975W        W46109  14.511   8.756  13.561 -0.1619  0.2750  0.0548
29976W        W46110   0.841  10.723  11.953  0.2082  0.2497  0.1614
29977W        W46111   4.217   5.336  11.776  0.1181  0.1223 -0.1653
29978W        W46112   5.172   4.787  12.815 -0.1655  0.0460 -0.0514
29979W        W46113   8.122   1.976  11.016 -0.1181  0.0506  0.0224
29980W        W46114  10.041   4.414  12.389 -0.1381  0.1793 -0.0324
29981W        W46115   0.417   6.429   2.317 -0.0891 -0.0746  0.4329
29982W        W46116   8.634  14.448   2.344  0.0083 -0.1464 -0.0060
29983W        W46117  17.560   3.161   4.073  0.0564  0.0836 -0.1760
29984W        W46118   4.991  16.928   2.198 -0.3596  0.0204 -0.1548
29985W        W46119   4.700   3.337  11.061 -0.0984 -0.1480 -0.0652
29986W        W46120  15.149   2.059   2.173 -0.0284 -0.0107  0.1272
29987W        W46121  18.065  14.829  13.391 -0.1483  0.0681  0.1595
29988W        W46122   6.552   0.473  14.237 -0.0084 -0.0955 -0.1905
29989W        W46123  13.543  16.412  11.837 -0.1442 -0.1389  0.1131
29990W        W46124   5.896  12.205  13.672  0.0832 -0.1619 -0.4165
29991W        W46125  17.276   7.955  12.410  0.1638  0.1181  0.1051
29992W        W46126   6.993   6.013   3.272 -0.2616  0.0501  0.0295
29993W        W46127   3.801   7.397  13.486  0.1211 -0.1282  0.1397
29994W        W46128   1.840   2.791   3.439  0.1494 -0.0307 -0.0469
29995W        W46129   9.483  10.209  14.440 -0.0073 -0.0911 -0.0232
29996W        W46130  16.768  13.773  11.452 -0.0291  0.2535  0.0510
29997W        W46131   3.586  16.147  13.398  0.1227  0.1283 -0.1832
29998W        W46132  13.690   4.888   4.175 -0.1889  0.3967  0.2841
29999W        W46133   3.511   5.421  13.928 -0.0922  0.2545 -0.0184
30000W        W46134  16.965  12.344   1.617  0.0528 -0.0140 -0.1349
30001W        W46135  16.142  11.227  10.534  0.2322 -0.1787  0.0766
30002W        W46136  13.282  10.507  11.310 -0.0862 -0.1957  0.3179
30003W        W46137  18.826   7.833  14.589 -0.2229  0.3433  0.1082
30004W        W46138   7.484   9.764  14.207 -0.0254 -0.2423 -0.0110
30005W        W46139  10.392   3.314   0.050  0.1660  0.0774 -0.0195
30006W        W46140   4.192   8.477   4.220 -0.3649 -0.0264  0.0480
30007W        W46141  17.954  15.163   1.012 -0.0164  0.0553  0.1863
30008W        W46142  10.612   2.185  13.011 -0.1836  0.2012 -0.2248
30009W        W46143  19.030   4.539   1.377  0.1563 -0.0582  0.1819
30010W        W46144  16.946   4.129  10.054  0.4962  0.0380 -0.3209
30011W        W46145   0.068   9.901  11.548  0.0427 -0.1270  0.0067
30012W        W46146  14.678  16.179  12.218  0.3309 -0.3126  0.0010
30013W        W46147   9.587  18.713  13.029  0.1429  0.0543  0.0647
30014W        W46148  17.516  12.983   3.831  0.1833  0.2626 -0.0781
30015W        W46149   0.899  11.444   3.979  0.1277 -0.0391  0.0846
30016W        W46150  13.481   3.005   5.096  0.1738 -0.2093 -0.0793
30017W        W46151  10.354   3.767   4.593 -0.0905 -0.0247 -0.2174
30018W        W46152   4.447  14.432   2.551  0.0587 -0.0872  0.1936
30019W        W46153   6.929  18.253   1.331 -0.1816  0.3928  0.0764
30020W        W46154  18.914   8.124   3.951 -0.0555 -0.2004  0.1263
30021W        W46155   3.286  18.377   5.436  0.3382 -0.3895 -0.0491
30022W        W46156  13.806   6.961  14.438 -0.2106  0.0754 -0.0148
30023W        W46157   4.665  17.798  11.650  0.1293 -0.0251  0.1851
30024W        W46158  18.606   5.636  10.066  0.2205 -0.1811  0.1002
30025W        W46159  11.886  17.262  12.364  0.0394 -0.0064 -0.1635
30026W        W46160   9.276   4.039   0.756  0.1543  0.1604  0.2538
30027W        W46161   6.520   8.395  11.133 -0.2976 -0.1188 -0.4666
30028W        W46162   3.101   2.056  12.001 -0.0517  0.2770  0.3920
30029W        W46163  16.490   9.226  11.894 -0.1000  0.1612  0.0813
30030W        W46164   2.978  13.615  12.561 -0.0149 -0.1444  0.1416
30031W        W46165   9.568   6.760   3.933  0.0410  0.0621 -0.1314
30032W        W46166   2.131   9.113  12.118  0.2761 -0.1669 -0.3395
30033W        W46167   9.605   5.562   1.511 -0.0626  0.0929 -0.1907
30034W        W46168   2.278  18.832  13.238  0.0032 -0.2278  0.2077
30035W        W46169   4.216   3.952  14.687  0.3172  0.0300  0.2551
30036W        W46170  13.338  14.975   5.054  0.0770 -0.4890 -0.1031
30037W        W46171   7.892  13.936   0.969 -0.0285  0.0527 -0.1161
30038W        W46172   6.509   9.598   2.188  0.1972 -0.1809 -0.2392
30039W        W46173  11.324   0.381   4.100  0.0413 -0.3586 -0.0046
30040W        W46174   1.955   3.358   1.983  0.4327  0.0052 -0.0902
30041W        W46175  18.315  15.055   1.622 -0.0255 -0.0169  0.2769
30042W        W46176   4.800   0.562  14.923 -0.2995 -0.1681  0.0245
30043W        W46177  11.609   5.118  15.123  0.1389  0.0315 -0.3486
30044W        W46178  14.071   2.797   0.988 -0.0903  0.0502 -0.1945
30045W        W46179  13.668  17.670   4.173  0.0876  0.0230  0.3814
30046W        W46180   3.555   1.695   0.757  0.0921  0.0355 -0.0287
30047W        W46181   5.428  18.287  10.762  0.1275 -0.0181  0.3204
30048W        W46182   7.082  10.087  13.000  0.2310  0.0383 -0.0287
30049W        W46183   9.440   9.567   2.415 -0.1251 -0.2417  0.2488
30050W        W46184  15.353   4.764   3.307 -0.1728  0.0112 -0.1772
30051W        W46185  10.960   8.438   4.687  0.1853  0.0060 -0.2855
30052W        W46186   5.844   2.439  11.783  0.0127 -0.2420  0.2287
30053W        W46187  18.686  12.424   5.526  0.0477 -0.0606  0.2520
30054W        W46188  14.133   0.387   9.899 -0.1505  0.1861  0.2226
30055W        W46189   9.052  10.505   5.167  0.1742  0.4570  0.0422
30056W        W46190  12.337  18.584   1.002 -0.2253  0.0065 -0.0292
30057W        W46191   1.230  14.823  13.782 -0.0259  0.0441 -0.0179
30058W        W46192  12.680   6.314  10.706 -0.0282  0.2260  0.2246
30059W        W46193   4.136   1.620   2.833  0.1863 -0.0835 -0.1408
30060W        W46194   5.992  14.036   3.063  0.0919 -0.0144 -0.0106
30061W        W46195  17.727   2.630   1.008 -0.0030 -0.2049  0.1880
30062W        W46196   6.609   7.205  10.133  0.1934 -0.0404 -0.2667
30063W        W46197   1.008   8.645  12.085 -0.0661  0.2301 -0.2194
30064W        W46198   5.932   5.991  14.982  0.1229 -0.0331  0.1220
30065W        W46199   4.865   6.763   2.584 -0.1248 -0.0729 -0.0903
30066W        W46200  13.230  13.595  12.824 -0.3192  0.0838 -0.3382
30067W        W46201  18.963  18.480   4.667 -0.1189 -0.4153 -0.2460
30068W        W46202  14.769   8.787   2.578  0.2014  0.0425 -0.3845
30069W        W46203   0.272  12.151   0.797 -0.0334  0.0896 -0.1982
30070W        W46204  18.874   2.789  13.917 -0.2930 -0.0451 -0.1053
30071W        W46205  13.852   7.313  13.493  0.1567  0.1924 -0.1049
30072W        W46206   6.306   4.235  15.043  0.0030 -0.0859 -0.2264
30073W        W46207   2.539   5.754   1.027  0.3020  0.0046  0.3941
30074W        W46208  15.530  10.542  11.096  0.1835 -0.1413  0.1637
30075W        W46209  10.764   0.203   3.463 -0.1850  0.0860 -0.3550
30076W        W46210   8.972   2.089  12.471  0.2406 -0.3301 -0.4104
30077W        W46211  12.787   3.756  12.819  0.0473 -0.1132  0.0054
30078W        W46212  17.574   9.698  14.331  0.0792 -0.2453  0.1488
30079W        W46213  17.844   4.387   3.476 -0.1139 -0.0849 -0.2015
30080W        W46214   4.941  16.806   3.256 -0.1344 -0.3946  0.0155
30081W        W46215   2.664   0.381   4.398 -0.2533  0.1323  0.0931
30082W        W46216  16.308  17.213  11.627 -0.0672  0.0162 -0.2655
30083W        W46217  14.491  18.695   4.203  0.0051  0.0402  0.2224
30084W        W46218  18.965  17.893  11.798 -0.2564  0.3911  0.1239
30085W        W46219  14.304  11.690  13.021 -0.1732  0.0633  0.1767
30086W        W46220   9.600  16.343   4.370 -0.0035  0.0233 -0.2420
30087W        W46221   4.700  18.180   1.434 -0.2383  0.3382  0.0613
30088W        W46222   4.577  16.435   4.454 -0.1588 -0.1433  0.1833
30089W        W46223   0.007  17.993  13.900  0.0525  0.2740  0.4548
30090W        W46224  14.089  11.389  12.114  0.0574  0.1501 -0.0440
30091W        W46225  15.723   0.057  13.986  0.0554 -0.2659 -0.1095
30092W        W46226  15.008   9.991  14.757  0.0555 -0.0480 -0.0778
30093W        W46227   2.449   8.958   3.580  0.1123 -0.1502  0.0122
30094W        W46228  18.181  12.897  10.456  0.1642  0.0527 -0.1308
30095W        W46229   3.303  10.906   4.676 -0.0883  0.3603 -0.3176
30096W        W46230  11.861   6.309   3.275  0.3585 -0.0551  0.0077
30097W        W46231  18.595  16.490  14.482  0.2199  0.0136 -0.0840
30098W        W46232  17.975  17.608  10.295 -0.1618 -0.0860 -0.0335
30099W        W46233   4.906  16.381   2.056  0.1591 -0.2951 -0.0402
30100W        W46234  16.201  15.699   1.764  0.1927  0.0066  0.1260
30101W        W46235   3.017   3.896  13.809  0.2078  0.1008  0.1230
30102W        W46236  13.073   5.512   2.598 -0.0732 -0.0359  0.0816
30103W        W46237   3.546   8.891  10.445  0.1502 -0.2016  0.0694
30104W        W46238  16.172   9.580   3.329 -0.0047  0.4534  0.0329
30105W        W46239   0.044  13.383   3.017  0.4175  0.0306 -0.2182
30106W        W46240   9.804   7.223   2.585  0.2039  0.1089  0.3758
30107W        W46241   5.782   6.875   2.990 -0.1497 -0.0158 -0.0142
30108W        W46242   0.815   1.525  14.649  0.0909 -0.1633  0.3120
30109W        W46243   4.319   4.003  13.966 -0.0280 -0.1478  0.1254
30110W        W46244  13.146   4.978  12.916  0.2206 -0.3806 -0.3924
30111W        W46245  15.810   6.921   4.183 -0.1975  0.1685  0.2154
30112W        W46246   6.550   6.040   1.529 -0.0282  0.1402 -0.1316
30113W        W46247  13.809  14.650  11.086 -0.1349  0.0350  0.0055
30114W        W46248  10.503  14.830  12.572  0.1280  0.0558 -0.1039
30115W        W46249  10.811   8.583  11.444  0.1779 -0.0108 -0.0522
30116W        W46250   0.632   8.142   3.661  0.5099 -0.0422  0.1209
30117W        W46251   8.275  13.968   5.145 -0.0856  0.1781 -0.0339
30118W        W46252  13.091   8.291  12.050  0.2390  0.0201 -0.0785
30119W        W46253  16.726  11.544   9.943 -0.2861  0.0796 -0.3162
30120W        W46254  11.480   1.179   3.630 -0.2788 -0.0709 -0.3124
30121W        W46255   5.626   1.098  12.195  0.0242  0.2694  0.1229
30122W        W46256   9.503  16.644  14.279  0.0805  0.0923 -0.1058
30123W        W46257  11.382  14.844  13.634  0.1515 -0.2165 -0.2800
30124W        W46258  15.695  11.388  11.354  0.0302 -0.0769 -0.0101
30125W        W46259  16.054  10.574  11.269 -0.2393  0.0838  0.1348
30126W        W46260  10.088  14.771   3.860 -0.1281  0.3725 -0.0873
30127W        W46261  16.562   3.803   2.869  0.1954 -0.0128 -0.1909
30128W        W46262  12.225  13.507  14.805  0.1098 -0.0442  0.0647
30129W        W46263  16.807  13.529  14.125  0.0943  0.0884 -0.1139
30130W        W46264   7.726  17.852  15.195 -0.1984  0.0355 -0.4243
30131W        W46265   6.554   4.438  10.881 -0.2441  0.1896 -0.1838
30132W        W46266   2.931   7.581  14.141 -0.0813 -0.1108 -0.0177
30133W        W46267   0.570  15.738  10.899  0.2516  0.0351 -0.1204
30134W        W46268   4.224   5.260   8.957 -0.1284  0.3277 -0.1423
30135W        W46269  11.063   0.330  13.690  0.0842 -0.0855  0.1414
30136W        W46270  12.110  10.998   4.032  0.1474  0.2452  0.1922
30137W        W46271   7.276   6.273  11.527 -0.0641 -0.1638  0.1478
30138W        W46272   2.548  17.250   3.985  0.0888 -0.0106  0.2211
30139W        W46273   5.990  13.329  12.466  0.1299  0.0351  0.0177
30140W        W46274   5.059  17.543  10.313  0.1159 -0.0094 -0.1063
30141W        W46275   2.271  14.804   4.564  0.1396 -0.5132  0.0556
30142W        W46276  12.768  17.668   4.168  0.0567 -0.0201 -0.1091
30143W        W46277   6.778  17.982   4.025  0.0696 -0.1990  0.2168
30144W        W46278  17.857   8.660   0.617  0.1368 -0.0269 -0.5763
30145W        W46279   9.441  17.595   0.572 -0.2125  0.1382  0.1231
30146W        W46280   4.935   6.041  11.075  0.0302  0.3547  0.0956
30147W        W46281   2.713  17.227   5.586 -0.2361  0.0828 -0.0187
30148W        W46282   1.495  17.138  11.966 -0.0096  0.0067 -0.0450
30149W        W46283  17.811  12.946  14.606  0.2916  0.1018 -0.1003
30150W        W46284  13.961  10.317   2.831  0.2019 -0.3755 -0.1146
30151W        W46285  12.795   9.492  14.840  0.1540  0.1600 -0.0044
30152W        W46286   9.963  18.907  10.720  0.2505 -0.1836 -0.0637
30153W        W46287  15.603   1.026   3.679 -0.0177  0.4014  0.0377
30154W        W46288  14.352  12.897  13.496  0.0266  0.1967 -0.1964
30155W        W46289   4.222   9.140  15.008  0.1563  0.5005  0.0173
30156W        W46290   9.336  11.166   9.896 -0.1768  0.2029  0.1090
30157W        W46291  13.652   8.004   1.872 -0.2258 -0.1330 -0.2033
30158W        W46292   7.224  16.017  15.097  0.0459 -0.0627 -0.0686
30159W        W46293   7.418   4.732  12.130 -0.1355  0.0943  0.1020
30160W        W46294  12.716   8.326   9.987  0.0400 -0.0185  0.0845
30161W        W46295  17.481   3.048  14.973 -0.2619  0.0511 -0.0802
30162W        W46296  11.573  14.305  14.975  0.0485 -0.2164 -0.1198
30163W        W46297  10.640  14.868   5.172 -0.2101 -0.3073  0.0624
30164W        W46298  15.407   1.899   4.095 -0.0366 -0.2419 -0.1314
30165W        W46299  16.446  14.066   0.173  0.0689 -0.0217 -0.1200
30166W        W46300  16.846  17.466  14.797  0.0232 -0.1872 -0.1244
30167W        W46301  10.736   0.985   3.946 -0.0729 -0.1476 -0.1272
30168W        W46302  15.196   5.016   3.946 -0.1500  0.1084  0.1907
30169W        W46303   3.162  17.553  13.517  0.2925  0.0991 -0.2756
30170W        W46304   6.611  15.067   3.087 -0.4005 -0.1855 -0.0563
30171W        W46305   5.752   1.875  14.410  0.3526  0.2027 -0.2107
30172W        W46306  15.884  11.969   0.690 -0.1716  0.1209  0.0023
30173W        W46307   5.576   8.820   2.410  0.2591 -0.0858 -0.0142
30174W        W46308  17.041   1.938   2.396  0.4250  0.0012 -0.1090
30175W        W46309  10.639   7.465   2.203 -0.0918  0.0390 -0.0262
30176W        W46310   2.086  16.503   5.054  0.2917  0.0029 -0.2111
30177W        W46311   2.736   2.003   0.998  0.1519  0.0995 -0.0108
30178W        W46312   2.717   4.849   1.628 -0.0147  0.0909  0.0630
30179W        W46313   1.258  16.730   4.524  0.0047  0.4141  0.4718
30180W        W46314   0.249   1.968   4.313 -0.1764  0.2615  0.0727
30181W        W46315  12.341  18.765   3.958  0.1671  0.1705 -0.3866
30182W        W46316  15.737  11.049  10.946 -0.1679  0.2283  0.1714
30183W        W46317   8.044  13.347  11.990 -0.0706  0.2608 -0.0987
30184W        W46318   4.806   0.060   4.689 -0.2623  0.2514 -0.3872
30185W        W46319   8.843   8.749   0.827  0.0677 -0.0060 -0.1545
30186W        W46320  16.315  12.637  14.488 -0.1039  0.0087  0.0542
30187W        W46321   8.088   8.849   3.940  0.0210 -0.2350  0.0218
30188W        W46322  17.248   1.069  11.726 -0.0481 -0.0990  0.2876
30189W        W46323  17.931   3.925   2.451  0.0644 -0.1207 -0.0391
30190W        W46324   7.726   6.762  12.243 -0.2434  0.1801 -0.0647
30191W        W46325  15.766   7.116   0.210  0.2775  0.0357 -0.1964
30192W        W46326   7.026   4.439   3.727 -0.0033  0.0162  0.1509
30193W        W46327  10.728  16.740  13.572  0.4424  0.0138 -0.0281
30194W        W46328  18.807   7.525  12.726 -0.0755  0.0968  0.0834
30195W        W46329  17.083   4.060   5.169 -0.0497 -0.2637 -0.0494
30196W        W46330  18.348   4.971   3.269 -0.0455  0.2893 -0.1935
30197W        W46331   7.565  16.863   2.085  0.1240 -0.3262 -0.0001
30198W        W46332   3.920   7.103  11.540 -0.3913  0.1749 -0.0106
30199W        W46333   8.319   7.549  13.931  0.1503  0.2728  0.1109
30200W        W46334   5.539   6.447  11.552  0.2527 -0.2703  0.1524
30201W        W46335   1.723  16.874   4.473  0.0047 -0.1728 -0.1400
30202W        W46336  10.203   1.185   2.966 -0.1882  0.1248  0.0504
30203W        W46337   9.676  16.928   9.752 -0.2168 -0.1866 -0.1610
30204W        W46338   0.178   2.737   3.913 -0.0694 -0.2524 -0.0627
30205W        W46339  13.797   1.103   1.647 -0.0219 -0.0396 -0.0911
30206W        W46340   6.160   1.305   5.029  0.0164 -0.0505  0.0901
30207W        W46341  11.296  12.374  14.471 -0.0715  0.0599 -0.1294
30208W        W46342   0.629   9.924  13.881 -0.1542 -0.2950 -0.0489
30209W        W46343   2.668   4.677   1.131 -0.0797  0.0634 -0.4198
30210W        W46344   5.403  17.882   5.106 -0.0924  0.0729  0.2024
30211W        W46345  11.625  13.798   1.145  0.0330 -0.1931  0.1587
30212W        W46346   5.511  13.006   1.286 -0.1686 -0.0893  0.2370
30213W        W46347   0.533  17.245   0.721 -0.0621 -0.1982  0.0993
30214W        W46348  18.941   7.953   3.398 -0.0613  0.4490 -0.2109
30215W        W46349  12.204   4.470   5.218  0.2747  0.1580 -0.0115
30216W        W46350   4.248   9.436   1.494 -0.1449 -0.0379  0.0881
30217W        W46351  13.717   7.420  14.288  0.4235 -0.3118  0.1545
30218W        W46352   5.068   9.161  13.743  0.2467  0.0730  0.4120
30219W        W46353   7.119  10.885   4.948 -0.3229 -0.2203 -0.0104
30220W        W46354  17.576   8.832  10.657 -0.0419  0.0529 -0.0387
30221W        W46355   9.421   0.619  11.998  0.0564 -0.0127  0.1868
30222W        W46356   9.731   1.626   1.071 -0.3175 -0.1241  0.0742
30223W        W46357   4.407   4.752   1.713  0.3009 -0.0032  0.1666
30224W        W46358  18.570   4.535  14.300 -0.0724 -0.0595 -0.1079
30225W        W46359  10.325   8.750   0.267 -0.0493  0.2570  0.2367
30226W        W46360   5.108   7.956   0.696 -0.3624  0.0439 -0.0875
30227W        W46361   0.857  16.419  12.157 -0.0096  0.1622 -0.0645
30228W        W46362  16.130   5.765  13.621  0.0481  0.4791  0.2453
30229W        W46363   7.912  18.522   1.253  0.0058 -0.2391  0.2643
30230W        W46364   1.140  18.620   0.818 -0.0549 -0.2326  0.0012
30231W        W46365  10.460   7.671  10.120 -0.0465  0.2661 -0.3178
30232W        W46366  16.521  12.971   1.681 -0.0248 -0.1800 -0.2792
30233W        W46367  18.507  11.079   0.722 -0.1053 -0.0529 -0.0772
30234W        W46368   8.824  18.039  13.977 -0.0246 -0.2517  0.3669
30235W        W46369   2.661   5.833   2.636  0.0020  0.1432  0.1459
30236W        W46370   4.969   3.493   1.854 -0.3168 -0.1577 -0.2668
30237W        W46371  19.000  15.909   1.288  0.1532 -0.1162  0.0675
30238W        W46372  11.690   5.173   3.937 -0.0996  0.1555  0.2497
30239W        W46373  12.834  17.080   3.281 -0.2176  0.1243 -0.0493
30240W        W46374   3.074   6.908   2.999  0.0237  0.1652 -0.1171
30241W        W46375  15.214  11.157   3.514 -0.1032  0.1663  0.0583
30242W        W46376  17.997   5.847   3.439 -0.0016 -0.1358  0.2629
30243W        W46377  17.528   2.491  11.051  0.0781  0.0322 -0.2113
30244W        W46378  18.371  16.817  14.166  0.0856 -0.1609 -0.2939
30245W        W46379   6.615   2.807  14.815 -0.1029  0.5187 -0.3169
30246W        W46380  16.335  18.226  13.062  0.1729  0.3310  0.0115
30247W        W46381   3.741  15.616  11.858  0.1264  0.2564 -0.1431
30248W        W46382   4.868   2.680   4.073 -0.0028  0.1655  0.3074
30249W        W46383  10.353  16.745  14.178  0.0859 -0.4235  0.1591
30250W        W46384  17.857   0.763  13.939 -0.1008  0.3298 -0.1059
30251W        W46385   4.157   6.595   1.085 -0.3678 -0.0803  0.1007
30252W        W46386  12.352  11.063  13.310  0.0422 -0.0796  0.0224
30253W        W46387   5.232   3.100  11.525 -0.0091 -0.3063  0.2003
30254W        W46388  12.314   2.871   3.963 -0.1437 -0.1899  0.1453
30255W        W46389  17.910  13.341   0.641  0.0368  0.3090  0.2602
30256W        W46390  11.559  11.080   2.591  0.1301  0.1352  0.0726
30257W        W46391  12.439   4.283   0.011  0.1019 -0.0086  0.1796
30258W        W46392  14.581  15.548   4.655 -0.3384  0.2855  0.1608
30259W        W46393   8.157   1.148   4.549 -0.1072 -0.0696 -0.1513
30260W        W46394  19.007   8.250  12.257  0.4742  0.1601  0.0894
30261W        W46395  14.211   9.340  10.348  0.0500  0.0365  0.0186
30262W        W46396  13.891  13.037  14.253 -0.0912  0.1924 -0.1929
30263W        W46397  17.205  18.456  11.636  0.1287 -0.2422 -0.0647
30264W        W46398   6.578   1.685  11.666  0.0472 -0.2195 -0.1890
30265W        W46399  17.478   8.134  12.874  0.0548  0.0292  0.0279
30266W        W46400  18.994  15.388  11.539  0.0909 -0.1205 -0.0578
30267W        W46401  10.946   7.054  10.634 -0.0274  0.1427 -0.5748
30268W        W46402  12.367   8.556   4.272 -0.1211 -0.1861 -0.0376
30269W        W46403   0.649   1.386  10.270 -0.0639 -0.0183 -0.0970
30270W        W46404   0.597   3.909   4.269 -0.2758 -0.1403 -0.2306
30271W        W46405   5.950   4.336   1.441  0.0557  0.3130  0.0297
30272W        W46406   5.013  14.721  12.008 -0.2981 -0.1808 -0.1637
30273W        W46407  11.480  13.910   0.516  0.1334 -0.0891 -0.4436
30274W        W46408  17.983  19.009  12.123 -0.0093 -0.2464  0.2055
30275W        W46409   1.924   7.722   0.036  0.2234  0.0959  0.2470
30276W        W46410  11.690  17.539   2.189 -0.0719  0.2789 -0.0820
30277W        W46411  14.677   6.604  11.424  0.2105 -0.1650 -0.1243
30278W        W46412   5.110  16.074   2.358 -0.0067  0.0096 -0.0055
30279W        W46413   1.372   6.775   3.815 -0.2064 -0.2104  0.2898
30280W        W46414   3.838  11.951  12.184  0.1110  0.1208  0.1193
30281W        W46415  19.079   1.901  14.457  0.0973 -0.0588 -0.0017
30282W        W46416  15.124   6.766  10.115  0.2379 -0.2568  0.0219
30283W        W46417   4.057   0.603   1.265 -0.1443 -0.4532  0.2867
30284W        W46418  16.537  11.614   3.239  0.1299 -0.0575  0.0430
30285W        W46419  16.976   8.130   4.863  0.0716 -0.0752 -0.1244
30286W        W46420   1.605  13.579  11.288 -0.1589 -0.1430 -0.1085
30287W        W46421  17.856  10.456   2.641  0.0290 -0.0953 -0.3959
30288W        W46422  12.216   4.216  11.749 -0.0832  0.3961  0.1849
30289W        W46423   9.360  11.349   4.150 -0.1171  0.1269  0.2149
30290W        W46424  17.599  10.983   0.863  0.3558 -0.1272  0.1277
30291W        W46425   0.083   3.971   3.064 -0.3884 -0.1196  0.0562
30292W        W46426   0.593   0.009   4.737 -0.0539  0.1908  0.1135
30293W        W46427   3.798  16.889   1.336  0.4451 -0.0369  0.2742
30294W        W46428  15.914  16.977  14.003 -0.0359  0.1126 -0.1252
30295W        W46429   0.301  17.572  13.942 -0.0854 -0.0945  0.2530
30296W        W46430   5.553  13.018   2.686 -0.1739 -0.2493  0.2652
30297W        W46431   6.240   9.060   3.039 -0.1319 -0.0509  0.0387
30298W        W46432   5.681   3.810  12.771 -0.5718 -0.1163  0.2932
30299W        W46433   5.334   5.809  13.877  0.0736 -0.0143  0.0024
30300W        W46434   0.906  16.908   2.530  0.0991  0.2376 -0.0677
30301W        W46435  18.214   8.229   1.706  0.0355 -0.1553  0.4196
30302W        W46436   4.201  19.069   1.794  0.0324 -0.1291 -0.0744
30303W        W46437   2.512   1.865  13.372 -0.1290  0.0190 -0.1724
30304W        W46438   2.713   9.769   4.645 -0.0847 -0.0077 -0.1388
30305W        W46439   5.064   6.859   3.740 -0.2179 -0.2325 -0.1188
30306W        W46440  18.594   7.461  11.923 -0.5103  0.3951 -0.1204
30307W        W46441  18.795  10.220   3.530  0.0452  0.1550  0.0767
30308W        W46442   1.990   3.753   4.735  0.0158 -0.1948 -0.1807
30309W        W46443  15.009   0.846   4.341  0.0273  0.0162  0.0328
30310W        W46444  10.594   0.139  15.058  0.1821  0.0473  0.3173
30311W        W46445   8.337   9.711  14.580  0.0087  0.2593  0.1015
30312W        W46446  12.887   4.923   1.771 -0.3059  0.3988  0.0570
30313W        W46447   9.831   8.158  15.077 -0.0596  0.0939 -0.0274
30314W        W46448   4.576   3.136   0.120 -0.2766  0.0080  0.1689
30315W        W46449  12.769   4.775  11.312  0.4293  0.2589 -0.0588
30316W        W46450   7.410  11.648  12.310  0.2295  0.3916  0.0048
30317W        W46451   1.678   4.126   0.604 -0.1629  0.0240  0.0680
30318W        W46452   0.223   6.908  14.617  0.0462 -0.0603 -0.1347
30319W        W46453   3.926   3.643   1.221  0.0175  0.5208  0.1693
30320W        W46454  19.012  13.462  11.995 -0.2048  0.6663 -0.0138
30321W        W46455  18.245   8.534  11.002 -0.3305  0.1076 -0.0561
30322W        W46456  17.180   9.089  15.204  0.2926 -0.0406  0.2453
30323W        W46457   0.184  10.459  13.088  0.0166  0.2142 -0.2710
30324W        W46458  14.551  11.698  12.025 -0.3379 -0.2097 -0.0305
30325W        W46459  14.480  14.313  13.580  0.0309 -0.0578 -0.3861
30326W        W46460   9.353  11.068   3.562  0.1482 -0.0108 -0.3250
30327W        W46461  13.685   6.199   1.658 -0.2524  0.1327  0.0302
30328W        W46462  15.006   5.449  13.326 -0.0274  0.2541 -0.0080
30329W        W46463  17.244  18.231  13.601 -0.0052  0.1247 -0.0073
30330W        W46464  15.427  18.887   0.507  0.1688 -0.0270  0.1147
30331W        W46465  14.851   9.512   1.952 -0.1224 -0.1756 -0.0860
30332W        W46466  17.235  18.981   1.687  0.0130  0.0784 -0.1854
30333W        W46467  18.409  15.448  10.796  0.3992  0.0333 -0.2072
30334W        W46468   4.920  16.807  13.693  0.2751 -0.0920  0.0313
30335W        W46469   7.938  16.092   1.995 -0.2463  0.0972  0.2470
30336W        W46470  18.749  15.279  13.402  0.3115  0.0650  0.2667
30337W        W46471   6.097  10.063   4.410  0.0101  0.1769  0.1331
30338W        W46472   5.338  10.362   5.523  0.0376  0.2187  0.0910
30339W        W46473   1.663   8.379   1.299  0.0006 -0.1624  0.0261
30340W        W46474  12.044   4.967   3.011 -0.1243  0.1552  0.0375
30341W        W46475  16.880   9.018   2.668 -0.2059 -0.2102 -0.0011
30342W        W46476  12.949  18.993  10.328  0.0394  0.0765 -0.1259
30343W        W46477  12.604   5.249  15.056  0.1579 -0.0759 -0.0012
30344W        W46478   0.431   1.868  10.988 -0.0715  0.0196 -0.4399
30345W        W46479   4.646   5.211   0.338 -0.2442 -0.1187 -0.0119
30346W        W46480  11.480  10.667  11.634 -0.0654 -0.2619  0.1025
30347W        W46481   0.945   3.533   1.413  0.0572  0.0318  0.0447
30348W        W46482   5.391  12.592   9.726 -0.0322  0.2897  0.0060
30349W        W46483   6.725   6.780  13.252  0.0142 -0.1818  0.0922
30350W        W46484  14.214   4.909  13.840  0.0335 -0.3209 -0.2477
30351W        W46485  17.770  10.956   2.521  0.3930  0.0882  0.2033
30352W        W46486  15.834  18.413  13.421 -0.3189 -0.1020  0.0591
30353W        W46487  16.611  12.749  11.590  0.1689 -0.3455  0.1133
30354W        W46488  11.141  15.887   4.829 -0.2300  0.0365  0.2603
30355W        W46489  11.201   5.476  15.197 -0.0207 -0.0186  0.1103
30356W        W46490   7.976  12.214   3.592  0.1577 -0.0839 -0.4133
30357W        W46491  10.854  11.593   3.971  0.2480  0.2043  0.1009
30358W        W46492  17.973  15.196   2.961  0.3518 -0.0296 -0.2174
30359W        W46493   4.198   7.202   4.692 -0.0756 -0.2401 -0.2324
30360W        W46494   5.479  12.874   4.165 -0.0154 -0.0814 -0.0467
30361W        W46495  18.796  17.409  11.140 -0.0442  0.0899 -0.0500
30362W        W46496   2.463  10.011   8.813  0.2595 -0.0653  0.0600
30363W        W46497  12.519  15.603   4.717  0.1460 -0.2002 -0.0493
30364W        W46498  16.474  12.743  14.993 -0.1044  0.0156 -0.0864
30365W        W46499   5.792   1.242   2.430 -0.0028 -0.0836  0.2476
30366W        W46500  12.244  11.207  14.234  0.1045 -0.0218  0.0402
30367W        W46501  13.458   8.632  11.192  0.0023 -0.0353  0.2048
30368W        W46502  10.176   8.525   3.331 -0.0332 -0.1589  0.1556
30369W        W46503   4.178  17.834   1.667 -0.3082 -0.0619 -0.1165
30370W        W46504  10.393  13.569   5.875 -0.2026 -0.1449 -0.2547
30371W        W46505  14.966   7.102   0.394 -0.1488 -0.1316  0.0092
30372W        W46506   4.847   5.993   0.802 -0.1931  0.1908 -0.2642
30373W        W46507   5.975  16.825   3.070  0.0248  0.3288 -0.0743
30374W        W46508   8.298  11.870  14.153 -0.0680 -0.1354 -0.1354
30375W        W46509  15.299  12.892  10.344 -0.1126 -0.0448 -0.0616
30376W        W46510  18.494   6.954  12.812  0.2187  0.2360  0.0500
30377W        W46511  15.856   9.316   4.019 -0.2319  0.2192 -0.0506
30378W        W46512   5.903  14.469   1.927 -0.2380 -0.2421 -0.0888
30379W        W46513  13.455  13.375  14.168  0.3280 -0.4215  0.0413
30380W        W46514  16.781   4.433  11.565  0.0603 -0.4182  0.2809
30381W        W46515  18.501   5.854   0.106 -0.2618 -0.3105  0.0216
30382W        W46516   6.077  12.210   1.371  0.0486 -0.2203 -0.1822
30383W        W46517   6.393  17.409  15.064 -0.2417  0.4005  0.1932
30384W        W46518  18.418  18.819   2.925  0.1266 -0.2288 -0.0909
30385W        W46519  11.077   7.825   1.837 -0.2620  0.1660 -0.0631
30386W        W46520   5.472  10.903  12.327  0.2392 -0.0671  0.0600
30387W        W46521  18.395   3.588  13.300  0.1152 -0.1206  0.1289
30388W        W46522   0.543   9.642   0.337  0.1347 -0.1918 -0.2154
30389W        W46523  16.804  13.717   0.051  0.2253 -0.0522 -0.2113
30390W        W46524   9.122  18.575  13.147 -0.2099  0.1363 -0.0685
30391W        W46525   3.570  12.790   3.168  0.1920 -0.1703 -0.1663
30392W        W46526  12.507  10.108   1.058  0.0278  0.3555  0.1194
30393W        W46527  13.804   7.465   0.418 -0.1278 -0.1601  0.1564
30394W        W46528   6.005   7.721  13.848 -0.1629 -0.1181 -0.1735
30395W        W46529  17.010   5.385   3.897  0.0655 -0.1116 -0.1764
30396W        W46530   8.608   9.478   1.907  0.0324  0.1712  0.2498
30397W        W46531   4.951   0.820   3.503  0.2220 -0.0128 -0.2637
30398W        W46532   5.580   8.203  14.167 -0.2335 -0.1009  0.0524
30399W        W46533  17.848  16.463  10.624 -0.1611 -0.1649 -0.3019
30400W        W46534  10.362   0.198  14.018 -0.3971  0.0273 -0.0504
30401W        W46535   2.544   1.449   4.407 -0.1259 -0.2242 -0.1413
30402W        W46536  17.874  10.066   5.039  0.0425  0.0259 -0.0013
30403W        W46537   3.029  13.126  12.643  0.0075 -0.1892  0.0643
30404W        W46538   5.309   9.215   0.041  0.0408 -0.3187  0.1626
30405W        W46539  16.508   1.707   2.178  0.2508 -0.2579  0.0322
30406W        W46540   3.642   3.095   1.978  0.0691 -0.2480 -0.2783
30407W        W46541  12.192  14.343   0.672  0.0535 -0.1049 -0.1614
30408W        W46542   6.712   4.971   4.513 -0.1466 -0.0739  0.1113
30409W        W46543   5.547  16.555   4.701 -0.0569 -0.1051  0.0054
30410W        W46544  13.208   6.357  14.238  0.1908 -0.0119 -0.0981
30411W        W46545  10.753  10.426   1.531 -0.2265 -0.4482 -0.3126
30412W        W46546  17.761   9.556   4.338  0.1689 -0.0978  0.2382
30413W        W46547  10.983   6.717  14.137  0.3258 -0.0186  0.1501
30414W        W46548   3.850   8.257  11.662 -0.0340  0.3538  0.3248
30415W        W46549  18.260  18.095   3.338  0.3053  0.0608 -0.3465
30416W        W46550  11.528  16.931   3.653 -0.0167 -0.1458 -0.3015
30417W        W46551   3.659   9.500   4.568  0.1276  0.0999 -0.4890
30418W        W46552  13.112   3.102   2.567  0.0614 -0.0440 -0.0969
30419W        W46553   3.591   0.410  11.235  0.1301 -0.2308  0.0952
30420W        W46554   0.453  18.213  10.508  0.0410 -0.1745  0.0671
30421W        W46555  10.882   0.792   3.349 -0.0203  0.0475 -0.0997
30422W        W46556   3.161   6.713   1.370 -0.0300  0.0188 -0.3119
30423W        W46557   6.774  16.846  11.659  0.0984  0.0848 -0.2433
30424W        W46558   2.636   0.956  10.355  0.0336  0.1002 -0.1027
30425W        W46559   0.286  11.386  13.577 -0.0910  0.0269 -0.2506
30426W        W46560   1.814   7.553   3.087  0.0039 -0.2706 -0.2174
30427W        W46561  15.744   5.436   0.914  0.2113 -0.1063  0.1950
30428W        W46562  11.307  14.374  13.556 -0.0115 -0.4249  0.1145
30429W        W46563  18.675   2.818  10.239 -0.1111  0.1142 -0.2252
30430W        W46564   5.021   9.697   0.201  0.0617 -0.1003  0.0456
30431W        W46565  17.091  14.147   4.397 -0.1083 -0.0176 -0.4350
30432W        W46566  12.439  16.119   4.402 -0.2989 -0.0603  0.1462
30433W        W46567   2.843  14.095  15.167 -0.1375  0.2835  0.1575
30434W        W46568  16.855   0.518   4.745 -0.0503  0.1984  0.0709
30435W        W46569   9.890  18.691  10.191  0.3442 -0.1814 -0.1491
30436W        W46570   2.209  17.818   2.321  0.0221  0.0890  0.2614
30437W        W46571   1.039   7.006   1.818 -0.0688 -0.0047 -0.0305
30438W        W46572  16.590  17.071  11.192 -0.2157  0.1267 -0.3293
30439W        W46573   7.043   7.977   4.796 -0.1763 -0.0654 -0.0690
30440W        W46574  18.620   2.374   4.747  0.2695  0.2762  0.1765
30441W        W46575   6.957  17.939   2.123  0.1338 -0.1011  0.0417
30442W        W46576   9.676   8.067  11.752  0.1163 -0.2942  0.0024
30443W        W46577  10.546   3.705  12.638  0.1315 -0.0895 -0.0769
30444W        W46578  10.798  18.285   2.926 -0.2079  0.2412 -0.0506
30445W        W46579   9.250   7.504  11.980 -0.2531  0.0042  0.1644
30446W        W46580   4.354  18.254  10.374  0.1234  0.1020 -0.3802
30447W        W46581   0.710  13.821  13.080  0.0886 -0.1906  0.0556
30448W        W46582   1.641   9.019   1.074 -0.0064 -0.2149  0.0004
30449W        W46583   1.639   4.001   4.387 -0.1116  0.0575 -0.2942
30450W        W46584   5.889   6.929  10.804 -0.1665 -0.0760  0.0592
30451W        W46585  13.851   3.497   1.316  0.1007  0.1115  0.1200
30452W        W46586   1.472  13.786   5.869  0.0673 -0.1383 -0.0148
30453W        W46587  16.852  11.236   2.412 -0.0059 -0.3395 -0.1499
30454W        W46588   2.610  12.102   1.140 -0.1465  0.0993 -0.1289
30455W        W46589  10.478  15.159   0.272  0.1079  0.1816  0.1418
30456W        W46590  18.718   8.235  13.301 -0.1121 -0.1816 -0.0951
30457W        W46591   1.804  13.954   4.462  0.6490 -0.4925  0.0935
30458W        W46592  10.867  11.279  12.794  0.4149  0.2522  0.0068
30459W        W46593   6.714  16.998  13.596  0.0025 -0.6700  0.0172
30460W        W46594  12.769  14.985  13.070 -0.0115 -0.1127 -0.0759
30461W        W46595   3.486   9.844  14.425 -0.0498 -0.0305 -0.0434
30462W        W46596   2.016   6.773   3.524  0.2080 -0.1827  0.0481
30463W        W46597  13.012   1.118  10.710 -0.0035  0.0847  0.0783
30464W        W46598   7.409   7.914  14.461  0.1110 -0.2608 -0.0136
30465W        W46599   1.317  18.008  14.321 -0.1651  0.0083  0.0223
30466W        W46600  11.608   3.476   2.931 -0.0222  0.2762  0.2733
30467W        W46601   9.734  18.238   2.366 -0.3314 -0.1754 -0.1388
30468W        W46602  17.402   5.490   0.288  0.2265  0.2246  0.0230
30469W        W46603   6.940  15.859   1.446  0.3709 -0.0067 -0.1264
30470W        W46604  14.524   7.871   4.379  0.1396 -0.2687 -0.0470
30471W        W46605  18.727   6.195  11.415 -0.1813 -0.0456 -0.2131
30472W        W46606   6.738  12.682  13.722  0.2647 -0.0759 -0.2358
30473W        W46607  16.803  17.160   5.284 -0.1038  0.0225  0.1972
30474W        W46608   4.611   8.306  12.125  0.1374  0.0930  0.1199
30475W        W46609   6.913   2.248   0.801 -0.0541  0.2026 -0.0729
30476W        W46610   4.955   4.105   3.407 -0.0993 -0.2669 -0.1605
30477W        W46611  17.543  14.497   5.722 -0.1690 -0.4248 -0.1943
30478W        W46612  12.559  12.264   0.671  0.0057 -0.0489 -0.0930
30479W        W46613  14.908   4.397  11.646  0.0916 -0.1683 -0.0193
30480W        W46614   6.421   1.711  14.004 -0.0149 -0.4516 -0.2220
30481W        W46615   3.998  18.617   1.789 -0.0107  0.1419  0.1454
30482W        W46616  13.408  18.907  11.103  0.2459 -0.2220  0.1938
30483W        W46617  15.211   2.872  14.865 -0.0624 -0.2777  0.0140
30484W        W46618   9.858  15.803  13.605 -0.3442 -0.2177 -0.2886
30485W        W46619  15.977  12.163  13.742  0.0935  0.2014  0.0925
30486W        W46620   8.830   0.398  11.328 -0.1829 -0.0123  0.1177
30487W        W46621   0.304  12.599   9.343  0.1608  0.0893 -0.1677
30488W        W46622   0.644  17.983   3.904 -0.1258 -0.0634  0.1751
30489W        W46623  15.121  17.748  10.692 -0.1746 -0.1523  0.1146
30490W        W46624  11.537  12.935  13.840  0.3588 -0.0149 -0.1385
30491W        W46625  13.858  13.754   0.352 -0.2164  0.2801  0.0564
30492W        W46626   9.900  17.068  10.489 -0.1082  0.2759 -0.3465
30493W        W46627   6.224   4.647  11.692 -0.0843 -0.1348  0.0831
30494W        W46628  15.209  12.631  12.838  0.0428  0.3431 -0.1653
30495W        W46629   7.360   9.999   2.218 -0.1590  0.0663  0.3201
30496W        W46630  11.033  15.091   0.510 -0.2075  0.1412 -0.1732
30497W        W46631   3.495  12.163   4.543 -0.0687  0.0574 -0.1254
30498W        W46632   9.727  12.034   4.376  0.1940 -0.1339  0.2292
30499W        W46633   3.753   2.847  10.939  0.0727 -0.3050 -0.1111
30500W        W46634  16.531   9.422  14.187  0.2321  0.0596 -0.0445
30501W        W46635  15.347   9.320   0.309 -0.3277  0.0723 -0.0467
30502W        W46636  16.119   6.316  14.841  0.0647  0.1868  0.2771
30503W        W46637  13.927  17.405  11.276 -0.1538 -0.1658  0.4412
30504W        W46638   7.754   0.515   4.080 -0.2594 -0.1611 -0.4710
30505W        W46639   5.272  17.904  11.278 -0.0746 -0.1025  0.0184
30506W        W46640   4.001  17.621  13.256  0.0173 -0.4661  0.0900
30507W        W46641   2.409  15.753   2.545  0.0908  0.0754 -0.1388
30508W        W46642   4.880  12.837   4.398  0.1683 -0.1835 -0.2725
30509W        W46643   5.874   1.734  13.956 -0.1606  0.1403 -0.0794
30510W        W46644  11.970  16.222   2.674  0.1842 -0.2902  0.2199
30511W        W46645  14.465  13.069   3.026 -0.1727  0.1866  0.0428
30512W        W46646   1.071  16.963  12.806 -0.0255  0.0307  0.0443
30513W        W46647  16.693  17.778   3.457  0.0153  0.1394 -0.1363
30514W        W46648  15.896   9.862  10.251  0.0274  0.0328  0.4529
30515W        W46649  16.913   6.734  14.367 -0.2110 -0.1581 -0.0772
30516W        W46650   6.000  11.102   3.491  0.3210 -0.1513  0.2496
30517W        W46651   5.013  15.375  13.458 -0.1376  0.0309  0.1792
30518W        W46652   4.388   0.201  15.189 -0.0096  0.3929 -0.0138
30519W        W46653  12.671  14.983   0.211  0.2754  0.0032  0.2457
30520W        W46654   1.513   3.544   4.655  0.0381  0.0117  0.3397
30521W        W46655  17.431  18.552  12.568 -0.2066  0.2141  0.0642
30522W        W46656   8.781   1.761   4.115 -0.0614  0.2654 -0.0040
30523W        W46657  12.906   3.248  14.484  0.0390  0.3285 -0.0228
30524W        W46658   2.909  19.080  10.304 -0.0858 -0.0574  0.1465
30525W        W46659  15.465   0.854  13.625  0.4109  0.0937 -0.1517
30526W        W46660  18.336  11.487   5.315 -0.4939  0.1855 -0.1088
30527W        W46661  17.621   1.504  11.404 -0.0258 -0.0165  0.0477
30528W        W46662  11.809   4.634  13.087  0.1051  0.4436 -0.0094
30529W        W46663   7.052   1.638  11.691 -0.0276 -0.2399 -0.2469
30530W        W46664  13.607  13.015   3.965  0.0862  0.0840  0.0188
30531W        W46665  12.280   4.727   2.582 -0.0379 -0.4359 -0.0222
30532W        W46666  10.182  17.934  12.196  0.2139 -0.0093 -0.1087
30533W        W46667   7.614  16.414   2.343  0.0444  0.1673  0.2426
30534W        W46668  15.575   6.552   3.904 -0.2055 -0.1579 -0.2118
30535W        W46669  13.961   7.630  13.878 -0.3853  0.0068 -0.0141
30536W        W46670  12.251   0.992  12.016 -0.0219  0.2392  0.0397
30537W        W46671  13.123   3.561   2.817  0.1030 -0.0317 -0.2183
30538W        W46672   7.287  11.040   4.146 -0.2113 -0.1186 -0.2180
30539W        W46673   3.233  17.362  12.999 -0.0944  0.3484  0.1113
30540W        W46674  13.945   1.498   2.974  0.1521 -0.1532  0.0098
30541W        W46675   8.723  17.133  12.906  0.1848  0.0099 -0.0161
30542W        W46676  17.771   5.470  13.641  0.0745  0.0215 -0.0106
30543W        W46677  11.067  13.987   3.347 -0.2441  0.2618  0.3205
30544W        W46678   3.880  13.096   2.100 -0.3420 -0.1913 -0.1665
30545W        W46679   4.487  15.738  12.401  0.0986  0.2478 -0.0836
30546W        W46680   0.793   2.736   0.135  0.0071 -0.3471  0.1138
30547W        W46681  13.275  17.796  13.198  0.0158 -0.0281  0.0013
30548W        W46682   9.659  14.540  13.136 -0.0249  0.3334  0.1349
30549W        W46683  11.939  18.910  12.848 -0.0991 -0.1663 -0.0606
30550W        W46684   4.399   2.697  12.349 -0.1075 -0.0954  0.1428
30551W        W46685  13.751   0.214  12.363  0.0191 -0.1149  0.1519
30552W        W46686  15.785   0.334   1.885  0.0280 -0.0690 -0.2027
30553W        W46687   7.367  18.460   3.124  0.1360 -0.2009  0.0905
30554W        W46688   9.927   9.682   1.740 -0.2961  0.3400 -0.3279
30555W        W46689   9.784  17.210   1.609 -0.1053  0.1727  0.1099
30556W        W46690   3.683  17.433   1.283 -0.1690 -0.0123  0.1983
30557W        W46691   4.139   5.843  11.958  0.3552  0.2807 -0.2669
30558W        W46692   6.085   0.009   4.582 -0.2793  0.0047 -0.1417
30559W        W46693   9.796  14.579   5.170 -0.1527  0.4705 -0.1263
30560W        W46694  10.059  12.927  12.404  0.0044 -0.0563 -0.1989
30561W        W46695  11.358  19.051  13.687  0.0217 -0.1040 -0.0464
30562W        W46696   9.446   5.364  10.909 -0.0545  0.2327  0.0935
30563W        W46697  16.647  11.121   1.631  0.2176  0.0515  0.1459
30564W        W46698  18.929   3.750   4.720  0.2359  0.1234  0.1876
30565W        W46699   7.344   0.912   0.901  0.1500 -0.1069  0.1063
30566W        W46700   3.259   3.358   3.319  0.2170 -0.0450 -0.0002
30567W        W46701   8.147   2.137   4.847  0.1404  0.3203  0.0781
30568W        W46702  10.205  16.029   4.502 -0.0958 -0.0898 -0.1323
30569W        W46703  13.127  15.217   0.087  0.0024 -0.0000  0.2075
30570W        W46704  15.257  18.922  14.070  0.0168 -0.0887  0.1975
30571W        W46705  15.175  11.256  15.090 -0.0363 -0.3700 -0.0106
30572W        W46706  11.446   8.930  11.288  0.1407 -0.2073 -0.1769
30573W        W46707   8.244   3.328   0.154  0.2564 -0.2884  0.1236
30574W        W46708  11.014   1.455   5.558 -0.2139  0.0972 -0.2055
30575W        W46709  14.874  18.897   3.149  0.1613  0.1947 -0.0166
30576W        W46710  10.655  16.194  10.713  0.2114 -0.1180 -0.1064
30577W        W46711   2.791  11.682   2.973 -0.2348  0.2641 -0.0291
30578W        W46712  17.394   6.974   1.754  0.1504  0.4595  0.0878
30579W        W46713  17.494  17.088  13.376 -0.0936 -0.1151 -0.0713
30580W        W46714   0.601   2.458   5.475  0.1725  0.0685  0.2638
30581W        W46715  15.214   1.225   4.645  0.0455 -0.0058 -0.0611
30582W        W46716  15.904  16.001   3.422 -0.0920 -0.2017  0.2880
30583W        W46717  12.240  15.974   3.783  0.1710  0.1080  0.0786
30584W        W46718  14.367   2.598   1.942  0.1623  0.0926  0.1863
30585W        W46719   0.547  15.064  11.955  0.1188 -0.1701 -0.0442
30586W        W46720  11.606  11.023  11.191  0.0732  0.0888  0.0046
30587W        W46721   1.230  12.843  10.318  0.0227 -0.2388  0.0860
30588W        W46722  18.806   0.952  14.340  0.0282  0.3095  0.0367
30589W        W46723  14.976   1.574   2.164  0.1528 -0.0556  0.2813
30590W        W46724   6.154   0.446  15.089  0.1717  0.0561  0.3556
30591W        W46725  17.622  17.351   3.148  0.2767  0.2221 -0.1915
30592W        W46726   0.578   9.181   3.413 -0.1136  0.1218 -0.2459
30593W        W46727   8.410   6.100  14.871 -0.1103  0.0381  0.2171
30594W        W46728   1.838  18.473  15.178  0.3043  0.2577 -0.1666
30595W        W46729  16.910  10.139  10.893  0.0772 -0.0726 -0.2836
30596W        W46730   2.424   2.939   3.279 -0.1251  0.1821 -0.3886
30597W        W46731   8.309   9.663   5.110  0.0113 -0.1814  0.0995
30598W        W46732  11.742  17.158   2.780  0.4169  0.0605  0.0871
30599W        W46733   0.340  14.163   3.127  0.5342 -0.1896  0.2876
30600W        W46734  19.144   8.060  13.054  0.0854  0.2782  0.0413
30601W        W46735   6.081  14.187  12.094  0.0484  0.0792 -0.2160
30602W        W46736  15.540   8.312   0.629 -0.0951  0.2840 -0.1568
30603W        W46737  18.160  11.182  10.341 -0.0060 -0.2536  0.0181
30604W        W46738   4.339  15.112   1.046  0.1105  0.1142  0.3115
30605W        W46739  14.979   9.755  13.940 -0.0030  0.1993  0.1435
30606W        W46740  15.161   7.589  14.855  0.0141 -0.1397 -0.1344
30607W        W46741  18.206  13.095  13.074  0.1056 -0.0875  0.0027
30608W        W46742  15.330   3.707   3.843  0.1345 -0.0160 -0.0936
30609W        W46743  16.449   4.106   1.521 -0.3661  0.0259 -0.4710
30610W        W46744  18.010  18.175  13.741 -0.0854 -0.0044 -0.2606
30611W        W46745   1.911   7.573   0.890  0.0718  0.0102 -0.3503
30612W        W46746   4.369   8.271  10.688 -0.3098  0.2113  0.1039
30613W        W46747   9.694  15.825  10.645  0.0884  0.1385  0.0068
30614W        W46748  12.732   9.431  13.897 -0.1382 -0.5402 -0.1948
30615W        W46749   5.141  18.234   1.189 -0.3161  0.2498  0.1158
30616W        W46750  14.946   9.219   0.615  0.0736 -0.2167 -0.1698
30617W        W46751  14.971  15.720   3.681  0.2836  0.0538  0.1062
30618W        W46752   1.655   5.284  13.530  0.2601 -0.0676 -0.0204
30619W        W46753   7.227  17.121   0.356 -0.1279  0.3936 -0.3974
30620W        W46754   7.284  16.195  12.872 -0.1262 -0.0546 -0.0698
30621W        W46755   0.402  11.496   5.711  0.3747  0.1231  0.2382
30622W        W46756  12.689   1.852  10.377 -0.1890  0.1999 -0.4343
30623W        W46757   4.098   7.754   1.950  0.0067 -0.0609  0.0183
30624W        W46758  14.950   6.530   5.104  0.0984 -0.2262 -0.2330
30625W        W46759  16.270   1.986  12.161 -0.0458  0.2879 -0.0393
30626W        W46760  17.576   6.164   4.809  0.0146  0.1818  0.0745
30627W        W46761  11.624   9.594  14.279  0.0314 -0.2098 -0.1108
30628W        W46762   2.109  12.749   2.688  0.1154 -0.1053 -0.2597
30629W        W46763   9.914  10.178   3.551 -0.2033  0.0464 -0.4342
30630W        W46764  15.030   4.040   5.434  0.0849 -0.0377 -0.0302
30631W        W46765  13.273   4.148  10.921  0.1849  0.0986  0.2329
30632W        W46766  14.579   5.320   4.046 -0.2134  0.0465  0.4106
30633W        W46767  11.880  16.771  11.373  0.2808 -0.3408 -0.3108
30634W        W46768  12.107  15.174   5.266  0.1069 -0.0165  0.1196
30635W        W46769  18.562  13.516   0.151 -0.1146  0.0316  0.0102
30636W        W46770  10.106   6.703   3.312 -0.0289 -0.0761  0.2992
30637W        W46771   6.163  15.313   3.143  0.1350  0.2661 -0.0728
30638W        W46772  12.696  12.797  10.761  0.2280  0.0194  0.3865
30639W        W46773   1.046   7.331  10.757  0.3242  0.0024 -0.3422
30640W        W46774  17.378  18.144  14.130 -0.0485 -0.0761  0.0784
30641W        W46775   8.464   8.418  11.952  0.2450 -0.0882 -0.1452
30642W        W46776   2.786   5.254   3.273  0.1181  0.1077 -0.4248
30643W        W46777  11.411   9.925   0.945 -0.0229  0.0956 -0.2729
30644W        W46778   8.127  18.628  12.441  0.0714  0.4245  0.1938
30645W        W46779  17.555   9.118   0.845 -0.2223  0.0434 -0.0373
30646W        W46780   6.173  10.431   4.982  0.1386 -0.0173 -0.2059
30647W        W46781  12.577  10.465  12.907 -0.3017  0.0409  0.0014
30648W        W46782   3.969  10.539  11.642 -0.0676 -0.1582 -0.1854
30649W        W46783  15.416  10.169   4.725 -0.0806  0.1279 -0.3282
30650W        W46784  11.275  10.122   4.244  0.1521  0.3311 -0.0030
30651W        W46785  18.363   0.466   1.473 -0.1517  0.0651  0.0876
30652W        W46786   8.100  18.630   0.426  0.1726  0.3417  0.2195
30653W        W46787   0.820  10.216   2.602 -0.2479 -0.3788  0.1451
30654W        W46788  12.637  11.791  15.073  0.1480  0.2033  0.1184
30655W        W46789   9.622   7.566  11.572 -0.1402  0.1033 -0.1371
30656W        W46790   5.227   7.817   2.298 -0.2613 -0.0976  0.0639
30657W        W46791   6.043  16.631   2.563  0.0511  0.3103 -0.1112
30658W        W46792  12.160  10.357  15.107 -0.2463 -0.2198  0.1588
30659W        W46793  12.184   7.504   4.897 -0.1311 -0.0492  0.1852
30660W        W46794  16.464  16.595   3.103  0.2336 -0.0981  0.1739
30661W        W46795   7.324  11.605   9.717  0.1477  0.0744  0.0088
30662W        W46796   8.993   6.835   4.727 -0.2698  0.0052 -0.3112
30663W        W46797   4.993  11.829  15.157  0.3451  0.1022  0.1688
30664W        W46798  13.598  15.022   0.161  0.1771 -0.1502 -0.0602
30665W        W46799  10.978  10.554  12.094  0.0017 -0.0968 -0.0108
30666W        W46800  16.847   6.436   3.316  0.3065 -0.0820 -0.3541
30667W        W46801   4.495   2.658   4.539  0.1758 -0.0657 -0.0146
30668W        W46802   7.401  15.623   5.357 -0.0446 -0.0029  0.1287
30669W        W46803  15.010   3.724  13.685 -0.1787 -0.0370 -0.1783
30670W        W46804   2.546  15.834   2.038 -0.1742 -0.2372  0.1647
30671W        W46805  10.428  15.091  12.196  0.0024 -0.1071 -0.1283
30672W        W46806   1.325   2.838  11.254 -0.1279 -0.2500 -0.1204
30673W        W46807  13.807   7.938   0.668  0.1378 -0.1042 -0.0480
30674W        W46808  14.643  13.187  11.012 -0.2369  0.2173 -0.0731
30675W        W46809  18.472  18.189  11.854  0.2689 -0.0138 -0.1186
30676W        W46810  15.620  12.015  12.340 -0.0058 -0.0254  0.0786
30677W        W46811  15.880  14.105  12.838  0.0988  0.1843  0.2212
30678W        W46812   3.293   1.907   5.588  0.1147  0.1324  0.0366
30679W        W46813   1.987   1.833  13.426 -0.2819  0.1684 -0.1377
30680W        W46814   3.966   6.612  12.313  0.2521 -0.1556  0.0673
30681W        W46815   7.652  15.160  12.281 -0.1922  0.1315 -0.3035
30682W        W46816   7.821  15.263   1.247 -0.0510 -0.0076  0.1568
30683W        W46817   1.194   4.603  13.354 -0.3133  0.3310 -0.0599
30684W        W46818   7.539  14.927   2.922  0.0762 -0.1948 -0.1233
30685W        W46819   6.034   2.845   1.936  0.0204 -0.1309 -0.1664
30686W        W46820  18.636   2.573   0.660  0.1990 -0.1393 -0.1590
30687W        W46821   2.014  11.676   3.654 -0.0932 -0.2208 -0.0048
30688W        W46822   2.171  12.458   3.100 -0.0475 -0.0081 -0.2150
30689W        W46823  10.049  18.317   1.529  0.1873  0.2321 -0.1302
30690W        W46824  16.469   6.269   0.774 -0.2900 -0.2696 -0.0208
30691W        W46825  16.531   6.672   3.652 -0.0934  0.1950 -0.2822
30692W        W46826   5.607  16.094   2.510 -0.0747 -0.1409  0.1606
30693W        W46827  16.337  13.566   1.739 -0.2005  0.1040 -0.1917
30694W        W46828   1.796  13.354  11.770  0.1217  0.4641 -0.0691
30695W        W46829  15.180   1.429   3.959 -0.1639 -0.1150 -0.0202
30696W        W46830  16.609   9.711   1.244 -0.1820  0.0478 -0.2456
30697W        W46831   2.676   7.166  11.754 -0.2159 -0.0392  0.3596
30698W        W46832   1.161  11.624  11.876 -0.1142  0.0572 -0.3119
30699W        W46833   2.462   5.841   3.470 -0.1012  0.1945  0.3472
30700W        W46834   6.048   8.809   2.591 -0.2653 -0.1222  0.1165
30701W        W46835  18.302   8.681   0.375 -0.3278 -0.3356  0.1557
30702W        W46836   5.689   8.441  12.206  0.3039  0.0674 -0.1852
30703W        W46837  10.977   5.050   2.480 -0.0162 -0.4032  0.4221
30704W        W46838  18.555   8.072  10.623  0.2062  0.2222  0.0065
30705W        W46839   9.853  12.556   1.686  0.2323 -0.1281 -0.2343
30706W        W46840   5.070   9.200   1.877  0.2099 -0.0105 -0.0348
30707W        W46841   6.020  14.344   4.360 -0.1429  0.1417  0.3337
30708W        W46842  18.967  11.934   0.728  0.4210  0.1621  0.0917
30709W        W46843  10.643  10.551   3.843 -0.0129 -0.0886 -0.1214
30710W        W46844   5.131   7.121   2.890  0.0026  0.2680  0.2952
30711W        W46845   4.208   4.341   9.992 -0.0415  0.0339  0.1116
30712W        W46846  17.357  13.169  11.469  0.1438 -0.0119 -0.0599
30713W        W46847  15.845  14.512  10.762  0.0782  0.1854  0.2110
30714W        W46848  12.866  17.999   0.222  0.0631 -0.0406  0.3507
30715W        W46849  13.454   9.086  12.179 -0.1429 -0.2731 -0.1255
30716W        W46850   5.163   9.707  11.669  0.1420  0.1395  0.0410
30717W        W46851   8.488  15.629  14.900  0.1242 -0.3205  0.1983
30718W        W46852   9.024  10.614   0.806 -0.0270  0.1099 -0.1271
30719W        W46853   8.987   7.055   0.731 -0.0592 -0.1442 -0.2006
30720W        W46854  16.620  14.187   4.695  0.1883 -0.1151 -0.1129
30721W        W46855  12.851  16.282  11.431 -0.0272  0.2544  0.0367
30722W        W46856   2.045  13.521  12.258  0.3564  0.1606 -0.0218
30723W        W46857  12.031  18.514   4.700  0.2309 -0.1529 -0.0258
30724W        W46858   7.002  17.147  13.232 -0.0258  0.2283 -0.4030
30725W        W46859  17.745  10.527  11.231  0.3739 -0.2780 -0.3220
30726W        W46860  10.341  17.497   1.546  0.0721  0.0783 -0.3181
30727W        W46861   6.664   0.278   1.268 -0.0915  0.0053 -0.1838
30728W        W46862  17.398   1.308  10.503 -0.1376 -0.1995 -0.3141
30729W        W46863  15.008  17.764   4.396  0.0864 -0.2412  0.0286
30730W        W46864   1.093   0.871   2.711 -0.3255  0.0439 -0.0403
30731W        W46865  14.362   1.233   2.691 -0.0208 -0.1096  0.0190
30732W        W46866  15.807   2.042   1.060  0.4710  0.1177  0.0143
30733W        W46867  17.996  14.823   3.345 -0.0352  0.0707  0.0445
30734W        W46868   4.022  14.288   3.257 -0.0586  0.1711  0.0340
30735W        W46869   4.393   7.815  11.474 -0.0691 -0.1855  0.3375
30736W        W46870   2.309  11.234  11.470  0.3320 -0.1177 -0.0380
30737W        W46871   7.359   1.664  15.114  0.4043 -0.1787 -0.1339
30738W        W46872  12.112  11.016   3.172 -0.0434 -0.0952  0.2049
30739W        W46873  13.585  12.898   0.001 -0.4098  0.0857  0.2239
30740W        W46874  14.521  16.545   3.185  0.0516 -0.2378  0.0151
30741W        W46875   8.632   3.467  12.971  0.0726  0.1350 -0.1739
30742W        W46876   8.471  11.009  13.481  0.1017  0.1975 -0.0817
30743W        W46877   0.654  12.935   1.748 -0.3057 -0.0129  0.1804
30744W        W46878  10.931  10.969  10.562  0.2104  0.0015 -0.2194
30745W        W46879  14.547  18.488  12.528 -0.3364  0.0028 -0.0469
30746W        W46880   1.448  17.366  14.281 -0.1403  0.2052 -0.1623
30747W        W46881  17.860  15.800  14.809  0.0003 -0.2466 -0.0349
30748W        W46882  17.955   6.463  11.965  0.0987  0.1745  0.3180
30749W        W46883  11.517  18.992   4.008 -0.0021 -0.1883 -0.0697
30750W        W46884  13.104   9.930   4.616  0.0292 -0.0445 -0.0508
30751W        W46885  18.175   9.838  10.360  0.0682 -0.0724 -0.0294
30752W        W46886   0.837   8.964   9.999 -0.1285  0.1077  0.2253
30753W        W46887  11.647  15.312  11.410 -0.0357  0.3058  0.0010
30754W        W46888  10.032  14.958   1.025  0.2010  0.1250  0.2262
30755W        W46889   7.183  11.985  14.287  0.4289 -0.2684 -0.0361
30756W        W46890   1.028  15.463  14.751 -0.0514  0.0204  0.1727
30757W        W46891   7.350   5.747  14.029 -0.1219 -0.1687  0.2485
30758W        W46892  16.763   2.926   0.876 -0.3326 -0.1495 -0.1342
30759W        W46893   7.209   8.402   2.524 -0.1531 -0.3062  0.0244
30760W        W46894   6.378  17.963  11.147  0.2867  0.0036 -0.1761
30761W        W46895   4.380   6.977  14.236 -0.1561  0.0479 -0.1528
30762W        W46896   1.637  17.133   2.027  0.1925 -0.2089  0.0536
30763W        W46897  10.141   2.915  12.691  0.1417 -0.0448  0.0219
30764W        W46898  15.718  14.997   2.351  0.0447  0.0577  0.3014
30765W        W46899   2.159  15.301  12.767 -0.0977  0.2795 -0.0057
30766W        W46900  15.680  15.209   0.804 -0.0671  0.2959 -0.0983
30767W        W46901   4.469   3.332  13.140 -0.0332 -0.0427 -0.2205
30768W        W46902   3.098   7.036   4.051 -0.0649  0.0160  0.2612
30769W        W46903  12.364   1.426  11.681  0.0810  0.3415  0.0106
30770W        W46904  11.119  18.617  13.936 -0.2272 -0.1508 -0.1863
30771W        W46905   7.150  16.863   5.030 -0.1048 -0.1521 -0.1669
30772W        W46906   2.004   4.013   1.012 -0.2233  0.6187 -0.5000
30773W        W46907   9.021   9.070   4.221 -0.1450 -0.0557 -0.0337
30774W        W46908  19.108  18.681   0.677  0.0876 -0.0017 -0.0735
30775W        W46909   4.843   4.506  13.989  0.2022  0.0920  0.1555
30776W        W46910  13.312   0.712  14.921 -0.1686 -0.2531 -0.0135
30777W        W46911  12.706   9.192  10.908 -0.1295  0.1815  0.2632
30778W        W46912   6.603   6.879   1.541  0.0125  0.0486 -0.0113
30779W        W46913   1.409  14.423   4.044 -0.1941  0.1237  0.0366
30780W        W46914   0.118   8.452   2.452 -0.0654 -0.1247  0.0961
30781W        W46915   6.192  14.720   1.414  0.4290  0.0765  0.0151
30782W        W46916  15.054  12.956   2.662 -0.0273 -0.0779 -0.0718
30783W        W46917   7.990  10.095   3.235 -0.0422 -0.1122  0.0666
30784W        W46918  16.976   5.841  11.903  0.1473  0.3093  0.0135
30785W        W46919  14.785  18.654  14.138 -0.0150 -0.0052 -0.1917
30786W        W46920   5.339   0.040   9.415 -0.1571 -0.2163  0.3126
30787W        W46921   3.117   8.612   3.710 -0.1327  0.2799  0.1707
30788W        W46922  10.345   8.058  10.420  0.1628  0.0876 -0.0354
30789W        W46923  12.384  13.561  10.322  0.3201  0.0649  0.3788
30790W        W46924   2.182  18.441  14.029 -0.0604  0.1627 -0.4673
30791W        W46925   6.287  15.459  13.080 -0.1477  0.0538  0.2168
30792W        W46926   8.632  18.420   4.468 -0.3319 -0.4468 -0.0191
30793W        W46927  10.349  17.108  13.661 -0.0643 -0.1119  0.1293
30794W        W46928  15.263   9.535  12.789 -0.2765  0.1296  0.0777
30795W        W46929  17.659  12.877  10.354  0.1494 -0.3328  0.0065
30796W        W46930   6.438  17.154  11.460 -0.1379  0.1206 -0.0201
30797W        W46931  14.816  12.344  11.990  0.0782 -0.0406 -0.0383
30798W        W46932  16.157   8.117   4.728 -0.1822  0.2275 -0.0728
30799W        W46933   6.085   5.800  11.475  0.0334 -0.2030  0.2872
30800W        W46934   0.259  19.028   2.797 -0.2837  0.1186 -0.1194
30801W        W46935  12.738   8.156   1.560  0.0842  0.0874 -0.2237
30802W        W46936  18.938   3.609  10.395  0.3446  0.3259  0.1581
30803W        W46937  18.491   7.313   3.018  0.1139  0.1233  0.2163
30804W        W46938  16.452  12.488   1.826  0.1895  0.2734  0.3588
30805W        W46939  10.692   1.350  10.712  0.0281  0.2399 -0.1675
30806W        W46940   6.771  13.956   5.799 -0.0425  0.0714  0.0158
30807W        W46941  12.379  15.213  12.125 -0.3753  0.0034 -0.0066
30808W        W46942  12.329  18.050  10.377 -0.0338 -0.1156  0.0262
30809W        W46943   1.695  16.127   1.712 -0.2511 -0.2111 -0.0935
30810W        W46944  16.239   6.271   1.476 -0.2111 -0.0148 -0.2072
30811W        W46945   0.416  10.811   3.264  0.1693  0.0888 -0.1495
30812W        W46946   9.066  11.321   0.842 -0.0744  0.1230  0.0528
30813W        W46947   9.114  18.558   1.789  0.0182 -0.0937  0.0234
30814W        W46948  18.240  11.651   0.193 -0.0104  0.3024  0.1429
30815W        W46949   0.582   8.076  14.284  0.0283  0.1229 -0.0507
30816W        W46950   2.328   7.795  10.634  0.1083 -0.0688 -0.1280
30817W        W46951  11.443  10.327  12.218 -0.0833  0.2205  0.2377
30818W        W46952   2.345   7.504  14.308  0.0070  0.1353  0.0821
30819W        W46953   4.938   2.525  11.823 -0.0804  0.0166  0.0722
30820W        W46954   0.645   5.798   3.226  0.0580  0.2189 -0.1052
30821W        W46955  17.129  11.664   0.858  0.0069 -0.2487 -0.3359
30822W        W46956  15.793   9.295  11.711 -0.0052  0.4543 -0.0980
30823W        W46957   8.584   3.442  14.222  0.2037 -0.2793 -0.1242
30824W        W46958  14.063  15.430   1.886 -0.0828  0.0088  0.1553
30825W        W46959   2.602  14.964  14.007 -0.3802 -0.1043  0.2417
30826W        W46960   4.547  15.756  14.854  0.2328 -0.4317  0.2959
30827W        W46961   5.348  17.810  11.999  0.0596 -0.0223 -0.4147
30828W        W46962   0.559  12.718   2.588 -0.0776  0.2646 -0.1070
30829W        W46963   1.328  11.342  11.420 -0.2386 -0.4761  0.2766
30830W        W46964   2.784   0.090  12.299  0.0340  0.1186 -0.1700
30831W        W46965   6.955   1.194   1.111  0.2995 -0.3142  0.1667
30832W        W46966   2.586   8.204  14.675 -0.3171 -0.1582  0.2211
30833W        W46967   1.417   1.276  13.661  0.3719 -0.1678 -0.1694
30834W        W46968  17.698  10.111  15.064 -0.1374 -0.0071 -0.1310
30835W        W46969  15.435  19.139  11.712  0.0352  0.2191  0.0832
30836W        W46970   2.850   3.111  11.007  0.1609  0.4352 -0.0587
30837W        W46971   3.715  14.349  12.093 -0.0419  0.1388 -0.3643
30838W        W46972   3.641  14.012   2.236 -0.1911 -0.1754 -0.3493
30839W        W46973  12.450  11.969   2.632  0.2133 -0.1562 -0.0619
30840W        W46974  12.228  15.486  11.621 -0.0230 -0.1484  0.0807
30841W        W46975   4.574   1.977  12.897 -0.2892 -0.0416 -0.1038
30842W        W46976   5.959   6.197  13.058 -0.0815  0.1030  0.2418
30843W        W46977  14.164  11.519   3.634  0.1662  0.0986  0.1593
30844W        W46978  13.553  16.375   3.988 -0.3659 -0.3982  0.2127
30845W        W46979   6.860  14.735  11.300  0.0322 -0.0234  0.1763
30846W        W46980  16.105  15.692   2.587 -0.2653  0.2166  0.1308
30847W        W46981   7.029  13.514   3.926  0.2355  0.1088 -0.5981
30848W        W46982  18.581  12.193  12.086  0.1058 -0.2012  0.2185
30849W        W46983  13.235  13.530  10.660  0.2555 -0.2087  0.0253
30850W        W46984   7.192   1.479  12.904 -0.1468 -0.0623 -0.1843
30851W        W46985   3.730  16.909  12.381 -0.0507 -0.3084 -0.0048
30852W        W46986   1.982  16.855  14.708 -0.1739  0.0794  0.0363
30853W        W46987  16.202  13.100   4.671  0.3208  0.0645  0.0602
30854W        W46988  10.931   4.156  12.632  0.1611  0.0060  0.1407
30855W        W46989  13.932  15.445  12.675 -0.2068 -0.5733  0.4402
30856W        W46990  15.231  17.267  11.202  0.0646 -0.1756 -0.0054
30857W        W46991   3.069  11.389  11.955  0.0967  0.3398  0.0960
30858W        W46992  13.853   7.569  11.775 -0.1832  0.2976  0.0671
30859W        W46993   3.856  17.138  11.958 -0.2082  0.0733 -0.2244
30860W        W46994   1.909  14.419  11.136  0.1957 -0.1669  0.1035
30861W        W46995   2.424   8.838   1.145 -0.0718 -0.2927  0.0028
30862W        W46996   6.510  14.928   0.313 -0.0149 -0.2382  0.1665
30863W        W46997   8.264   1.774  11.439  0.0839 -0.1058 -0.3158
30864W        W46998  16.185  11.532  11.272  0.1508  0.0939 -0.0899
30865W        W46999   6.206   2.514   3.450 -0.2417  0.0072  0.0381
30866W        W47000  11.709   4.763  12.561 -0.0010  0.0066 -0.0186
30867W        W47001   3.706  12.515  11.711  0.0556 -0.1355  0.0513
30868W        W47002   2.243  11.465   0.253 -0.2595  0.0375  0.0447
30869W        W47003   8.596   0.196   3.390  0.0468  0.4618  0.3694
30870W        W47004   8.847   1.264  10.267 -0.2158  0.2878 -0.3291
30871W        W47005   6.767  11.028  12.805  0.2551  0.0432 -0.2319
30872W        W47006   9.297  18.802   4.013  0.1095 -0.0537 -0.0476
30873W        W47007   6.456   4.384   2.614  0.0678 -0.3920 -0.0145
30874W        W47008   2.889  17.381  12.392  0.3068 -0.1802  0.1536
30875W        W47009  16.350  12.590  13.197 -0.1721 -0.3774 -0.1585
30876W        W47010  12.997   6.320  13.441 -0.1803  0.2680 -0.2471
30877W        W47011  18.204  12.442   4.192 -0.1985  0.2399 -0.0848
30878W        W47012  13.439   7.720  13.412 -0.0524 -0.1344 -0.0392
30879W        W47013   3.698  17.242  14.205  0.1591  0.0981  0.0677
30880W        W47014   3.243  10.038   0.940 -0.0558  0.3569 -0.1763
30881W        W47015  16.775  18.411  13.275  0.1388  0.1319 -0.2944
30882W        W47016   7.097   1.588  14.156 -0.0653  0.0316  0.2176
30883W        W47017   9.175   5.594  13.288 -0.0967 -0.1935  0.2388
30884W        W47018  16.309   2.264   5.439  0.0442 -0.0317 -0.3010
30885W        W47019   0.053  16.393  10.510 -0.0987  0.0372 -0.2523
30886W        W47020   7.973   5.532   3.200 -0.1008  0.1930  0.2685
30887W        W47021  14.784   2.731   3.798  0.0036 -0.0580 -0.2350
30888W        W47022   1.220   2.574   4.691 -0.0407  0.0139 -0.2228
30889W        W47023   6.158   7.305  14.901 -0.2932 -0.3272 -0.0623
30890W        W47024  19.137  10.703  10.063 -0.0116  0.0721  0.0600
30891W        W47025   8.813  18.673   2.214 -0.4408  0.4843 -0.0397
30892W        W47026  16.446  15.956   5.132  0.2057  0.0739 -0.2321
30893W        W47027  13.344  18.299   2.490  0.1491 -0.2368 -0.0896
30894W        W47028   7.537   1.307   5.287  0.1552  0.3909  0.0004
30895W        W47029   2.210  12.639   0.910 -0.1727  0.1599  0.0640
30896W        W47030   8.237  10.057   2.318  0.1389  0.0535 -0.4155
30897W        W47031   3.627  12.706   2.664 -0.1674  0.1310  0.0189
30898W        W47032  16.271   3.720  11.829  0.0652 -0.0315 -0.1026
30899W        W47033  10.916   1.810   3.226  0.1170 -0.3108 -0.0271
30900W        W47034   3.916   0.436  11.748  0.3612 -0.1680 -0.0656
30901W        W47035   4.766   8.306   2.429  0.0180 -0.0404  0.0292
30902W        W47036   1.625   3.271   0.529  0.0094 -0.1308  0.1384
30903W        W47037   4.334   5.405   0.711 -0.1031  0.2126  0.0092
30904W        W47038  16.023  10.836   0.871 -0.0661  0.0112 -0.1917
30905W        W47039  16.847  12.114   1.183  0.1985  0.0126  0.0356
30906W        W47040  13.587   5.529  15.114  0.2247 -0.0773  0.2703
30907W        W47041   7.217   9.997   3.400 -0.1580  0.2222 -0.2766
30908W        W47042  18.768  14.011   0.837  0.1135 -0.1824 -0.0786
30909W        W47043  11.752  12.088   4.737 -0.0193 -0.0962 -0.1613
30910W        W47044  10.576   1.201  13.109 -0.4602 -0.1022 -0.0130
30911W        W47045  11.418   5.845   2.529 -0.0790 -0.1211  0.1517
30912W        W47046   4.242   6.473  14.894 -0.1209  0.0894 -0.0112
30913W        W47047  16.345   6.698  13.610 -0.0207  0.4154  0.1029
30914W        W47048   2.229  11.381  14.958  0.0978  0.2903 -0.3209
30915W        W47049  13.491   5.205  14.694  0.0286  0.0468 -0.2083
30916W        W47050  16.725  18.540  12.370 -0.1170  0.2576 -0.0741
30917W        W47051  15.217  17.899  14.999 -0.3319  0.0089  0.1888
30918W        W47052   3.280  14.170  11.747  0.1985 -0.0886 -0.1457
30919W        W47053   8.236   9.088  12.757  0.0192  0.2932 -0.0662
30920W        W47054  15.226   8.199   0.212 -0.2572 -0.1620  0.0466
30921W        W47055   7.874   8.665   1.150  0.1342  0.0487 -0.3905
30922W        W47056   4.961  11.107  12.243 -0.1410 -0.2588 -0.2865
30923W        W47057   8.730   9.208   2.898  0.0758  0.1410  0.1335
30924W        W47058  13.646   3.110   4.598 -0.0390  0.0484  0.0088
30925W        W47059  16.416   5.186   2.351 -0.1694 -0.2512 -0.0278
30926W        W47060   3.733   9.479  14.191  0.0254 -0.4018 -0.0520
30927W        W47061  10.743   2.942   1.009  0.1183  0.1509 -0.1033
30928W        W47062  11.313  14.994   0.092  0.1889  0.0955 -0.0873
30929W        W47063  10.386  19.129   2.772 -0.0527 -0.0564 -0.1617
30930W        W47064  14.338   1.575   3.914 -0.4481  0.4144 -0.0044
30931W        W47065  13.136   9.633   3.755  0.1212 -0.0887 -0.4189
30932W        W47066   3.060   4.017  12.425  0.0157 -0.0512  0.0021
30933W        W47067  13.471  12.802   4.444  0.0743 -0.1934 -0.1223
30934W        W47068  12.643  16.150  14.511 -0.0109  0.0309 -0.2187
30935W        W47069   8.523  12.726   1.471 -0.1086 -0.0748  0.2685
30936W        W47070  14.670   3.326  12.454  0.1265  0.1729  0.0340
30937W        W47071  11.887   1.059   1.290 -0.0973  0.0727 -0.1850
30938W        W47072  11.041   7.106   4.214 -0.0231 -0.0851  0.0379
30939W        W47073  17.878   9.317   1.261 -0.0328 -0.0486  0.2567
30940W        W47074   0.898  10.287  10.283  0.1978 -0.1871  0.1300
30941W        W47075  17.465  14.933   1.140  0.0814 -0.3316 -0.0313
30942W        W47076  18.784  15.603   5.575  0.1390  0.0277  0.0748
30943W        W47077   7.056  19.067   3.565 -0.2233 -0.1315 -0.2950
30944W        W47078  11.504   5.302  11.177 -0.2625  0.2739  0.3813
30945W        W47079  13.921   9.442  11.066  0.1764 -0.2617  0.2443
30946W        W47080  14.128   5.893   3.476 -0.1492  0.0025 -0.1105
30947W        W47081   9.398   7.867  12.799 -0.0608  0.2659 -0.4596
30948W        W47082   0.772   3.297  10.539  0.0313  0.0780 -0.1217
30949W        W47083   1.388   6.042  10.380 -0.0496  0.1937 -0.1169
30950W        W47084  15.445  10.227  10.274  0.0013 -0.2228  0.0932
30951W        W47085  10.161   0.196   0.761 -0.0612 -0.2177 -0.0643
30952W        W47086  11.190  16.686   5.480 -0.1865  0.0252  0.0621
30953W        W47087   3.280  13.533  14.762 -0.0177  0.1386 -0.1235
30954W        W47088   4.520   8.709  10.471  0.0856  0.1078  0.0467
30955W        W47089  17.750  12.475  10.704 -0.0669  0.1082  0.0558
30956W        W47090  10.379  11.064  12.718 -0.0834 -0.1572  0.1890
30957W        W47091   9.524  17.603  11.673  0.0652 -0.1026 -0.1947
30958W        W47092   8.194   4.300  10.800  0.1400  0.0806 -0.3928
30959W        W47093   9.894   6.911   1.630  0.1379  0.1904  0.2290
30960W        W47094   4.663   9.529  13.117 -0.0786  0.2034 -0.0637
30961W        W47095   8.811   0.003  14.147 -0.2706 -0.0732 -0.0026
30962W        W47096  17.574   2.273   4.223  0.1068  0.2229 -0.2606
30963W        W47097  16.039  18.776   0.715 -0.0229  0.1325 -0.0276
30964W        W47098   2.321  12.997  11.021 -0.3052 -0.1215 -0.4155
30965W        W47099   8.244  16.247   5.783  0.2208  0.1190  0.0734
30966W        W47100   4.508   9.446   1.091 -0.2325 -0.0857 -0.0350
30967W        W47101  11.347   5.956  12.087 -0.0449  0.0196 -0.1629
30968W        W47102   1.524  17.360   0.582  0.0956  0.1612  0.2717
30969W        W47103  14.079   2.045  15.050 -0.1052 -0.2263  0.1477
30970W        W47104  10.414   3.792  15.125  0.2162 -0.0579  0.1612
30971W        W47105   2.408   8.112  13.392  0.3884  0.1809 -0.0313
30972W        W47106  15.922   3.616   0.833  0.0519 -0.1410 -0.0338
30973W        W47107  18.359   7.017   9.729  0.2239 -0.2398  0.1460
30974W        W47108   7.588  11.476   3.410  0.2655 -0.0075 -0.1014
30975W        W47109  14.315   1.044   0.490  0.0564 -0.1268 -0.1662
30976W        W47110  12.834   5.341   2.190 -0.2311 -0.0308  0.1197
30977W        W47111  18.973   8.745   4.877 -0.1682  0.4169  0.0526
30978W        W47112   3.148   1.361  13.579 -0.0320  0.0278 -0.1197
30979W        W47113   9.211  16.455  11.741  0.3441 -0.0145 -0.2319
30980W        W47114   0.789  11.304   2.372 -0.2974 -0.3236  0.0002
30981W        W47115  10.419  11.552   5.738  0.1708 -0.0976  0.0685
30982W        W47116   7.436  11.396   0.661  0.1999 -0.1189 -0.0741
30983W        W47117  11.293   3.212   4.836  0.0421  0.0198 -0.2633
30984W        W47118   5.235   5.853   2.346  0.0267  0.1979  0.0952
30985W        W47119  15.808  15.921  11.611  0.0537  0.2120  0.0805
30986W        W47120   2.758  12.842   2.390 -0.1708  0.0066  0.6085
30987W        W47121   9.370   6.831   5.197 -0.1307 -0.0917  0.0512
30988W        W47122  17.474  16.111  14.657 -0.0847 -0.1056 -0.0905
30989W        W47123   9.565  10.979  11.759 -0.1307 -0.0379  0.0451
30990W        W47124  17.493  13.187   0.372  0.0085  0.2328 -0.0518
30991W        W47125  11.541  16.374   4.565 -0.0014  0.0897 -0.0197
30992W        W47126   0.246   7.960   1.569 -0.2557 -0.5770 -0.3040
30993W        W47127  14.200   0.408  10.468  0.2624 -0.1078  0.1011
30994W        W47128  11.286   1.452   2.063  0.0962  0.2714  0.0296
30995W        W47129   1.816  18.614  12.915  0.0692  0.1426  0.0844
30996W        W47130   0.628   5.215  14.077  0.1153 -0.4150  0.1969
30997W        W47131  10.784  14.791   2.786  0.0611  0.0697 -0.0342
30998W        W47132  17.182   6.333  13.240  0.0137 -0.2523 -0.0656
30999W        W47133   4.127  16.696   3.060 -0.0181 -0.0589 -0.0764
31000W        W47134  11.605   3.146  11.138 -0.1587 -0.2935 -0.4157
31001W        W47135   9.763  13.367  10.796 -0.4658 -0.0079 -0.0448
31002W        W47136   2.764   3.797  11.374 -0.1214 -0.1902  0.0670
31003W        W47137   6.238   3.281  13.022 -0.3869  0.2305 -0.1845
31004W        W47138   8.088  15.742  12.851 -0.1143  0.0308 -0.4207
31005W        W47139  17.310   2.718   4.060 -0.1268  0.3263  0.1549
31006W        W47140   1.488   3.436   0.049 -0.0781 -0.2600 -0.2309
31007W        W47141   1.525   6.542   2.607 -0.1391  0.4036 -0.1729
31008W        W47142  17.511   6.825   5.210 -0.0677 -0.0542 -0.0925
31009W        W47143   5.954  16.718  12.403 -0.1335 -0.2710 -0.0896
31010W        W47144   6.503   8.904  10.714  0.0143  0.0343 -0.3417
31011W        W47145  14.078  17.228  12.095  0.2470 -0.4492 -0.3147
31012W        W47146   9.693   9.395  10.866  0.0150  0.2620  0.1257
31013W        W47147   3.479  15.806  12.465  0.1302  0.1937  0.0620
31014W        W47148   8.068   8.541  13.182 -0.1707  0.1043 -0.0294
31015W        W47149  16.254  12.809   5.174 -0.0580 -0.0338  0.1451
31016W        W47150  17.220  12.763   0.404 -0.0779  0.1344 -0.2281
31017W        W47151  16.196  10.385   0.012  0.1411 -0.0095  0.0496
31018W        W47152  14.760   1.696  14.011  0.3694 -0.2200  0.2721
31019W        W47153   3.534   2.015   2.599 -0.1490 -0.1183  0.3158
31020W        W47154   8.831  16.806   3.707  0.0362  0.1432  0.1396
31021W        W47155  16.432   1.050   2.728 -0.5151 -0.2050  0.1309
31022W        W47156   8.331   4.048  14.522  0.0623  0.2881 -0.2599
31023W        W47157   1.008   2.708   4.079 -0.4038 -0.0482 -0.0785
31024W        W47158   3.446   9.778  13.895  0.0383 -0.2736  0.3173
31025W        W47159  10.333   3.293  11.395  0.0465  0.1065  0.0183
31026W        W47160  16.261  16.537   4.239 -0.0101  0.1029 -0.0737
31027W        W47161   3.599   1.554   2.898 -0.2513  0.1506 -0.0884
31028W        W47162   6.248   3.920  14.247 -0.1579 -0.3094  0.0620
31029W        W47163   7.541  16.526  12.557  0.1283 -0.0789 -0.0145
31030W        W47164  16.303   5.537  10.163  0.0290  0.1297 -0.1289
31031W        W47165   9.966   9.788   5.328 -0.1760  0.1456  0.1719
31032W        W47166   6.840  13.056  14.902  0.2361  0.0233 -0.0523
31033W        W47167  13.734  11.036  12.275 -0.0068 -0.1670  0.0913
31034W        W47168  18.064   5.573   0.339 -0.0359  0.2001  0.1562
31035W        W47169  17.603   4.765  10.326  0.0871 -0.3711  0.3050
31036W        W47170   2.477   7.117  14.730 -0.1179 -0.0664 -0.1055
31037W        W47171   6.820   3.510  15.029 -0.2142 -0.0036  0.0618
31038W        W47172  16.072   3.100  11.196  0.0761  0.0846  0.0555
31039W        W47173  12.406  14.644  11.628  0.1173 -0.1052 -0.1508
31040W        W47174  16.022  12.259  10.179 -0.0912  0.1687  0.0351
31041W        W47175   2.176  11.549  12.009  0.2456 -0.1470 -0.0957
31042W        W47176   5.624   7.795  11.207 -0.1290  0.2808 -0.2130
31043W        W47177  18.007   2.288   4.020  0.0255  0.1133  0.1241
31044W        W47178  14.424  12.664   3.344 -0.1819 -0.0389  0.0097
31045W        W47179   1.169   5.928   0.743  0.0659 -0.0069 -0.0816
31046W        W47180   7.902   8.923  14.357  0.0245 -0.3228 -0.1552
31047W        W47181  12.622  18.959  12.672 -0.1960  0.0474 -0.0213
31048W        W47182   5.209   7.819   1.609  0.1347  0.0261  0.1165
31049W        W47183   1.094   6.631  13.844 -0.2751  0.0161 -0.0829
31050W        W47184  15.751   5.227   1.899 -0.2668  0.1087 -0.2044
31051W        W47185   9.556  13.336   3.759  0.0479 -0.1164  0.2466
31052W        W47186   1.258  17.503   3.498 -0.0364 -0.2381 -0.1588
31053W        W47187   3.983   1.205   2.681 -0.1179 -0.0075  0.1162
31054W        W47188   7.082  11.567  12.985  0.1040  0.0128 -0.4311
31055W        W47189  16.645   1.181  11.133  0.0111 -0.3236 -0.0398
31056W        W47190   7.116   8.644  12.363  0.0709  0.0854  0.0442
31057W        W47191  12.498  18.695   2.191 -0.1923  0.1083  0.3115
31058W        W47192  17.759   4.549  14.623 -0.2815 -0.2021 -0.1942
31059W        W47193  13.268  12.180  14.446 -0.0967  0.1986 -0.0784
31060W        W47194   4.210  15.491   1.319  0.2910 -0.0598  0.1820
31061W        W47195   2.464  18.566   0.092  0.0406 -0.1886  0.1464
31062W        W47196  11.479   8.727   1.411 -0.1796 -0.2105  0.0923
31063W        W47197   6.185  15.608   1.940  0.1703  0.0090  0.1896
31064W        W47198   9.193   9.594   1.149  0.3882 -0.1511 -0.1111
31065W        W47199   1.760   5.778  14.532 -0.2502  0.1832 -0.0851
31066W        W47200  13.874   0.762   0.174  0.1159  0.0069 -0.0421
31067W        W47201   7.221  13.965   4.157 -0.0585 -0.0952  0.1918
31068W        W47202   5.917   7.481  13.422 -0.2792 -0.0743  0.2934
31069W        W47203   0.555   5.816   5.048  0.2820 -0.1073  0.0555
31070W        W47204  10.081  12.438  14.576  0.1579 -0.1126  0.0502
31071W        W47205   3.901  18.333  14.015 -0.0945  0.0193 -0.3467
31072W        W47206  14.318   0.554   1.300  0.1635 -0.3652  0.2401
31073W        W47207  10.327  18.422  14.023 -0.0489 -0.0380  0.1148
31074W        W47208  18.466   4.507   3.405 -0.3993 -0.2310  0.2873
31075W        W47209   2.395   0.816   5.700 -0.3261 -0.0266 -0.0384
31076W        W47210  18.888   3.100   1.069 -0.0368 -0.1061 -0.0822
31077W        W47211   8.910   0.811   2.712 -0.0324  0.1509  0.0330
31078W        W47212  16.147   4.191   0.091  0.1977  0.0892  0.2457
31079W        W47213   3.445   5.997   5.249 -0.3301  0.0490 -0.0669
31080W        W47214  17.399  18.920   3.534 -0.2948  0.1589  0.0871
31081W        W47215   6.030  13.591   2.858  0.0746 -0.1022  0.0183
31082W        W47216   5.048   3.062  13.658 -0.1327  0.2073 -0.0440
31083W        W47217  15.682   4.368  15.179  0.0759 -0.1465  0.1251
31084W        W47218   2.497  16.340   4.809 -0.0636  0.0688 -0.0427
31085W        W47219  17.490   0.746  13.590  0.3317  0.1215  0.1972
31086W        W47220   8.447   7.697   1.402  0.5400  0.1810  0.1230
31087W        W47221   8.998   5.757  14.000  0.3668 -0.3453  0.2643
31088W        W47222   6.702   6.177   0.921 -0.4558  0.2857  0.2343
31089W        W47223   5.396  11.387   5.496  0.0403 -0.0684  0.4165
31090W        W47224  15.478  17.527  14.678 -0.1778  0.0761  0.0170
31091W        W47225  14.796   6.460   4.075  0.2100 -0.0848 -0.2302
31092W        W47226  18.452   1.295   0.964  0.0098 -0.1149  0.2653
31093W        W47227  17.531  13.932   0.994 -0.0873 -0.0410 -0.0850
31094W        W47228  18.222   5.423   1.233  0.1147 -0.4219 -0.3401
31095W        W47229  15.948   1.093  12.340 -0.0861 -0.0721  0.4699
31096W        W47230   9.339  18.411  12.726  0.0098 -0.3870 -0.2044
31097W        W47231  15.084  18.063   4.799 -0.1060  0.0123 -0.0691
31098W        W47232   7.240  16.943  10.900 -0.1179  0.3707  0.0244
31099W        W47233  10.269  14.379   3.515 -0.0552  0.2057 -0.2047
31100W        W47234   6.272  18.638  14.228 -0.0769  0.0998  0.0156
31101W        W47235  12.927   5.557  13.723 -0.0518 -0.0051 -0.1797
31102W        W47236   2.130   0.178  13.241  0.2090  0.5466 -0.0307
31103W        W47237  14.232  11.231   4.027 -0.0448  0.1266  0.1372
31104W        W47238   5.234  14.741   0.052  0.4548 -0.0359 -0.5111
31105W        W47239   4.292  10.922  13.824  0.3841  0.3126 -0.1091
31106W        W47240  19.127   1.816  13.386 -0.1753  0.0367 -0.0339
31107W        W47241  10.061  14.301   1.408  0.1498 -0.2789 -0.2020
31108W        W47242   3.213  17.802  11.497 -0.0288 -0.0466  0.2966
31109W        W47243  11.599  10.192   2.935 -0.0148  0.0015 -0.2327
31110W        W47244  16.983   6.528   3.777 -0.2082  0.4219 -0.1118
31111W        W47245   5.694  18.134   2.878  0.0576 -0.0922  0.3508
31112W        W47246  16.932  10.182   3.415 -0.1280  0.2980 -0.0976
31113W        W47247  18.611   7.177   1.817 -0.0531 -0.1129  0.0599
31114W        W47248   8.861  18.601   1.165  0.1081 -0.0917  0.1200
31115W        W47249  12.296   1.824  12.782  0.2089  0.0165  0.1892
31116W        W47250  13.935   9.447   2.870  0.0913 -0.0215 -0.0999
31117W        W47251  18.731   4.378  11.865 -0.0810 -0.0747  0.0065
31118W        W47252   8.665   0.542   5.642 -0.1021 -0.3964  0.3992
31119W        W47253   5.637  13.640  14.532 -0.0809  0.2610  0.1635
31120W        W47254   8.830  17.531  12.373 -0.4376  0.1054  0.0168
31121W        W47255   7.502   3.019  11.594  0.3053  0.2755  0.0312
31122W        W47256   1.308   7.373   3.161 -0.3555 -0.1989  0.2575
31123W        W47257  10.490  17.787   3.792  0.0291  0.0189  0.0034
31124W        W47258   9.795   1.451  15.129 -0.0291  0.2558  0.0424
31125W        W47259   4.612  14.550  12.285  0.0063  0.0041  0.2000
31126W        W47260  16.932   1.799   1.899  0.1127  0.1091  0.1392
31127W        W47261   2.260   5.305  13.788  0.1051 -0.1362 -0.1363
31128W        W47262   9.135  17.207   1.602 -0.1335  0.0718 -0.2799
31129W        W47263   6.124  19.109   2.077  0.1770 -0.2611  0.2197
31130W        W47264  14.489  14.579  10.714 -0.1897 -0.0106 -0.0414
31131W        W47265  13.576  11.739  11.444  0.1545 -0.0122 -0.0140
31132W        W47266   1.354   0.471   2.287  0.1412  0.2494 -0.0421
31133W        W47267   5.545  11.039   0.582 -0.0088  0.0637  0.2764
31134W        W47268  13.488   7.094  15.188  0.0535 -0.4353  0.2497
31135W        W47269  13.743   0.637   5.017 -0.4024 -0.1125  0.0819
31136W        W47270  16.013   9.157   0.954  0.2057  0.0797 -0.2740
31137W        W47271  11.850   1.901  11.160  0.2836 -0.1715 -0.1039
31138W        W47272  13.185   4.635   4.875 -0.1103 -0.2661  0.0811
31139W        W47273   9.002  10.323  11.386 -0.2276 -0.1645  0.0547
31140W        W47274   7.895  14.874  12.669  0.1093 -0.0928  0.2494
31141W        W47275  14.855  15.469  14.613  0.0764 -0.0462 -0.2709
31142W        W47276   6.385  17.579   0.865  0.0988  0.2129  0.0459
31143W        W47277   0.798  14.435  13.635 -0.2366 -0.1189 -0.0515
31144W        W47278  11.829  10.330   2.180 -0.0124  0.1441  0.1872
31145W        W47279   5.592   5.676   3.015  0.1437  0.3754 -0.1609
31146W        W47280   5.617  13.114   3.205 -0.1412  0.0412 -0.3726
31147W        W47281   9.616   4.413   0.637  0.0687 -0.1597  0.0810
31148W        W47282  12.628   9.981   2.571 -0.0400 -0.0719  0.0518
31149W        W47283   5.014   9.858   1.337  0.2305  0.0335  0.2429
31150W        W47284   1.584  16.747   3.995 -0.0667  0.0058 -0.0700
31151W        W47285   9.002   7.100  12.016 -0.2904  0.3574 -0.2301
31152W        W47286  14.025   1.847   0.975 -0.1162 -0.2085 -0.0973
31153W        W47287   9.338  11.612   1.141 -0.1961  0.0361  0.0018
31154W        W47288   8.916  11.268   3.736  0.3091  0.0326  0.2518
31155W        W47289   9.618   7.881  14.489 -0.1413 -0.2836  0.1230
31156W        W47290  10.847  12.184   1.042  0.4058  0.1793 -0.1500
31157W        W47291   4.552  17.443   4.697 -0.1110  0.1250 -0.2041
31158W        W47292   1.564  16.881  15.069 -0.1864 -0.0166 -0.3019
31159W        W47293   5.339  16.109   3.799 -0.1949 -0.1694  0.2638
31160W        W47294  13.037   8.922   4.810  0.4198  0.0511 -0.0929
31161W        W47295  16.505   9.329   0.879  0.2347 -0.1350 -0.1824
31162W        W47296   9.958  11.569   1.331  0.0518 -0.1401 -0.2263
31163W        W47297  16.526  13.706   3.167 -0.2215  0.3459 -0.2168
31164W        W47298  12.268  10.837  15.154 -0.2516 -0.1861 -0.2003
31165W        W47299  13.728  10.372  14.829 -0.1140  0.0645  0.0591
31166W        W47300  13.638  11.014   3.397  0.0453 -0.1879 -0.2485
31167W        W47301   4.798   8.245  13.015  0.4272 -0.1406 -0.1907
31168W        W47302   6.157  15.740  11.855 -0.5616 -0.2154  0.2219
31169W        W47303  17.125  15.743  13.505  0.2268  0.1892  0.1459
31170W        W47304   3.926   9.584  12.114 -0.0082 -0.1416  0.0223
31171W        W47305  10.373  15.782  12.751  0.2128  0.2393  0.1743
31172W        W47306   0.100   3.440  11.637  0.3122  0.0596  0.3708
31173W        W47307  14.217   3.167   5.331 -0.1750  0.2750 -0.1982
31174W        W47308  18.625  17.174  10.709  0.1399 -0.0538  0.0164
31175W        W47309  19.060  13.396  15.183  0.2102  0.2913  0.1488
31176W        W47310   9.107  11.880   5.708  0.0496  0.1023 -0.1010
31177W        W47311   9.583  13.884   2.193  0.3379  0.0822 -0.0230
31178W        W47312   5.411  11.460  12.165 -0.1105  0.0548 -0.0457
31179W        W47313   8.751   3.642  14.631  0.1234 -0.2415  0.1061
31180W        W47314   2.695  17.365  13.811 -0.3249  0.0695 -0.4884
31181W        W47315   2.251  12.815  13.130 -0.3442  0.0411  0.1856
31182W        W47316   5.753   1.305  12.604 -0.1754  0.0839  0.1213
31183W        W47317   6.628   5.961  10.005  0.1575 -0.3710 -0.1051
31184W        W47318  17.187  16.642   0.694  0.0459  0.4124  0.2846
31185W        W47319   9.750   4.599  14.490  0.1645  0.1664 -0.2020
31186W        W47320   0.809  15.403   0.007 -0.2729  0.1190  0.0856
31187W        W47321   4.441  18.493   5.813 -0.2095 -0.0039 -0.2106
31188W        W47322   8.220  15.298   2.256 -0.0325  0.0737  0.1109
31189W        W47323  10.388   9.044  12.642  0.1342  0.1685  0.0575
31190W        W47324   9.196   3.905   1.232  0.1906 -0.1372 -0.0959
31191W        W47325   7.298   3.616   0.320 -0.1591  0.0588  0.0086
31192W        W47326  17.019   6.415  11.437  0.1165  0.0138  0.1077
31193W        W47327   2.186   7.155   4.764 -0.1761  0.1711 -0.2148
31194W        W47328   0.894  16.852  13.768  0.0144  0.0540  0.1581
31195W        W47329  13.799  16.952   0.317  0.2029  0.1544 -0.3367
31196W        W47330  14.695  12.219  10.748  0.1670 -0.0158  0.2710
31197W        W47331  14.560  14.552   0.251  0.0119 -0.0333 -0.1033
31198W        W47332  14.823  14.213   0.675 -0.1495 -0.1843 -0.2582
31199W        W47333  18.167   5.261   0.724  0.1730  0.1095  0.1589
31200W        W47334   2.366  10.488   1.856 -0.1643 -0.1197 -0.1279
31201W        W47335  10.072  15.603   0.969  0.2507 -0.1545  0.1196
31202W        W47336   6.418   0.179   3.576 -0.1805  0.0255  0.1039
31203W        W47337   0.511  14.735   5.506  0.1104 -0.5124 -0.0557
31204W        W47338   6.981   1.220  13.405  0.0092 -0.0513 -0.1093
31205W        W47339  12.429  12.000  11.197 -0.1324 -0.0358  0.0027
31206W        W47340   0.261   5.979  13.828  0.1085  0.2906  0.0201
31207W        W47341  18.742  18.246  11.423 -0.0338 -0.0779 -0.0976
31208W        W47342  17.960  13.899   4.117  0.0366 -0.2645  0.3786
31209W        W47343   8.980  10.766  12.147 -0.0996  0.1964  0.2216
31210W        W47344  16.653   1.083   0.253  0.1326 -0.1789 -0.1567
31211W        W47345  18.274   4.259  10.981  0.1498  0.1418 -0.0581
31212W        W47346  17.558   8.658  14.097 -0.1246 -0.1181 -0.0995
31213W        W47347   0.943   0.049   0.486  0.2646  0.0873  0.0543
31214W        W47348   5.649  14.954  13.456  0.1150  0.0081  0.0772
31215W        W47349   9.356  16.084   4.014 -0.0350  0.0691  0.0244
31216W        W47350   4.525  14.080  12.488 -0.0863  0.1757  0.0343
31217W        W47351   8.318   4.917   3.809  0.2272 -0.1610  0.0153
31218W        W47352  12.678  15.417   1.008  0.2824 -0.1380 -0.0094
31219W        W47353  18.308  11.872  11.032 -0.2347 -0.2570 -0.1874
31220W        W47354  14.667   4.645  14.859 -0.1439 -0.0166  0.0919
31221W        W47355   1.036   1.818   0.730 -0.2150  0.2171  0.0640
31222W        W47356  10.786  10.691   2.052 -0.2649  0.1721  0.1070
31223W        W47357   5.529   0.446   2.253  0.0040  0.1797  0.0506
31224W        W47358  18.816   7.717  13.169  0.1295  0.0193  0.1070
31225W        W47359  16.517   4.652   3.621  0.1860  0.1228 -0.1617
31226W        W47360  13.778   7.096   2.166  0.2812  0.0296 -0.1415
31227W        W47361  12.746   8.677  12.758  0.0072  0.2971  0.0180
31228W        W47362   4.694  18.922  12.840 -0.0689  0.1619  0.1876
31229W        W47363   8.200   6.370   2.677 -0.1272  0.2684 -0.3935
31230W        W47364  11.384   6.657  11.067  0.0811 -0.0627  0.3185
31231W        W47365  15.272   1.933  12.424 -0.1638  0.0062  0.0147
31232W        W47366  15.986  10.312  14.150  0.2526  0.0278  0.0678
31233W        W47367   4.961   7.634  14.950 -0.2185 -0.1335 -0.6704
31234W        W47368  14.384  14.261  15.006 -0.0497  0.0698  0.0310
31235W        W47369   7.928  12.970   4.320 -0.0456 -0.1245 -0.1513
31236W        W47370  12.489  12.043   9.818  0.0637  0.2375  0.1061
31237W        W47371  16.373   7.065   5.366 -0.1370 -0.1483  0.0115
31238W        W47372   6.562   2.177   3.630 -0.0298 -0.0298 -0.0948
31239W        W47373   9.429  17.302   4.315 -0.0145  0.2265  0.2618
31240W        W47374  13.765   3.098  10.782  0.0063  0.3206  0.1457
31241W        W47375  18.309   0.918  14.377 -0.0683 -0.3700  0.0746
31242W        W47376   5.667  13.626   3.163 -0.0084 -0.0923 -0.0194
31243W        W47377  14.980   7.506  11.228 -0.1671 -0.2647 -0.0538
31244W        W47378   8.293   6.633   3.741 -0.0454 -0.1911 -0.1010
31245W        W47379   0.985   5.439   3.276  0.1820 -0.0531 -0.0522
31246W        W47380   6.934   2.733  12.679 -0.3148  0.2344 -0.0960
31247W        W47381  11.713  11.562  13.277  0.3078 -0.3428  0.1101
31248W        W47382  16.280   3.569   5.175 -0.1244 -0.3389  0.3790
31249W        W47383   7.703  11.011   3.195 -0.2782  0.2385 -0.0111
31250W        W47384  12.607  11.252  15.118 -0.0474 -0.2025 -0.3635
31251W        W47385   3.958  15.941  12.727 -0.2054  0.1466  0.6561
31252W        W47386   9.669   6.252   2.626  0.1509  0.0982 -0.0766
31253W        W47387  12.480  12.303  10.785 -0.2550  0.0885 -0.1276
31254W        W47388  18.754   6.936   3.275 -0.3930 -0.0405 -0.0110
31255W        W47389  11.480   3.044  14.651 -0.0634  0.2015 -0.1566
31256W        W47390   9.814   8.114  12.708  0.1199  0.3619 -0.0492
31257W        W47391  13.623  11.287  14.615  0.2158  0.0020 -0.2312
31258W        W47392  15.416  18.132  12.025 -0.0224 -0.2561 -0.1422
31259W        W47393  17.244  10.152   3.934  0.3650 -0.3116  0.2520
31260W        W47394   3.840  13.008  11.502 -0.3404 -0.4971  0.1864
31261W        W47395   1.184   0.695  12.534 -0.1684 -0.1239 -0.0177
31262W        W47396  14.106   9.991   1.916  0.0858 -0.1518  0.0885
31263W        W47397   0.825   4.421   4.348 -0.3347  0.0297 -0.1003
31264W        W47398  18.874   2.729  14.491 -0.1784  0.1702 -0.0564
31265W        W47399  14.152  17.155   2.842  0.0169 -0.2433 -0.1510
31266W        W47400  13.410  16.975   4.859  0.0270 -0.3887 -0.0720
31267W        W47401  17.256   5.936   2.101  0.4526  0.1514  0.3793
31268W        W47402  13.447   7.982  10.957 -0.1338  0.0529  0.1261
31269W        W47403   3.634   0.431   4.501 -0.0196  0.1955 -0.2203
31270W        W47404   9.435   2.448   4.438 -0.0451  0.1256  0.0371
31271W        W47405  18.914   2.115   5.502  0.0411  0.1689  0.0684
31272W        W47406   7.590   5.606  10.839 -0.1776  0.0071 -0.2471
31273W        W47407   9.249   2.379   2.376  0.1832 -0.1370  0.3974
31274W        W47408  11.186   6.454   0.344  0.1526 -0.1829 -0.0628
31275W        W47409   5.386  12.853  15.089 -0.2225  0.2085 -0.2230
31276W        W47410   4.867   2.000  14.634 -0.1071 -0.1485 -0.1805
31277W        W47411  17.915  12.427   1.729  0.3647  0.0659  0.1772
31278W        W47412  11.311   1.301   0.064 -0.2000  0.1958  0.2026
31279W        W47413  11.814  15.827  13.279  0.1481  0.1181 -0.0686
31280W        W47414  18.126   0.759  13.363  0.0571 -0.2855  0.2132
31281W        W47415  15.284  10.395  12.385  0.2331  0.0281 -0.0609
31282W        W47416  11.336   8.137  13.954 -0.0897 -0.1566  0.1616
31283W        W47417  16.196   8.133  11.748  0.0800  0.2897 -0.0426
31284W        W47418   9.708  10.933  15.124 -0.0845 -0.2535 -0.0574
31285W        W47419  12.226  10.912  13.806 -0.0329  0.1926  0.0763
31286W        W47420  11.830   5.852   1.316  0.2034  0.2575 -0.0702
31287W        W47421   4.900   0.373   0.334 -0.1502 -0.2973 -0.0497
31288W        W47422   0.043   7.457   9.365 -0.1837  0.0384 -0.4767
31289W        W47423   2.225  17.966  13.345 -0.0424  0.2385 -0.4110
31290W        W47424  16.871  14.672  15.004 -0.0312  0.0936  0.1154
31291W        W47425   7.564   1.821   3.236  0.2095 -0.1634  0.2014
31292W        W47426  15.385  18.469  10.537  0.0754  0.0188  0.1853
31293W        W47427   0.236   3.622  14.432  0.0874 -0.1188 -0.1175
31294W        W47428  13.965   1.036  12.047 -0.0703 -0.0791 -0.1270
31295W        W47429   8.925   0.799   0.677  0.0960  0.2473  0.1464
31296W        W47430   4.295  13.627  13.609 -0.1772  0.2816 -0.2389
31297W        W47431   8.716  17.997  10.974  0.1414  0.1702  0.0858
31298W        W47432  16.479   7.229   2.555  0.3511 -0.0386  0.3322
31299W        W47433  18.148  11.999   2.356  0.3254  0.0888  0.3096
31300W        W47434  11.770   3.977  11.620  0.0235 -0.1062  0.2594
31301W        W47435  12.333   2.875  15.052 -0.2220  0.0660  0.2398
31302W        W47436   7.452  17.755   2.361 -0.2567  0.0017  0.3615
31303W        W47437  10.240   4.615  14.639 -0.2150 -0.2352 -0.3702
31304W        W47438   4.903  13.280   4.992 -0.4230  0.2750  0.2639
31305W        W47439  18.988   8.812   2.788  0.1424  0.2014  0.2549
31306W        W47440   7.882   7.440   2.655  0.2482 -0.2630  0.0803
31307W        W47441  12.675   8.567   0.698 -0.1702 -0.0809  0.0849
31308W        W47442  13.977  15.131  11.259  0.1033  0.0642  0.0170
31309W        W47443   6.609  14.479   1.314 -0.2101 -0.4214  0.0440
31310W        W47444   7.010  14.995  13.682  0.0541  0.0074  0.1669
31311W        W47445  13.104  15.805  12.463 -0.2782  0.0938 -0.3456
31312W        W47446  17.936   9.314  13.514  0.0723 -0.0406 -0.1671
31313W        W47447   6.960  16.550  10.940  0.0395  0.3477  0.0314
31314W        W47448   5.401   2.787   2.278  0.0049 -0.2337  0.0510
31315W        W47449  14.752   1.225   4.425  0.4720  0.2882  0.1963
31316W        W47450   7.778   1.836   4.531 -0.4236 -0.0436 -0.0911
31317W        W47451  12.721   6.996   0.220  0.2704 -0.1290  0.1953
31318W        W47452   0.274  17.879   0.081  0.0623  0.0165  0.2734
31319W        W47453  13.315  12.078  10.255  0.1025  0.1043  0.1506
31320W        W47454   8.413  18.228   1.177  0.1535  0.4625  0.0830
31321W        W47455  15.657   6.062  14.490 -0.1552 -0.4630  0.0985
31322W        W47456   8.153   7.146   2.293  0.0634  0.3475  0.4989
31323W        W47457   6.917  17.565   2.623  0.0310 -0.4492  0.2123
31324W        W47458   2.034   1.764  12.539  0.0379 -0.0028 -0.1414
31325W        W47459   4.048  10.269   1.450  0.1649  0.2987 -0.0884
31326W        W47460  11.117   6.758   2.076 -0.2607 -0.0939 -0.0345
31327W        W47461   2.688   2.051   4.783  0.2528  0.0027 -0.1004
31328W        W47462  14.347   8.233  11.246 -0.0984  0.1598 -0.0568
31329W        W47463  13.982  11.033   4.596 -0.2161 -0.0416 -0.1194
31330W        W47464  16.272   1.565  14.826 -0.0840  0.5647  0.3705
31331W        W47465   4.459   2.871   5.023 -0.3158 -0.2293  0.1170
31332W        W47466  12.739  12.305  10.303  0.1211 -0.0307 -0.1900
31333W        W47467  16.908   1.105   1.360 -0.0535  0.2207  0.1245
31334W        W47468   1.562  11.884   2.782  0.3325 -0.0743  0.2302
31335W        W47469  18.687   6.695  11.574  0.1218 -0.0165  0.2798
31336W        W47470  15.718   5.843   2.718  0.1530 -0.1099 -0.1080
31337W        W47471  11.829  11.317  11.575  0.3164 -0.1931  0.0690
31338W        W47472  13.478  10.951   0.275  0.1406 -0.1512  0.1606
31339W        W47473  12.057  14.987  11.406  0.0366  0.1604  0.2069
31340W        W47474  17.446  13.268   2.091  0.1608 -0.1330  0.1140
31341W        W47475  13.998  10.139   4.895  0.2038  0.3520  0.0732
31342W        W47476  14.615  10.826   4.903 -0.2085 -0.0082 -0.2157
31343W        W47477   3.654  15.779   2.488 -0.1761  0.0239  0.2021
31344W        W47478   1.012   8.939  14.094 -0.1329 -0.0208  0.3937
31345W        W47479  12.914   2.641   3.488 -0.1181  0.0294 -0.1551
31346W        W47480  12.497  16.477   4.788  0.0514  0.0951 -0.2416
31347W        W47481   7.540   7.997  13.525  0.1567 -0.3198 -0.0544
31348W        W47482  13.814   5.307  11.144  0.0305  0.0465 -0.3030
31349W        W47483  17.792   2.367  13.229  0.0959 -0.0035  0.0834
31350W        W47484  16.471  12.642   0.389 -0.3254  0.0113 -0.0888
31351W        W47485   3.610  12.320  13.185  0.1878 -0.1975 -0.0433
31352W        W47486   9.265  12.378   5.044 -0.1167 -0.1330 -0.0289
31353W        W47487   7.785   3.218   2.743  0.1160 -0.1356  0.4242
31354W        W47488  15.832  15.462   9.798  0.0507  0.0227 -0.2528
31355W        W47489   8.201   7.893   4.564  0.3268 -0.0508 -0.2903
31356W        W47490  11.014  13.449   0.420  0.1957  0.0772 -0.1287
31357W        W47491  16.502   2.079   2.541  0.1482  0.2913  0.2586
31358W        W47492   3.666   9.163   3.028  0.0528 -0.1819  0.0867
31359W        W47493  18.447  18.568   1.322  0.4094  0.2270  0.1222
31360W        W47494   1.925  13.204   4.400  0.0893 -0.0215  0.0265
31361W        W47495  15.595  10.494   0.581 -0.0016 -0.1503  0.1097
31362W        W47496   3.698  14.325  10.957 -0.0325  0.3207 -0.1731
31363W        W47497  18.713   6.550   2.374 -0.3583 -0.1632 -0.0103
31364W        W47498   5.775  11.910   0.125  0.3770  0.0031  0.0490
31365W        W47499  10.092  16.657   9.973 -0.3863  0.0450  0.2497
31366W        W47500   7.271  10.494  11.269  0.0377  0.2772 -0.0513
31367W        W47501  12.527   0.682  12.983 -0.2636 -0.0434 -0.1182
31368W        W47502  15.146  18.546   4.486  0.0109 -0.0764  0.0204
31369W        W47503  18.268   9.515   0.333 -0.0642 -0.2041 -0.1620
31370W        W47504   9.101  14.466  11.614 -0.0868  0.2610  0.0000
31371W        W47505   7.069  17.884  15.097  0.1039 -0.1781  0.0672
31372W        W47506   8.002  16.910   5.311 -0.0198 -0.0887  0.2508
31373W        W47507  12.555  17.488   2.559  0.0588  0.2866 -0.1570
31374W        W47508   9.298   1.544   1.889 -0.3207  0.2227  0.2998
31375W        W47509   1.311   2.980   0.174 -0.1026  0.1381 -0.1763
31376W        W47510  14.506  13.603   3.815  0.0026 -0.2382  0.0835
31377W        W47511  19.027  16.677  13.344 -0.4822 -0.1771 -0.4992
31378W        W47512   6.677   4.025   3.398  0.0121 -0.0210 -0.0170
31379W        W47513   8.732  10.927   4.754 -0.1585 -0.1485  0.0006
31380W        W47514   0.541   9.378   9.843  0.2349  0.1437  0.0625
31381W        W47515   3.044  13.250  11.977  0.0065  0.2277 -0.0008
31382W        W47516   9.148   1.046  12.850 -0.0115  0.3483  0.2573
31383W        W47517   1.450  15.967   0.037  0.1794 -0.0196 -0.0777
31384W        W47518  14.284  18.485  12.031 -0.4202 -0.0007  0.1248
31385W        W47519   3.103   7.949  13.652 -0.3182  0.2139 -0.1241
31386W        W47520   5.674   2.662   4.511 -0.1483 -0.0679  0.2663
31387W        W47521   3.767  18.004   3.107  0.1162  0.0014 -0.2601
31388W        W47522   3.413   4.972  13.317  0.0431  0.0866 -0.0189
31389W        W47523   6.382  18.581  12.587 -0.0231 -0.1809  0.3600
31390W        W47524   8.051  10.520  12.406  0.0505 -0.2623  0.0370
31391W        W47525   2.686   4.740  14.622  0.2588 -0.2207 -0.1682
31392W        W47526   0.608  15.051   3.653  0.1020 -0.0020 -0.2829
31393W        W47527   2.726  13.663   3.297  0.0075 -0.2607 -0.2737
31394W        W47528   3.146   4.843   3.996 -0.1005  0.0290  0.1199
31395W        W47529  11.186  15.446   1.178  0.3615 -0.0582  0.0891
31396W        W47530   5.697  14.507  11.753 -0.2251  0.2753  0.0853
31397W        W47531  16.765  12.832   3.735  0.1277 -0.1387  0.4713
31398W        W47532   3.939   7.654   4.004 -0.1519 -0.1825  0.4082
31399W        W47533  18.840   0.236  10.506 -0.6013 -0.0711 -0.0914
31400W        W47534   6.556  10.171  14.451 -0.0403  0.3881 -0.0438
31401W        W47535   5.603   4.294   0.929 -0.1830  0.2243 -0.0826
31402W        W47536   1.799   2.460   1.776 -0.2871 -0.1727  0.1328
31403W        W47537  10.866  16.696  10.519  0.1460 -0.0241 -0.1893
31404W        W47538   5.742  12.652   2.992 -0.4194  0.0360  0.0613
31405W        W47539   7.599  18.231   5.515 -0.0689  0.0137 -0.2814
31406W        W47540  18.533   9.268   1.779  0.0034 -0.0943 -0.2214
31407W        W47541  18.399   3.839  14.296  0.0077  0.0649  0.0266
31408W        W47542  10.021  11.898   4.749 -0.0128 -0.0210 -0.0643
31409W        W47543  13.523  11.036   4.351 -0.0194 -0.2383  0.0703
31410W        W47544   9.673  14.356  11.424  0.2122 -0.3807 -0.1130
31411W        W47545  11.523   9.803   4.754  0.2568 -0.1623 -0.0261
31412W        W47546  11.760   8.535  13.202 -0.0046 -0.3144 -0.2932
31413W        W47547  10.155   3.895  13.826 -0.2578  0.0274  0.2003
31414W        W47548   9.963  16.140  12.082  0.0194 -0.2443  0.1306
31415W        W47549  15.263  18.411   3.273  0.2120  0.5067  0.0261
31416W        W47550   5.263  14.735  10.379 -0.2377 -0.0205 -0.0993
31417W        W47551   6.410   4.704   2.995 -0.1051 -0.2159 -0.3399
31418W        W47552  17.723   1.351  11.837 -0.0417  0.0541 -0.1599
31419W        W47553   2.617   6.920  11.335  0.0080 -0.0705  0.0711
31420W        W47554   6.950  12.635  11.577 -0.4251  0.2115 -0.3764
31421W        W47555   6.421   9.500   1.746 -0.0848 -0.2756  0.1589
31422W        W47556   4.974  11.707   2.391  0.0925 -0.0623 -0.0096
31423W        W47557   3.363  16.625  15.046 -0.1733  0.3185  0.0011
31424W        W47558   4.645  13.141  12.677 -0.2541  0.0694 -0.1624
31425W        W47559  15.222   6.043   5.072  0.0819 -0.4593 -0.0988
31426W        W47560  16.457  14.504   0.412  0.3864 -0.2465 -0.1695
31427W        W47561  18.011  12.658  13.257  0.3034 -0.1525  0.1249
31428W        W47562   8.313   7.158   3.471 -0.0473 -0.2991 -0.3199
31429W        W47563  15.972  18.666  14.572  0.0714  0.1675  0.2691
31430W        W47564  13.939  13.884  14.809 -0.0770  0.2239  0.0377
31431W        W47565   9.331  17.427   4.830  0.1031  0.0364  0.4744
31432W        W47566   1.395   3.257  13.403 -0.3142 -0.1775  0.1619
31433W        W47567   5.409  17.878   3.651 -0.1963  0.0735 -0.0286
31434W        W47568   4.321   2.168   1.240 -0.1258 -0.1242  0.1076
31435W        W47569  11.891  16.721   1.874  0.1166 -0.0556  0.0194
31436W        W47570  12.431   3.281   1.129 -0.0636  0.2114  0.3305
31437W        W47571  14.800   5.449   1.197 -0.0287  0.0560  0.2037
31438W        W47572  13.121  17.455   3.517  0.0918 -0.0481 -0.1711
31439W        W47573  14.573  17.625   2.165  0.2374 -0.1489 -0.0036
31440W        W47574   2.979  17.433   1.586  0.2963 -0.0307  0.2327
31441W        W47575  13.032  10.986   3.050 -0.3299  0.0193  0.3056
31442W        W47576  10.568   4.201   1.292 -0.1970  0.1669  0.2241
31443W        W47577   7.586   9.083  15.170  0.4020  0.0930 -0.2632
31444W        W47578  14.567  17.498  14.787  0.1597  0.2605  0.0947
31445W        W47579   7.851   7.099  10.587 -0.1736  0.0688 -0.2716
31446W        W47580  11.092   5.460  12.940 -0.0684 -0.2483 -0.1349
31447W        W47581  19.046  15.024  14.425  0.1008 -0.1785  0.2517
31448W        W47582  10.658   7.824   5.321  0.0744  0.0342  0.0328
31449W        W47583  15.978  18.820   1.259 -0.0956  0.0164  0.1142
31450W        W47584   3.962   2.837  10.062 -0.1497  0.0100 -0.0800
31451W        W47585   4.746   7.492   4.636 -0.1971 -0.2725 -0.0315
31452W        W47586  16.220  18.441   1.513 -0.2054 -0.1856 -0.1125
31453W        W47587  10.301   0.431   2.526 -0.1775  0.0256  0.1101
31454W        W47588  15.627   6.723   2.717  0.2047 -0.0495 -0.2646
31455W        W47589  15.065   8.619   3.911 -0.0297 -0.1071 -0.1639
31456W        W47590   6.663  12.714   1.001  0.1307 -0.5043  0.1097
31457W        W47591  13.123  18.396   0.387  0.3828  0.0643  0.1596
31458W        W47592  15.872   7.915  14.887 -0.2067 -0.3210  0.3288
31459W        W47593   5.035   6.380   2.229  0.0658 -0.0595  0.1992
31460W        W47594  17.494  10.016  13.965  0.1208  0.1627 -0.0062
31461W        W47595   0.535  11.680   1.163 -0.1175  0.1516 -0.0246
31462W        W47596   9.589   6.781   2.828  0.0573 -0.0840 -0.1499
31463W        W47597   7.834  16.601   4.945  0.1105  0.2189  0.0721
31464W        W47598   9.301  16.956  11.758  0.0190  0.1905  0.3124
31465W        W47599  15.866  18.830   0.256  0.1078  0.1053  0.1084
31466W        W47600  13.207   6.613  13.742 -0.0221  0.0236  0.0403
31467W        W47601  15.315  14.788  13.894  0.1463 -0.0094  0.3039
31468W        W47602   8.174   9.166  13.448  0.1351 -0.0968  0.0781
31469W        W47603  16.939  10.592  13.333  0.0352 -0.0844 -0.0954
31470W        W47604   9.833   0.321  10.615 -0.0626  0.0490  0.2229
31471W        W47605  10.775   3.863   3.580 -0.0501  0.2884 -0.0275
31472W        W47606   1.093  18.163   0.426 -0.3297  0.0037  0.1587
31473W        W47607  11.290   2.729   1.137  0.1786 -0.0805 -0.2096
31474W        W47608   9.930  10.093   4.390 -0.2132  0.2573 -0.0699
31475W        W47609   8.743  10.351   4.726  0.0150 -0.0082  0.1695
31476W        W47610  10.679   6.660  12.494 -0.0392  0.0773  0.2360
31477W        W47611   4.370   2.500   9.240  0.1499 -0.0390 -0.2530
31478W        W47612  15.614   1.469  14.315 -0.0847  0.0369 -0.1282
31479W        W47613  18.088  13.536   5.673 -0.1210  0.2275  0.0926
31480W        W47614   7.896  18.934   0.926 -0.2015 -0.1011  0.0118
31481W        W47615  17.692   0.547   0.835  0.3174  0.2017  0.1785
31482W        W47616   3.932  15.888   2.879 -0.0869  0.1893 -0.1582
31483W        W47617  17.959   2.230  10.953  0.0014  0.1561  0.1778
31484W        W47618   5.180   5.420  13.536  0.0207 -0.2993  0.0922
31485W        W47619   0.676   2.094   0.989 -0.1467  0.2965  0.0384
31486W        W47620  16.729  14.503   4.331  0.0947  0.0497  0.0538
31487W        W47621   4.905  18.894  14.187 -0.2599 -0.0019 -0.2287
31488W        W47622  14.009  14.508   4.808 -0.0312 -0.0182 -0.1824
31489W        W47623  15.241  17.825   3.281 -0.3298  0.0773 -0.2157
31490W        W47624   0.655   0.052  10.707  0.1747  0.2605 -0.1776
31491W        W47625   3.874   0.795   4.200  0.0340 -0.1927  0.0272
31492W        W47626  18.239  17.929  14.715  0.1755  0.0848 -0.1920
31493W        W47627   5.264  12.995   4.709  0.0658 -0.0321 -0.3283
31494W        W47628   3.011   2.818   3.312  0.2136 -0.3469 -0.2136
31495W        W47629  16.242  12.768   3.715 -0.1182  0.1811  0.5079
31496W        W47630   0.195  15.557   1.326  0.0224  0.0223  0.0373
31497W        W47631   6.395   7.482  11.826 -0.0651  0.1993  0.2067
31498W        W47632  13.975  14.767   3.330 -0.0443  0.0154  0.0447
31499W        W47633  13.501   1.232  11.456  0.2476  0.0428 -0.0811
31500W        W47634  13.517   5.628  11.994 -0.0430  0.0308  0.1276
31501W        W47635   5.081  14.589   3.590 -0.2424 -0.0986  0.1690
31502W        W47636   5.252  10.585  10.703  0.5384 -0.1367  0.0913
31503W        W47637   3.717   5.208   3.375 -0.2051  0.3060 -0.1889
31504W        W47638   1.726  14.650   5.784 -0.0376  0.1296 -0.1848
31505W        W47639  15.597   6.367  12.695  0.2011  0.2395  0.0109
31506W        W47640  11.967   5.148   2.486  0.0812 -0.3017 -0.0005
31507W        W47641   7.987  17.487   5.366 -0.0861  0.0610 -0.0896
31508W        W47642  11.083   1.983  11.081 -0.0516 -0.2978  0.3886
31509W        W47643   0.978   1.347  12.276  0.0403 -0.0877 -0.1128
31510W        W47644   5.626  17.618  11.582  0.3859  0.2752  0.0928
31511W        W47645   4.381  11.508  13.290 -0.1127 -0.0696  0.0711
31512W        W47646  16.045   7.682   0.886  0.3796 -0.0662 -0.0898
31513W        W47647  13.428   6.171  13.807 -0.0237 -0.1663  0.0027
31514W        W47648   1.578   3.317  14.036  0.3313  0.0741  0.2552
31515W        W47649   0.829   8.504  10.172 -0.1742  0.3727 -0.0641
31516W        W47650   3.683   6.944   3.145  0.0341  0.0497 -0.0179
31517W        W47651  19.058   2.314   2.608 -0.0893 -0.3765 -0.1238
31518W        W47652  11.971   8.882  14.496  0.0881  0.0518  0.1085
31519W        W47653  17.205   2.854   1.924 -0.1921  0.1106  0.0359
31520W        W47654  17.300   7.265   4.218  0.0265  0.3551 -0.0900
31521W        W47655   7.754   4.346   4.416 -0.2589  0.1776 -0.0275
31522W        W47656  10.264   2.624   1.781  0.1324 -0.0771  0.1097
31523W        W47657   9.619  11.327   3.127 -0.1136 -0.2681 -0.0573
31524W        W47658  11.982  15.026   3.388  0.1203  0.1730 -0.1933
31525W        W47659  17.342   9.199  14.172 -0.2530 -0.0399 -0.2397
31526W        W47660  13.448  12.889   2.278  0.0681  0.0120 -0.0955
31527W        W47661  17.165   3.340   3.387  0.1422  0.0512  0.4114
31528W        W47662   4.536  18.796   3.730 -0.0661 -0.0087  0.0893
31529W        W47663   4.473  11.387  13.773 -0.1428 -0.0139  0.0438
31530W        W47664   3.438   6.852   2.695  0.2979 -0.0496  0.1623
31531W        W47665   4.752   0.612  14.043  0.0959  0.1908  0.0366
31532W        W47666   1.899   3.378   4.314 -0.2275 -0.0228 -0.1969
31533W        W47667   8.181  10.566   1.953  0.2994 -0.2915  0.2827
31534W        W47668   4.277  11.111   2.944 -0.1420  0.1476 -0.2241
31535W        W47669  12.154   5.278  14.707  0.0809  0.3346 -0.0810
31536W        W47670   5.251   1.349   2.017 -0.1023 -0.0504  0.0893
31537W        W47671   6.071  18.521   2.127 -0.3250 -0.2901  0.0092
31538W        W47672  15.666   3.716   1.927 -0.2477  0.0723  0.3238
31539W        W47673   1.873   9.227   3.613  0.0713  0.0136 -0.0207
31540W        W47674  12.621  15.145  11.649 -0.0508  0.1516 -0.0836
31541W        W47675   4.463  16.302  12.652  0.3383  0.0248  0.2189
31542W        W47676  17.549   1.987  14.858 -0.1475  0.1659  0.0982
31543W        W47677  12.314  14.937  14.536 -0.0165 -0.0425  0.2324
31544W        W47678  13.265   2.006   4.184 -0.1924  0.2234 -0.0606
31545W        W47679  16.160   4.835   2.573 -0.0420  0.3799  0.2743
31546W        W47680   3.881  19.146   0.073 -0.0124  0.0829 -0.3734
31547W        W47681  13.057   4.937  14.333  0.0716 -0.1500 -0.0910
31548W        W47682  12.863   0.125   1.007 -0.1022  0.3328  0.1642
31549W        W47683   5.878  11.102   1.050 -0.3141 -0.0737  0.1154
31550W        W47684  18.230  11.491   2.576 -0.0943  0.0525 -0.0046
31551W        W47685   6.283   3.921  10.986  0.2826 -0.2114 -0.0524
31552W        W47686  11.597  13.569  12.791  0.0412 -0.0913  0.1192
31553W        W47687  16.870   9.026  14.073 -0.1520 -0.1422  0.2922
31554W        W47688   0.510  12.081   0.361 -0.1293 -0.2094 -0.0815
31555W        W47689   1.487  16.476  13.597  0.1629 -0.0314 -0.2005
31556W        W47690  12.988  12.974  11.185  0.2100 -0.4180 -0.0633
31557W        W47691  16.610   0.206   4.340  0.3300  0.1195 -0.1580
31558W        W47692  16.233  18.410  14.262  0.2673 -0.0873 -0.1667
31559W        W47693  17.746   0.820  11.118  0.1302 -0.0786 -0.2103
31560W        W47694  11.120   4.205  14.230 -0.2144  0.1931 -0.2585
31561W        W47695  17.399  14.091  12.829 -0.0788  0.0155  0.0381
31562W        W47696  18.799  13.079  13.022 -0.2038  0.1269  0.2823
31563W        W47697   9.239   9.280   1.973  0.5095 -0.0898 -0.2237
31564W        W47698  10.519   9.409   2.456 -0.0967 -0.2106  0.0144
31565W        W47699   3.810   2.362   2.413 -0.2783 -0.0548  0.2229
31566W        W47700  15.863  17.906  11.215 -0.1569 -0.0568  0.4457
31567W        W47701   5.084   6.627   3.010  0.2741 -0.0081 -0.2079
31568W        W47702  16.650   9.849  14.415 -0.2180 -0.0513 -0.0676
31569W        W47703  12.125  13.243  12.568  0.0838 -0.0121  0.0678
31570W        W47704   4.114  16.082   2.447  0.2644  0.1159  0.1010
31571W        W47705  10.318   1.819  13.212  0.1129 -0.5630 -0.0977
31572W        W47706   2.865   5.882  10.357 -0.1339  0.0241  0.1501
31573W        W47707  13.199  17.159   1.842 -0.1683  0.1929  0.0963
31574W        W47708  14.314   1.571  11.141 -0.2487 -0.5090 -0.0940
31575W        W47709   9.088  16.381  14.232 -0.0881 -0.3401 -0.0830
31576W        W47710   2.598   7.118   2.661  0.3747  0.0627  0.0072
31577W        W47711  13.554  16.360  13.702 -0.0730 -0.1116  0.3035
31578W        W47712   6.726  16.436  11.356 -0.1169 -0.1971 -0.0942
31579W        W47713  15.176   4.708  14.564 -0.0130  0.0949  0.1243
31580W        W47714   2.381  14.393  12.762 -0.0097 -0.0432 -0.0596
31581W        W47715   9.301  17.622  14.611  0.2060 -0.1865 -0.0056
31582W        W47716  11.098   5.838  11.526 -0.2327  0.0845 -0.4009
31583W        W47717   8.973   3.008  11.504  0.2700  0.0018  0.2776
31584W        W47718   1.266  13.637  10.938  0.2028 -0.1852  0.1620
31585W        W47719  17.932   0.822   1.452 -0.0117  0.3075  0.0831
31586W        W47720   8.291  14.820   0.662 -0.1042  0.0802  0.1552
31587W        W47721   8.795   3.095  13.301  0.0920  0.0800  0.0122
31588W        W47722   9.417   0.744   0.776  0.2408  0.1419  0.1671
31589W        W47723  17.586  15.827   0.012  0.0985  0.0569 -0.0623
31590W        W47724  18.472  16.893   3.741  0.1705  0.1208 -0.4361
31591W        W47725  15.381   0.663  11.258 -0.1183  0.2078  0.5574
31592W        W47726   8.095  10.777   5.689  0.2249 -0.1161  0.1156
31593W        W47727  17.858  17.527  10.900 -0.0164  0.6372 -0.2580
31594W        W47728  15.117   1.815  12.894  0.2609 -0.3238  0.0615
31595W        W47729   5.353   6.524   4.027  0.2425 -0.2270  0.0364
31596W        W47730  15.675   1.972   0.583  0.1564  0.3950  0.0872
31597W        W47731  10.645   6.882   0.408  0.1036  0.0012 -0.0281
31598W        W47732   7.753  15.959   2.612  0.3584 -0.2794 -0.1429
31599W        W47733  17.492   6.057   3.634  0.1764  0.3549  0.1938
31600W        W47734  13.724  18.447   4.923 -0.2625  0.2314  0.3413
31601W        W47735   5.060  10.746   3.315  0.1889  0.0408 -0.2370
31602W        W47736  11.357  15.617   1.629 -0.0241  0.3150  0.3020
31603W        W47737   3.139   8.780  10.677  0.0637  0.0412  0.1038
31604W        W47738   0.743   0.782  15.153 -0.0071 -0.3048 -0.0972
31605W        W47739  18.793   0.205   1.588 -0.2119  0.1059 -0.0081
31606W        W47740   4.946   3.046  12.691  0.3300  0.0736 -0.0650
31607W        W47741   1.228   8.544   0.494  0.1140 -0.0433  0.4358
31608W        W47742  11.263   8.377   2.770 -0.1864 -0.1990  0.0236
31609W        W47743  19.083   0.215   2.676  0.0484 -0.4277  0.2472
31610W        W47744   3.253  14.184   3.010 -0.0435  0.0358 -0.1829
31611W        W47745   2.720   9.448  12.246 -0.2936  0.0610  0.0790
31612W        W47746   7.857  10.078   4.105 -0.1622  0.1384  0.1203
31613W        W47747   5.391   2.559   1.763 -0.0408 -0.2013  0.1291
31614W        W47748   5.641   8.840   0.341 -0.0557  0.1288 -0.2122
31615W        W47749  15.450   1.460   3.354  0.2350  0.1990  0.2076
31616W        W47750   6.635   2.519  11.774  0.4882  0.0589 -0.1654
31617W        W47751  18.148  18.408  10.857  0.1163 -0.3103  0.1245
31618W        W47752  15.734  13.335  11.122  0.0986 -0.0219  0.3034
31619W        W47753  16.697  13.880  13.702  0.0546 -0.2045  0.1402
31620W        W47754   2.471   6.720  11.762  0.1624 -0.0596  0.0998
31621W        W47755  11.509   1.630  11.858 -0.0501 -0.3586  0.1092
31622W        W47756  10.711  11.791   0.370 -0.0017 -0.2210  0.1818
31623W        W47757   1.586   8.628  15.156 -0.1480  0.1381 -0.1370
31624W        W47758   9.944  16.830  13.362  0.0334 -0.1897 -0.0302
31625W        W47759   6.828  18.603   2.259 -0.2116  0.0528 -0.1731
31626W        W47760  18.529   4.328   3.895  0.2322  0.0272 -0.1297
31627W        W47761  17.206   3.943  10.857 -0.1329  0.1950 -0.0466
31628W        W47762   5.097   8.719  13.501 -0.0604  0.0249  0.1513
31629W        W47763  18.125   6.275   4.747  0.0844  0.0643  0.3539
31630W        W47764   9.962  18.847   2.848 -0.1095 -0.0409  0.1797
31631W        W47765  13.461  11.756  14.742 -0.2913 -0.1644 -0.1020
31632W        W47766   5.571   3.587  14.523  0.3115 -0.1012  0.2897
31633W        W47767   7.869   5.963  12.728 -0.0864 -0.2029 -0.5530
31634W        W47768   8.189   1.469  14.997  0.1572 -0.3970 -0.1745
31635W        W47769  13.460   6.039   2.927  0.2244  0.0184  0.2686
31636W        W47770   2.777  12.585   0.994 -0.0857 -0.0734 -0.3219
31637W        W47771  13.079   4.736  13.311  0.1116 -0.2356  0.0549
31638W        W47772   1.254   1.229  11.651 -0.3137 -0.1547  0.0963
31639W        W47773  17.323  10.952   3.602  0.3161  0.1308  0.0537
31640W        W47774  12.340  14.719   9.603 -0.3894  0.5213  0.4044
31641W        W47775   3.926  12.313   0.751 -0.0474  0.0805  0.1091
31642W        W47776  13.937  12.132   1.124  0.0589 -0.0380  0.0621
31643W        W47777   5.106   3.949   0.046 -0.1932 -0.1332  0.1453
31644W        W47778   2.194   6.057  11.010 -0.0982  0.0562  0.0586
31645W        W47779  15.897   6.799   3.118  0.1805  0.1162  0.2140
31646W        W47780  17.397   4.350  15.193  0.1206  0.0104  0.0617
31647W        W47781   8.165  15.780  13.522 -0.0285  0.0601 -0.1825
31648W        W47782  17.754  11.838  14.764  0.1471 -0.0359  0.0696
31649W        W47783   2.760  18.785  10.674 -0.0953  0.2294  0.2155
31650W        W47784  17.004   5.743   2.910  0.1680  0.1621 -0.2749
31651W        W47785   5.112  11.196   2.510  0.3190 -0.0416  0.0287
31652W        W47786  10.403   2.951   3.786 -0.1646  0.2898 -0.1692
31653W        W47787  15.793   3.161  12.268  0.3078 -0.3527 -0.0728
31654W        W47788  11.681  13.887   0.056 -0.3173 -0.0063  0.0245
31655W        W47789   4.718   2.368  12.541 -0.0253 -0.2555  0.2721
31656W        W47790   8.460  12.980   0.580  0.1677 -0.0608 -0.0357
31657W        W47791   7.374  12.976   2.604 -0.2120  0.0937  0.1254
31658W        W47792   6.535  15.019   4.047  0.0802 -0.0495 -0.0652
31659W        W47793  11.671  14.012  12.619  0.0893 -0.2170  0.0736
31660W        W47794  17.244  11.044  13.640 -0.0836  0.0276 -0.0857
31661W        W47795   2.382  10.277   2.631  0.0569  0.0755  0.0969
31662W        W47796   1.082   3.027   1.279 -0.0399  0.0760  0.2627
31663W        W47797   0.679  11.000  14.717  0.1685 -0.0150 -0.2635
31664W        W47798   5.661   2.185  14.006  0.0679  0.2808  0.1334
31665W        W47799   2.211   3.481  13.366 -0.2863 -0.1007 -0.3640
31666W        W47800  10.836   4.997  13.721 -0.1754 -0.0437 -0.2777
31667W        W47801   4.839   6.403   3.833  0.3228 -0.0301  0.0142
31668W        W47802  18.173  14.389   0.233  0.3600  0.0863 -0.3253
31669W        W47803  14.784   2.934  12.903  0.1464 -0.0093 -0.0213
31670W        W47804  11.387   8.366   1.086  0.2184 -0.4408 -0.0589
31671W        W47805  10.200   4.781   1.664 -0.0790 -0.3643 -0.0540
31672W        W47806  13.078  15.135  11.758  0.0508  0.3051 -0.1110
31673W        W47807   0.990  18.130   0.951  0.1021 -0.0048 -0.1554
31674W        W47808   7.302  15.004   2.470 -0.1528 -0.1336 -0.3113
31675W        W47809   4.002  10.110   3.312  0.0137  0.0257  0.0143
31676W        W47810   3.256   7.180   1.569  0.0666 -0.4050 -0.0589
31677W        W47811   1.745   7.058   1.044  0.1850  0.1553  0.2634
31678W        W47812  11.038  18.116  14.997 -0.1787 -0.1233 -0.0770
31679W        W47813   8.100   5.579  12.547  0.0220  0.0839  0.3158
31680W        W47814   9.037   0.976  12.292  0.0150 -0.0164 -0.4234
31681W        W47815   3.790   8.511   4.979  0.0065  0.1506 -0.0184
31682W        W47816   7.949   2.022   3.455  0.0590  0.1527 -0.0789
31683W        W47817   3.988   5.178   4.831 -0.0116  0.1048  0.1324
31684W        W47818   0.276   8.823  10.522  0.2926 -0.1658 -0.1756
31685W        W47819  16.342  18.186  11.802 -0.0388 -0.4056  0.0211
31686W        W47820  17.998  11.421  14.899 -0.0359 -0.0826  0.0741
31687W        W47821  15.638  19.047  10.242 -0.0857  0.0267 -0.1302
31688W        W47822   6.676  15.257  11.985 -0.1442 -0.0964  0.3673
31689W        W47823   3.258   6.083  11.194  0.1828  0.1604 -0.1316
31690W        W47824  13.709  16.548   2.082  0.0433 -0.3772 -0.3096
31691W        W47825  14.734   9.211  14.120  0.0617  0.0593  0.5044
31692W        W47826  13.137  12.599   4.112 -0.1091  0.1579 -0.0470
31693W        W47827  13.278  10.933  11.577 -0.2387 -0.0056 -0.1492
31694W        W47828  18.265   6.256   2.545  0.0254 -0.2103  0.5090
31695W        W47829  12.505  10.619   0.937  0.1046  0.1617  0.1524
31696W        W47830   2.589   1.963  12.812 -0.3328 -0.1175  0.0368
31697W        W47831   7.313   0.683   2.978 -0.0758 -0.0596 -0.0805
31698W        W47832  14.182  15.064   4.612 -0.0596  0.1428  0.0038
31699W        W47833   7.342  17.413   3.522 -0.2358 -0.1059 -0.0886
31700W        W47834  16.823   0.679   2.689 -0.1379 -0.1683  0.0575
31701W        W47835   4.409  10.853   0.643 -0.1248 -0.0182 -0.2079
31702W        W47836  10.738   1.043  11.982 -0.1916 -0.1135 -0.0941
31703W        W47837   1.645  18.740   4.439 -0.0230  0.1555 -0.0262
31704W        W47838   7.132   7.719   1.169 -0.1805  0.1491 -0.3690
31705W        W47839  18.212  17.509  12.002  0.0953  0.0551  0.2790
31706W        W47840   5.182   9.332   4.986 -0.0557  0.0886  0.2250
31707W        W47841   0.400  15.811   5.307 -0.3064  0.3403 -0.0649
31708W        W47842   2.423  16.722   2.563 -0.1348 -0.2053 -0.0099
31709W        W47843   7.213  12.773   3.443 -0.1373 -0.0610 -0.1310
31710W        W47844   9.296   7.948  11.517  0.2656 -0.2391  0.3233
31711W        W47845  10.073   4.510  11.006 -0.3563  0.1714 -0.2440
31712W        W47846   5.547  12.872  11.087  0.1385  0.0263  0.2420
31713W        W47847   9.384   4.813   3.069  0.2496 -0.0616 -0.3465
31714W        W47848  10.244  13.393  12.349  0.0457 -0.0526  0.2015
31715W        W47849  14.740   2.477  14.356 -0.2324  0.0058  0.0886
31716W        W47850   2.557  15.475  11.765  0.1734 -0.0645  0.1904
31717W        W47851   3.221  12.802   3.652 -0.2096  0.3939 -0.0388
31718W        W47852  10.557   6.159  11.712 -0.0113  0.2387  0.2661
31719W        W47853   2.352   3.954   1.428 -0.0016 -0.2236 -0.0155
31720W        W47854   4.130   3.024  10.508 -0.1918 -0.2395  0.0937
31721W        W47855   4.625  14.021  13.729  0.1265  0.3140 -0.0856
31722W        W47856   8.316   9.246   4.751 -0.2541 -0.1539  0.1927
31723W        W47857  11.034  10.937  11.285  0.1742  0.1366  0.0205
31724W        W47858   4.655   3.538  12.068 -0.0619  0.0206  0.2036
31725W        W47859   3.076  14.845  15.141  0.1815  0.1598  0.1197
31726W        W47860  10.764  16.141   3.835 -0.0644  0.1958  0.1194
31727W        W47861   2.277  17.901   1.156  0.5560 -0.1546 -0.0151
31728W        W47862   3.250   7.098  13.370 -0.2240  0.2712 -0.0560
31729W        W47863   5.639   6.030   2.620  0.1158  0.3223  0.0485
31730W        W47864  12.789   0.685  12.473  0.0499  0.0794  0.2447
31731W        W47865   0.892  18.648  13.631  0.1302  0.2763 -0.2623
31732W        W47866   5.307  17.887   2.540 -0.1917  0.3275 -0.0968
31733W        W47867   1.013   6.374  14.657  0.0941 -0.2084 -0.2474
31734W        W47868  10.496   6.808   5.804  0.0165  0.0072 -0.0811
31735W        W47869  15.961   1.602  13.069  0.0272 -0.1349 -0.0639
31736W        W47870  16.746  18.459   4.222  0.1187 -0.0455 -0.2321
31737W        W47871   6.747  17.938   0.716 -0.2503 -0.0061 -0.4000
31738W        W47872  18.936  18.550   4.099 -0.4116 -0.1094  0.0510
31739W        W47873   8.341   7.110  11.292 -0.1233 -0.1982  0.5100
31740W        W47874  15.853  15.852   2.177  0.1310  0.3278 -0.0944
31741W        W47875  10.172   2.669  13.614  0.0059  0.0061 -0.0128
31742W        W47876   5.171   6.290   1.553  0.1939 -0.4356  0.2349
31743W        W47877   9.878  17.901  10.509  0.1622  0.4018 -0.4317
31744W        W47878   1.012  17.300   2.854  0.1519 -0.2907  0.1474
31745W        W47879  12.169  17.563  13.706 -0.1576  0.1927 -0.2042
31746W        W47880  13.210   0.324   5.338  0.0607 -0.0453 -0.1045
31747W        W47881   7.244   0.289   3.294 -0.2145  0.0604 -0.0712
31748W        W47882   9.411  13.707  11.044 -0.1441  0.0919  0.1839
31749W        W47883  11.804   7.370   3.770 -0.1565 -0.1665 -0.0402
31750W        W47884   2.076  12.784  13.924 -0.3454  0.2213  0.1848
31751W        W47885  11.163   3.175  14.197 -0.0859 -0.0572 -0.3617
31752W        W47886  15.259   6.543  13.740  0.1890  0.2953  0.0974
31753W        W47887   2.995   1.489  11.873 -0.2352 -0.1500 -0.1866
31754W        W47888  10.446   5.660  14.527 -0.1975 -0.1237 -0.4639
31755W        W47889  14.786   4.591  12.880 -0.1005  0.2898 -0.0758
31756W        W47890  14.137  11.469  10.662 -0.0650 -0.2054 -0.1310
31757W        W47891  17.992  16.843   3.834  0.2704  0.0202  0.2424
31758W        W47892   1.365   5.827   4.605  0.1048 -0.0884  0.2386
31759W        W47893  18.915   9.080   3.637 -0.1208 -0.1029 -0.0285
31760W        W47894   2.115   9.750   2.279 -0.1628  0.0047  0.0830
31761W        W47895  13.737  13.281  12.027 -0.2037 -0.0022 -0.0992
31762W        W47896  14.558  12.643   2.390 -0.0643 -0.0042  0.0054
31763W        W47897   5.034   0.443   3.856 -0.1673  0.1242  0.2517
31764W        W47898   6.059  16.296   1.298 -0.0025  0.0047 -0.0673
31765W        W47899   7.095   5.914  12.089 -0.0300 -0.0195  0.2881
31766W        W47900  15.700   3.881  11.804  0.0863  0.2097 -0.2307
31767W        W47901   4.496  13.586  11.065  0.1096  0.1701  0.5056
31768W        W47902   5.490   2.257  10.315 -0.0319  0.0879  0.2762
31769W        W47903   2.685  14.005  11.772 -0.0262  0.0069 -0.1289
31770W        W47904  13.044   4.166  11.757 -0.1085  0.3768  0.1814
31771W        W47905   1.655   4.121  14.593 -0.1145 -0.0702  0.0329
31772W        W47906   4.077   8.902  10.815 -0.0807  0.1865 -0.3081
31773W        W47907   3.115   8.027   4.829 -0.3867 -0.0438  0.0441
31774W        W47908   3.152   2.137  13.112  0.0142  0.6494 -0.3297
31775W        W47909   3.628  14.394   4.405 -0.1811 -0.1067  0.0393
31776W        W47910  14.985   6.155   3.584  0.2400  0.2905 -0.3965
31777W        W47911  12.681  15.903   1.841 -0.0812  0.1057 -0.0524
31778W        W47912  13.689  11.634  14.194  0.1167  0.0422 -0.3167
31779W        W47913   4.697  19.121  10.035 -0.0039  0.2166  0.2420
31780W        W47914   8.705  18.022   3.057  0.2058  0.3842  0.2278
31781W        W47915  15.779  17.586  10.123 -0.2718 -0.0432  0.2636
31782W        W47916  13.290  10.641   5.194  0.0195  0.1558  0.0915
31783W        W47917  15.125  13.085   2.179  0.1006 -0.1450  0.1465
31784W        W47918  13.652  14.900   4.601 -0.3746  0.2623  0.1816
31785W        W47919  10.587  10.297  11.553 -0.0349 -0.2571 -0.2205
31786W        W47920  12.923   6.440   1.917  0.1518 -0.0830 -0.3122
31787W        W47921  15.000   1.756   1.479 -0.1275 -0.0530  0.1925
31788W        W47922   7.910   6.743   2.605 -0.0022  0.3043 -0.0110
31789W        W47923   3.717   4.284  14.831  0.0232  0.0714  0.4641
31790W        W47924   1.683  12.667  10.659  0.0871 -0.2246  0.1762
31791W        W47925  14.876  12.999   1.140  0.0612  0.4250  0.0477
31792W        W47926   3.434  16.166   1.203  0.2244  0.1613  0.0209
31793W        W47927  12.012  11.992  10.719 -0.2217 -0.1971 -0.1136
31794W        W47928   2.068  12.281   4.486  0.1408  0.1086 -0.4852
31795W        W47929   1.213  10.350  11.390  0.1176  0.3308 -0.2543
31796W        W47930   3.980   4.725  14.976  0.6540 -0.2706 -0.0302
31797W        W47931  13.227  14.996   1.485 -0.0564 -0.4008  0.0002
31798W        W47932   7.930  15.430   1.733  0.1211  0.2237 -0.2376
31799W        W47933  15.870  17.711   4.997 -0.1282  0.0892  0.3104
31800W        W47934  14.783  12.142   8.774 -0.1004  0.0474  0.2416
31801W        W47935   3.414  18.314  10.140 -0.0206  0.0948 -0.0721
31802W        W47936  13.202  15.038  12.730  0.2439  0.1778  0.0147
31803W        W47937   0.072  12.824   2.625 -0.1287 -0.1118 -0.0952
31804W        W47938   5.105   9.993  13.750 -0.2166 -0.0373 -0.1594
31805W        W47939   2.925  14.514  11.022  0.0499  0.1439  0.0346
31806W        W47940   0.251   6.465   3.705  0.0915  0.1781  0.0626
31807W        W47941   2.023   9.718  13.544 -0.2354  0.2005  0.1253
31808W        W47942   7.794   9.719   2.367  0.2780  0.0743 -0.3597
31809W        W47943   2.836  18.878   3.115 -0.0221 -0.2508 -0.0099
31810W        W47944  13.105   9.888  10.644  0.1224 -0.1060 -0.3877
31811W        W47945  10.665   9.684  14.367 -0.1237 -0.0822  0.0614
31812W        W47946  11.807  14.360   1.169  0.1243  0.1510  0.2543
31813W        W47947  12.607   6.621  13.531  0.3276 -0.2348 -0.0296
31814W        W47948   8.091  10.573   2.486 -0.0384  0.0996  0.3913
31815W        W47949   0.014  15.791  10.718 -0.1608  0.0070 -0.2889
31816W        W47950   7.590  14.303   3.680 -0.1809 -0.0480  0.2279
31817W        W47951   2.333   8.698  10.667 -0.1367 -0.0806 -0.1628
31818W        W47952   2.223  12.098   3.426  0.2058 -0.1458 -0.0922
31819W        W47953  16.349   7.097  12.396  0.0104  0.2294 -0.1488
31820W        W47954   1.952   4.739   3.811 -0.2577  0.2200 -0.1827
31821W        W47955  16.699   3.332   2.712 -0.1109 -0.1030 -0.0973
31822W        W47956  12.239  16.735  13.072  0.0483 -0.2078 -0.1076
31823W        W47957   9.891   4.967   5.263  0.5291  0.0942  0.0379
31824W        W47958  17.851  18.325   8.993 -0.2275  0.0348  0.3433
31825W        W47959  15.207   2.327  10.739 -0.2095 -0.1638  0.0042
31826W        W47960  15.447  14.227  10.840  0.1078 -0.0821 -0.1275
31827W        W47961  16.353   1.684  11.103 -0.2233  0.0704 -0.4045
31828W        W47962  13.058   1.869   1.735  0.1769 -0.1061  0.1634
31829W        W47963   6.929  10.342   2.253  0.1255 -0.0367  0.1823
31830W        W47964  10.154  11.683  11.004 -0.3758  0.0603  0.1798
31831W        W47965   9.542  12.938  12.433 -0.3471 -0.1769 -0.0274
31832W        W47966  15.293   1.419  10.816  0.0102 -0.1983 -0.0650
31833W        W47967  15.259   3.413   3.380 -0.0979  0.3620  0.1214
31834W        W47968   1.589  10.551   2.278  0.1216  0.2017  0.1753
31835W        W47969  14.571  12.163   5.134 -0.1394 -0.1525  0.1026
31836W        W47970   4.175  15.716  14.550 -0.0571 -0.0345  0.0800
31837W        W47971  12.308   2.528  10.742  0.3335  0.3179 -0.1515
31838W        W47972  13.004  13.892   0.561  0.0173 -0.0877 -0.0209
31839W        W47973  10.139   9.557  14.390 -0.0317 -0.0352 -0.0531
31840W        W47974   0.100  19.107   1.831 -0.1729  0.1667 -0.1532
31841W        W47975  10.101   9.763  10.804 -0.0116 -0.0085 -0.0007
31842W        W47976   2.525  10.814   1.481 -0.2840  0.2482  0.3687
31843W        W47977  15.086  12.880   0.692 -0.0979 -0.0668  0.1067
31844W        W47978  17.105   1.558   0.557 -0.1205  0.2873 -0.1091
31845W        W47979  12.217   8.351  12.447 -0.0312 -0.2865 -0.0865
31846W        W47980   4.766   2.249   3.257  0.3124  0.0832 -0.1617
31847W        W47981   5.534   1.083  13.038  0.1312 -0.0608  0.1382
31848W        W47982  18.926   4.800   3.177  0.2269 -0.3038 -0.1208
31849W        W47983  10.018  14.757   1.614  0.0312 -0.2129 -0.0016
31850W        W47984   9.811  13.771  13.711 -0.0128 -0.0880 -0.0621
31851W        W47985  16.672  17.285   3.679  0.4046 -0.0549 -0.1758
31852W        W47986   8.355   0.947   1.996  0.1863  0.1812 -0.1382
31853W        W47987   0.174   3.631   3.408 -0.1125 -0.0777 -0.2230
31854W        W47988  14.734   3.441  12.931 -0.0086 -0.0982  0.0285
31855W        W47989  14.307  15.733  15.169  0.1037  0.0026  0.0488
31856W        W47990   4.917  11.138  11.492  0.0918 -0.1723  0.0367
31857W        W47991  17.463  16.815  12.208 -0.1574 -0.1749 -0.2662
31858W        W47992   0.156   0.021   0.828 -0.1233 -0.0561  0.2855
31859W        W47993  16.046  12.718   2.344 -0.1473 -0.0590 -0.0364
31860W        W47994  16.453  18.008   1.654  0.2003  0.0671  0.1464
31861W        W47995  17.213  12.804   3.463 -0.1533  0.4152 -0.1496
31862W        W47996  11.457   5.805   9.618 -0.1734 -0.0007 -0.4047
31863W        W47997   0.000   6.117  11.181  0.1647  0.2166  0.0847
31864W        W47998  17.586  18.698  12.068 -0.2930 -0.5281  0.0597
31865W        W47999  18.346   0.903   2.083  0.0521  0.0303 -0.0436
31866W        W48000   5.080  17.527   0.627 -0.2388 -0.2905 -0.0460
31867W        W48001  13.162   4.108   4.217 -0.1331  0.1471 -0.0314
31868W        W48002   5.883   1.551   4.671  0.0157  0.0208 -0.2730
31869W        W48003   8.288   8.021  13.748  0.4609 -0.7306  0.2266
31870W        W48004   0.374  11.752   3.534  0.2280 -0.3276 -0.2927
31871W        W48005  11.205  13.467   3.483 -0.1895 -0.1126 -0.0915
31872W        W48006  11.039  18.357   2.500 -0.0055 -0.2910 -0.1701
31873W        W48007   2.682   7.039   2.173  0.0565 -0.1182 -0.2064
31874W        W48008  18.927  14.069  10.753 -0.0132  0.0334  0.0465
31875W        W48009   2.475  10.373  13.917 -0.0040 -0.2914 -0.0432
31876W        W48010  17.732  12.452   4.491  0.0241 -0.1291  0.0645
31877W        W48011   8.263  16.338   3.027  0.0132  0.1483 -0.0440
31878W        W48012   1.774   0.081  10.835 -0.1660 -0.1515 -0.0698
31879W        W48013  13.921  18.984   1.338 -0.0063  0.3921  0.1439
31880W        W48014  14.430   1.290  12.200 -0.0726 -0.1348  0.0272
31881W        W48015  12.835  13.226  11.586 -0.2053 -0.3061 -0.2203
31882W        W48016  15.072  11.865  12.248 -0.1218 -0.0623  0.0236
31883W        W48017  16.251   0.326  11.434 -0.3082 -0.2080  0.2214
31884W        W48018  14.344   1.146   1.463 -0.1226 -0.2530 -0.1079
31885W        W48019   5.684  16.801  13.872  0.4716 -0.0025  0.1892
31886W        W48020   0.505  13.276  11.838 -0.3214 -0.0045  0.2984
31887W        W48021   5.804   1.525   1.019 -0.2775 -0.0404 -0.2367
31888W        W48022   6.519   5.792  14.099 -0.0977 -0.1324  0.0792
31889W        W48023  11.444   2.972   3.615 -0.0779  0.0495 -0.0217
31890W        W48024   6.503   5.497  13.669 -0.1908 -0.1852 -0.0239
31891W        W48025  17.955  13.331  10.332 -0.0126 -0.2462  0.1103
31892W        W48026  13.614   5.520  13.313  0.0450 -0.0552 -0.0341
31893W        W48027  10.498   3.573   5.116 -0.0052  0.0167  0.2704
31894W        W48028   3.510  10.189   3.443 -0.3423  0.1071  0.0270
31895W        W48029  13.603   5.794  11.162  0.2351 -0.2996 -0.0678
31896W        W48030   7.037  15.316   2.817  0.2559 -0.1414  0.1095
31897W        W48031  14.476  11.848  15.185 -0.0225 -0.1831  0.0006
31898W        W48032  15.189  13.419  12.423 -0.0051 -0.2413 -0.1314
31899W        W48033   8.135  17.973  10.027  0.0161 -0.1275  0.0897
31900W        W48034  13.742  17.202  14.586 -0.0358 -0.0443 -0.0659
31901W        W48035  15.779  14.331  12.340  0.2019 -0.2928  0.0299
31902W        W48036  18.959  16.824  10.606  0.0320 -0.0124 -0.2237
31903W        W48037  15.877   0.332  10.271 -0.0384  0.4603 -0.0830
31904W        W48038   6.374  15.136  13.866  0.2385  0.1527  0.4852
31905W        W48039   2.324   9.699   4.357 -0.0820  0.1594 -0.2241
31906W        W48040  18.132  10.573   4.230  0.0807  0.1564  0.0957
31907W        W48041  10.884   9.874  11.328 -0.1850 -0.3476  0.3755
31908W        W48042   1.532   3.192   3.533 -0.0216  0.4611  0.2572
31909W        W48043   1.498  17.070  12.539  0.0157 -0.2933 -0.0869
31910W        W48044   4.686   4.869  13.013 -0.1008  0.0065 -0.1525
31911W        W48045  13.779   5.219  13.756 -0.2706 -0.0636  0.0069
31912W        W48046   0.210   3.023   4.394 -0.2098 -0.0522 -0.3260
31913W        W48047  17.683   2.190  12.373 -0.0875  0.2658 -0.0058
31914W        W48048  18.774  13.211  14.076 -0.0870  0.0378  0.1803
31915W        W48049   9.951  12.055   2.641 -0.0017 -0.0796  0.3953
31916W        W48050  14.099  11.031   5.053  0.1526 -0.0964 -0.1834
31917W        W48051  16.195  19.030   2.582  0.2013 -0.2271 -0.0927
31918W        W48052  11.139   8.908   1.755  0.2576 -0.0089  0.4735
31919W        W48053   3.762  12.997  11.014 -0.0114 -0.2146 -0.1909
31920W        W48054  13.911   9.375   1.232 -0.2238 -0.0992 -0.1250
31921W        W48055  16.733   2.574   2.555  0.0049  0.0268  0.0739
31922W        W48056   1.022  13.817  12.633  0.1973  0.1899  0.3061
31923W        W48057   8.174   2.467   1.728  0.1703  0.1690 -0.1973
31924W        W48058   1.110  10.348  15.120  0.1928 -0.0404 -0.0600
31925W        W48059   5.463   8.785  13.959  0.5585 -0.0443 -0.1977
31926W        W48060   5.904  17.579  15.095 -0.0594  0.3895 -0.0050
31927W        W48061   5.666  18.269  12.076  0.2245  0.1706 -0.2128
31928W        W48062  10.746  11.096   3.928 -0.1623  0.0937 -0.0159
31929W        W48063  12.940   0.348  12.981 -0.3371 -0.1805 -0.2373
31930W        W48064  12.058  17.436   1.556 -0.1949  0.2495  0.0595
31931W        W48065  14.038   6.996   3.645 -0.0819 -0.1309 -0.1726
31932W        W48066  11.424   3.711   3.421 -0.0113 -0.3270 -0.0321
31933W        W48067  15.174   1.890   3.419  0.0959  0.2307 -0.3107
31934W        W48068   0.331  17.510  11.198  0.4526  0.1393  0.0817
31935W        W48069  12.378   1.549   2.927  0.3395 -0.3121 -0.2254
31936W        W48070   5.289   9.703  12.464  0.1333 -0.5448 -0.3243
31937W        W48071  11.506  15.403   3.691  0.0248 -0.0347  0.1849
31938W        W48072  12.678  14.185  11.718 -0.0586 -0.1111 -0.2041
31939W        W48073  15.163   4.967  13.042  0.2670  0.1057  0.1239
31940W        W48074  18.101   6.763   5.531 -0.3363  0.0530 -0.1832
31941W        W48075  12.960  18.927   2.885  0.0634  0.3116 -0.2232
31942W        W48076   4.294   5.181  13.200  0.2046  0.1331  0.2604
31943W        W48077   9.172  11.795   0.668 -0.0232  0.0884  0.0391
31944W        W48078  11.861   8.074   2.407  0.1080 -0.0603 -0.1380
31945W        W48079  17.092  14.229  11.490 -0.1566 -0.0564  0.1001
31946W        W48080   3.459   1.473  15.139  0.2295 -0.1621 -0.1705
31947W        W48081  17.860  16.392   1.688  0.2430 -0.1025 -0.0330
31948W        W48082   2.108  15.174  10.699 -0.3120 -0.4238 -0.1254
31949W        W48083   1.820  10.960  12.107  0.0011 -0.1596 -0.0564
31950W        W48084  12.468   6.954  13.124 -0.0461  0.0067 -0.0505
31951W        W48085   7.988  13.026  11.505  0.2133 -0.2638 -0.0285
31952W        W48086  18.979  17.572   3.600  0.0580  0.3152  0.2422
31953W        W48087  11.243   3.684  14.873  0.1459 -0.0631 -0.0988
31954W        W48088   6.942   4.895   1.826  0.3351  0.0108 -0.2961
31955W        W48089   4.491   1.153  14.976  0.0874 -0.1899  0.0324
31956W        W48090  18.100   3.211   4.890  0.2660  0.1704  0.1511
31957W        W48091  11.274  14.045  11.696  0.0333  0.0370 -0.0395
31958W        W48092   1.716  17.588   2.332  0.4116 -0.0362 -0.3242
31959W        W48093  10.090  11.254   0.471  0.0172  0.2097  0.3329
31960W        W48094   0.911  12.861   0.701 -0.0156 -0.0881 -0.0102
31961W        W48095  11.810  13.536   0.441  0.0549  0.0431  0.2950
31962W        W48096   1.767  12.903   0.746 -0.1891  0.1063 -0.0745
31963W        W48097   7.812   2.407   3.828  0.0523  0.0342  0.0469
31964W        W48098   1.168  13.139   1.814 -0.3993  0.1523  0.1672
31965W        W48099   4.199   5.971   1.053 -0.2753  0.0494  0.1088
31966W        W48100   6.759  11.478  14.616  0.0073  0.2195 -0.0651
31967W        W48101  14.437  10.745  13.090 -0.1205  0.1985  0.0933
31968W        W48102  10.820   3.703   2.363 -0.2026  0.2251 -0.1612
31969W        W48103  17.259   7.625   1.185  0.1767  0.1065 -0.2165
31970W        W48104   4.847   5.172  14.204  0.0905  0.0411  0.1642
31971W        W48105   5.409  18.547   3.016  0.0566 -0.1162 -0.0919
31972W        W48106   8.875   8.062   3.319  0.0288  0.0822  0.1975
31973W        W48107   8.289   3.322   3.844 -0.1419  0.2059 -0.0344
31974W        W48108  17.411   7.515   3.737 -0.4186  0.0357  0.1400
31975W        W48109   8.445  19.002   2.117 -0.1930  0.1948  0.2282
31976W        W48110  18.979   3.455  12.587 -0.0630 -0.3024 -0.0050
31977W        W48111   8.044  11.790  11.409  0.0745 -0.2310 -0.2621
31978W        W48112  10.342  13.805  14.704 -0.0386 -0.4601  0.1142
31979W        W48113  11.477  14.489  11.777 -0.2243  0.0057 -0.3216
31980W        W48114   2.694  15.125  14.800 -0.2668  0.1518  0.0633
31981W        W48115   4.682  10.237  13.861  0.1009  0.1663 -0.0434
31982W        W48116  15.067   7.119  15.003 -0.1200 -0.0535 -0.0621
31983W        W48117   8.698  13.934   2.027  0.1109  0.1459 -0.2327
31984W        W48118   7.867  15.696  12.363  0.2325  0.1159  0.0674
31985W        W48119   8.424  14.630   4.424  0.2732 -0.2021 -0.4008
31986W        W48120   9.288  18.730  13.911 -0.2320 -0.0023 -0.1455
31987W        W48121  12.433   1.994  10.761 -0.1729  0.1504  0.1024
31988W        W48122  10.972   3.798  12.299  0.2147  0.1307 -0.0684
31989W        W48123  10.074   0.594   0.322 -0.1377  0.1392 -0.0122
31990W        W48124  17.818   5.530   1.553  0.3121 -0.3198 -0.1478
31991W        W48125   6.109  12.842   3.342  0.0916 -0.0251 -0.1438
31992W        W48126   6.956   3.209  14.659  0.2849  0.1205 -0.0322
31993W        W48127   3.298   4.569  11.541  0.0763 -0.4204  0.1636
31994W        W48128   9.915   9.892  13.500 -0.1018  0.0081  0.1953
31995W        W48129   0.418  17.486  14.483 -0.1274 -0.0995 -0.1309
31996W        W48130   8.450   7.001   4.092  0.1319 -0.3234 -0.1687
31997W        W48131   2.665   7.214   3.973 -0.2800 -0.0813 -0.5805
31998W        W48132  15.155   6.969  13.090  0.2913  0.0044  0.0540
31999W        W48133  17.417  14.924  12.272 -0.0695 -0.5340  0.0337
32000W        W48134  13.498   8.864   3.680 -0.0741  0.1502  0.0086
32001W        W48135   3.758  16.380   2.862  0.2011 -0.1838 -0.1110
32002W        W48136   7.118  11.820  13.735  0.2369 -0.1373 -0.2459
32003W        W48137  15.832  13.261   3.729 -0.4008 -0.0329  0.0721
32004W        W48138   3.164   5.403  12.449  0.2375 -0.0643 -0.1445
32005W        W48139  17.109  14.836   2.819 -0.0423  0.0907 -0.1939
32006W        W48140  13.785   0.481  10.240  0.0448  0.1590 -0.2781
32007W        W48141   3.549  10.175  11.329  0.1560  0.0062 -0.0099
32008W        W48142  11.522   9.940   3.372 -0.0423  0.0789  0.0943
32009W        W48143  10.430  15.957  14.640 -0.0330 -0.1646 -0.1390
32010W        W48144   4.938  12.747   1.470  0.1109 -0.2705  0.2231
32011W        W48145   5.442  14.606   2.174  0.0535  0.0314  0.2304
32012W        W48146  11.583   6.689  13.107 -0.3538 -0.0313 -0.0829
32013W        W48147   8.041  13.629   4.825 -0.1670 -0.1374 -0.1780
32014W        W48148   2.432   4.187  11.407 -0.3096 -0.0544 -0.1210
32015W        W48149   3.249   7.416  12.611 -0.1350 -0.0496  0.1999
32016W        W48150  10.620   6.326  13.150  0.2334 -0.1592 -0.0176
32017W        W48151   7.934  12.954   4.808 -0.4685 -0.0889  0.1795
32018W        W48152  13.393  10.312   2.636 -0.1012  0.2148 -0.1226
32019W        W48153  13.160  13.018   5.436  0.0138 -0.0210  0.1170
32020W        W48154   6.549   8.932   0.966  0.0038 -0.0976  0.0885
32021W        W48155   4.246  14.478  11.938 -0.2134 -0.1216 -0.0200
32022W        W48156   5.868  18.932   1.192 -0.3362  0.1061  0.0127
32023W        W48157  11.244  11.812  12.173 -0.1821  0.0268  0.1614
32024W        W48158  14.177  16.874   1.941 -0.0004 -0.0560  0.1617
32025W        W48159  17.937  14.815   2.004  0.1168 -0.1952 -0.1170
32026W        W48160   8.834   6.462   4.997  0.1313  0.0606  0.1661
32027W        W48161  18.421   2.405  11.844  0.1178  0.0613 -0.3259
32028W        W48162   3.991   1.668   2.012 -0.0947 -0.1808 -0.0577
32029W        W48163   3.206  14.091  12.780  0.1138 -0.1962  0.4417
32030W        W48164   1.775  12.875  11.993 -0.2309 -0.4798 -0.4126
32031W        W48165  15.499  16.507   0.217 -0.3414  0.0175  0.1963
32032W        W48166   9.762   4.162  13.506 -0.0823 -0.2837  0.0038
32033W        W48167  14.681  13.715   0.218  0.2492 -0.1523 -0.0702
32034W        W48168   8.891  10.657   1.648 -0.0839 -0.0666  0.3175
32035W        W48169  10.334  17.302  11.145 -0.1711 -0.0466  0.0213
32036W        W48170  11.709  16.235  12.502  0.0444 -0.5705  0.1372
32037W        W48171   0.341   7.808  10.280 -0.1114  0.1688  0.1142
32038W        W48172  18.059   1.640  11.073 -0.0437  0.1140  0.0720
32039W        W48173  17.875  13.898   2.617 -0.0396  0.2026  0.1390
32040W        W48174  18.403  16.658  10.457  0.1314  0.4619  0.2164
32041W        W48175  14.613   1.726  13.070  0.1830  0.1369  0.0992
32042W        W48176   5.720  16.814   0.534 -0.1956 -0.0110  0.0095
32043W        W48177   7.446  14.846   3.746 -0.0536 -0.0577 -0.0308
32044W        W48178   2.752   4.465  12.263  0.0643  0.2110 -0.2440
32045W        W48179  14.714   5.951   4.976 -0.3973  0.0991 -0.2458
32046W        W48180  18.314   5.840  11.228 -0.2946 -0.1297  0.0995
32047W        W48181  17.573  13.768  13.977 -0.0087  0.1373 -0.0365
32048W        W48182  13.290   2.429  10.590  0.3248  0.2383 -0.0054
32049W        W48183  15.677   7.213   2.777 -0.0546  0.0235 -0.0066
32050W        W48184   8.064  13.062  13.936 -0.3482 -0.1621 -0.1027
32051W        W48185   3.166  17.248   0.533 -0.2214 -0.0833  0.0234
32052W        W48186  14.377   8.590  14.001 -0.1665 -0.1109 -0.1903
32053W        W48187   7.964  17.806   4.178 -0.0391  0.2650 -0.1102
32054W        W48188  11.451   5.703  13.407 -0.0480  0.1137 -0.2478
32055W        W48189  14.655  10.972   3.943 -0.2439  0.0430  0.0094
32056W        W48190  19.026  10.887   4.093  0.0305  0.0467  0.2745
32057W        W48191   0.878  11.043  13.685 -0.0387 -0.0714 -0.0963
32058W        W48192   4.973   1.907  11.784  0.0797 -0.1010  0.0551
32059W        W48193   8.400   6.352   4.684 -0.0799 -0.1297 -0.1619
32060W        W48194   6.939  10.584   4.072  0.3315 -0.0707 -0.0075
32061W        W48195   6.546   9.386  14.760  0.3188 -0.0267  0.2216
32062W        W48196  15.186   8.950   3.511  0.1198 -0.2686  0.2176
32063W        W48197   8.585  17.968   0.121  0.2296  0.2466  0.1658
32064W        W48198   5.298  12.767   5.719 -0.3303 -0.0358 -0.3016
32065W        W48199   4.088  17.837  12.041 -0.1934  0.4058  0.1471
32066W        W48200  10.007   6.817   4.202  0.3431  0.1502  0.0006
32067W        W48201   2.529   3.420  12.998  0.1050 -0.1998 -0.0061
32068W        W48202   4.923  16.673  10.773 -0.2016  0.1991  0.0604
32069W        W48203   2.988   1.231   9.862 -0.1098  0.0677  0.1787
32070W        W48204  14.078   8.454  11.955  0.3200 -0.2141 -0.1988
32071W        W48205   0.926  11.073   0.219 -0.4520 -0.0425  0.2325
32072W        W48206   1.380   5.478   0.572  0.0883  0.0351  0.3052
32073W        W48207   2.810  11.956  11.504  0.4000  0.1324  0.1428
32074W        W48208  11.258   3.260  10.563 -0.1327 -0.4927  0.0381
32075W        W48209   8.751  17.009   0.094 -0.1016 -0.0512 -0.1179
32076W        W48210  18.722   7.061  10.344  0.4413 -0.0720  0.3005
32077W        W48211  19.108  12.211   4.556  0.1649  0.0446 -0.3565
32078W        W48212   4.146   2.088   0.056 -0.0963 -0.2990  0.1203
32079W        W48213   8.534  14.837   0.167  0.3876  0.2707  0.1201
32080W        W48214   6.682  17.307  11.918  0.1467  0.0033 -0.1408
32081W        W48215   5.001  10.591   1.811  0.2374  0.5502  0.1176
32082W        W48216  17.408  14.248   4.788  0.2667  0.1619  0.5355
32083W        W48217  16.320   5.716  11.422 -0.0126  0.3174  0.2955
32084W        W48218  10.720   1.808   1.129  0.0061 -0.1023  0.3699
32085W        W48219  12.070   7.743   1.211  0.2625  0.1115 -0.0026
32086W        W48220  13.816   6.214   0.593 -0.1395 -0.3313 -0.0883
32087W        W48221   2.435   1.883   1.509  0.1494  0.0196 -0.0460
32088W        W48222   2.274  14.723  14.828  0.1103  0.0815 -0.0267
32089W        W48223  13.587   4.547   4.529  0.1749 -0.2412 -0.2353
32090W        W48224   2.418  14.647   4.046  0.0295 -0.4148  0.4652
32091W        W48225   0.872   3.007  14.734  0.0443 -0.1720  0.0781
32092W        W48226  15.099   4.532  10.807  0.1791 -0.2644 -0.1936
32093W        W48227  17.129   2.589  14.884  0.0848  0.0258 -0.0928
32094W        W48228  17.277   7.144   2.835  0.3057 -0.3424  0.0750
32095W        W48229  16.377   8.901   1.391 -0.2562 -0.0836  0.1155
32096W        W48230   9.723  16.329   2.492 -0.0066 -0.0679 -0.0200
32097W        W48231   7.649   0.867   3.729 -0.0730  0.0430 -0.1311
32098W        W48232  15.668   2.705  14.478 -0.0804 -0.0595 -0.1576
32099W        W48233   5.057   5.467   0.667  0.2511  0.2396  0.1586
32100W        W48234  16.311  18.345  14.754 -0.0541 -0.4454 -0.3846
32101W        W48235  15.860   7.763  12.805 -0.1862 -0.4036  0.1702
32102W        W48236  13.037   5.380   1.685 -0.3736 -0.0512 -0.3176
32103W        W48237   9.292  12.196  15.150  0.2127  0.1175  0.2973
32104W        W48238  13.507  11.048  14.127 -0.0747 -0.2109 -0.0437
32105W        W48239   7.400   9.315  13.034 -0.1020  0.3750  0.0983
32106W        W48240   4.127   6.335  10.281  0.2803 -0.2098 -0.0911
32107W        W48241  16.535   2.430   0.899  0.1882 -0.0080  0.2403
32108W        W48242   4.091  16.201  14.506  0.3317  0.0815 -0.2254
32109W        W48243   9.813   2.322  13.779 -0.2835 -0.0411 -0.1967
32110W        W48244  17.012   7.111  11.172  0.0886  0.0032 -0.3568
32111W        W48245   3.510   0.693   0.956 -0.1071 -0.2118  0.0789
32112W        W48246   3.831   2.438   0.273  0.0290 -0.3689  0.0809
32113W        W48247  14.375   3.543   3.635 -0.0691  0.0423 -0.0019
32114W        W48248  15.900  14.171   9.798  0.0978  0.3663  0.2218
32115W        W48249  18.430  11.026   2.745  0.2623  0.0355 -0.0977
32116W        W48250  13.183   8.012   3.797  0.0591  0.0634  0.2506
32117W        W48251  16.503   0.486  10.515 -0.2121  0.1240  0.2138
32118W        W48252   4.618  17.756   3.628 -0.1256 -0.3014  0.1518
32119W        W48253  17.023  13.431  11.785  0.0540 -0.2134 -0.2457
32120W        W48254   4.957  12.270   2.348 -0.3825  0.2177  0.3704
32121W        W48255  19.068  11.432   3.984 -0.0186  0.2575  0.1689
32122W        W48256   1.912  18.239   4.609 -0.0060 -0.0438 -0.0394
32123W        W48257  11.384   8.432   3.652 -0.0790  0.1255  0.0137
32124W        W48258   1.390   3.762  13.326 -0.0411 -0.0894  0.2037
32125W        W48259   4.777   1.008   0.980 -0.2677  0.1115  0.3296
32126W        W48260  14.756   4.954  10.929  0.1248 -0.1078  0.0943
32127W        W48261  12.308   2.431  12.106 -0.3581  0.0246 -0.0302
32128W        W48262   9.935   7.393   5.196  0.2751 -0.0169 -0.0877
32129W        W48263   8.272   4.490  14.726  0.3286  0.2416 -0.0969
32130W        W48264  12.411  12.006   4.125  0.4554 -0.0887 -0.1466
32131W        W48265   8.156  10.598  14.343  0.0775 -0.0246 -0.1090
32132W        W48266  18.646   5.415  14.384 -0.3295  0.1614  0.0838
32133W        W48267  18.018   3.236  11.791 -0.0037 -0.1171 -0.0835
32134W        W48268   4.124  10.656   3.017 -0.1363  0.1441  0.0185
32135W        W48269   4.568   4.020  13.492  0.0952 -0.0337  0.0668
32136W        W48270   0.011   5.639  10.264 -0.0988  0.1128  0.2479
32137W        W48271   9.803   2.632  10.467 -0.1903  0.1183  0.2221
32138W        W48272   2.194   0.722   1.512 -0.0072  0.2464 -0.1397
32139W        W48273   2.541  17.491   4.579 -0.0525  0.0856 -0.0265
32140W        W48274  15.316  18.996   4.858  0.0829 -0.0607  0.0266
32141W        W48275  19.145  10.800  11.959 -0.1837  0.1382 -0.0836
32142W        W48276  17.184   0.395  11.142 -0.1242  0.2267 -0.3093
32143W        W48277  14.131  14.282   3.333  0.3455 -0.0221 -0.0459
32144W        W48278   7.067   5.691   0.107 -0.0498  0.2671  0.1800
32145W        W48279  18.652  17.760  14.046  0.3188  0.0501  0.0891
32146W        W48280   6.244  13.039  13.660  0.2242 -0.0268 -0.1884
32147W        W48281  16.049   6.093  13.266  0.2706  0.1635 -0.1712
32148W        W48282   2.979   2.499  12.122 -0.3007 -0.0951  0.1144
32149W        W48283   4.851   4.411  12.047  0.0174 -0.0083 -0.1616
32150W        W48284   0.287   6.142  15.180 -0.1397  0.0698 -0.0443
32151W        W48285   1.225   1.968   0.304  0.0960  0.2995  0.0033
32152W        W48286   8.427   4.686   3.328  0.2116  0.1930 -0.0872
32153W        W48287   7.593  18.421   3.687 -0.0269  0.4062  0.2986
32154W        W48288   9.247   1.775  12.910 -0.0444 -0.0839 -0.1194
32155W        W48289  11.058  13.413  13.628 -0.0414 -0.3561 -0.1269
32156W        W48290   7.650   6.926   5.312 -0.0810  0.1357  0.0129
32157W        W48291   8.983  17.562  10.878  0.2020  0.1106 -0.1533
32158W        W48292   3.669  14.604   3.043 -0.1096  0.0691  0.2558
32159W        W48293   8.736  18.385   5.122  0.0203 -0.3236 -0.1052
32160W        W48294   7.938   9.959  14.341 -0.1957 -0.0958 -0.0394
32161W        W48295  14.570   2.737   4.674  0.1121 -0.1407  0.1269
32162W        W48296   4.581   2.684   3.505  0.2307  0.0430  0.3071
32163W        W48297   3.762  10.129  10.854 -0.0188 -0.2213  0.0221
32164W        W48298  16.162  13.383   0.560  0.0418  0.0635 -0.1309
32165W        W48299  13.826   1.901  14.040  0.0374  0.0258  0.1360
32166W        W48300  12.254   3.199  14.145  0.3257 -0.1928  0.0879
32167W        W48301  15.486   7.736  11.465  0.0455  0.2853 -0.0964
32168W        W48302   8.860   5.883   2.200  0.2304  0.1639  0.1999
32169W        W48303   8.401  19.022   0.561  0.3327 -0.1660  0.2906
32170W        W48304   8.808   3.225   1.902  0.0152 -0.2840  0.1336
32171W        W48305   9.918  12.962  13.389 -0.2695  0.2109  0.0399
32172W        W48306  11.746   0.436   3.855  0.0499 -0.0616  0.1914
32173W        W48307   5.637   0.611  12.043  0.0157 -0.1652 -0.1390
32174W        W48308  18.318  18.790   2.371  0.2801 -0.1827 -0.1944
32175W        W48309  17.000   3.108  14.947  0.1860 -0.0334  0.1758
32176W        W48310  15.837   8.994  14.035  0.1645  0.0918 -0.1736
32177W        W48311  18.039   6.540   2.155 -0.1709  0.1746 -0.0322
32178W        W48312   8.294   6.451   1.791 -0.1769 -0.0334 -0.1451
32179W        W48313   0.850   7.334  15.109  0.1754 -0.2235  0.0785
32180W        W48314  16.944   3.602   0.310  0.1410  0.0972 -0.2883
32181W        W48315  12.299   9.754  11.666 -0.3077  0.4796  0.1271
32182W        W48316  17.424   1.044  12.210  0.3152 -0.0512  0.0839
32183W        W48317   7.379  14.877  15.115  0.3465 -0.0536 -0.0993
32184W        W48318   1.121  14.504   3.407  0.0660  0.1209  0.1275
32185W        W48319  17.042   9.185   2.106  0.2332 -0.3417  0.1535
32186W        W48320  11.500   0.503  12.268 -0.2649  0.3620 -0.2765
32187W        W48321   5.740  11.321  11.704  0.1501 -0.0928  0.3785
32188W        W48322   5.625   4.446  10.830  0.1323  0.1297  0.2034
32189W        W48323  11.380   9.756  12.039  0.2221 -0.1147 -0.0248
32190W        W48324   9.281   4.149   6.085 -0.2765 -0.2326  0.4032
32191W        W48325   9.678   0.347   3.378 -0.1243 -0.0129  0.0582
32192W        W48326   0.174   7.306   9.836  0.0272  0.0818 -0.1633
32193W        W48327  11.725   7.821  14.146  0.0014 -0.1899  0.2083
32194W        W48328   7.244  12.113  12.267 -0.5274 -0.0781 -0.2208
32195W        W48329  16.712  11.959   2.461  0.2535  0.0489 -0.0177
32196W        W48330   4.688   3.062   4.352  0.1735  0.0944  0.1024
32197W        W48331   2.055   9.261   1.727  0.0455 -0.1070 -0.1307
32198W        W48332  16.959  10.617  10.602  0.0668 -0.1349  0.1130
32199W        W48333  17.959   8.158  13.557 -0.2621  0.1339  0.2293
32200W        W48334   3.052  13.359   1.018  0.1808  0.1312  0.2327
32201W        W48335  14.367   6.883  11.137  0.2008 -0.3319  0.3500
32202W        W48336   1.586  12.097  13.032 -0.3683  0.1704 -0.0725
32203W        W48337  10.391   7.638  12.894  0.3037  0.0968  0.0654
32204W        W48338   5.499   9.807   4.994  0.1053  0.0018  0.2423
32205W        W48339   4.733   7.416  13.913 -0.1048 -0.0988 -0.3025
32206W        W48340  17.190   4.111   1.305 -0.1083  0.0858  0.2869
32207W        W48341   2.062   8.142   4.635  0.1864  0.0203 -0.1609
32208W        W48342  14.836   9.237   4.390 -0.1922  0.0938 -0.0627
32209W        W48343  15.409   0.480   0.069  0.3997  0.0597 -0.1643
32210W        W48344  17.005   2.935   4.357 -0.2038  0.2367 -0.0465
32211W        W48345   0.733   6.046   2.103  0.0292 -0.1271  0.2086
32212W        W48346  11.226   9.475  12.527 -0.0734 -0.1387 -0.0820
32213W        W48347   1.072  13.337   0.991 -0.0188 -0.0087 -0.2689
32214W        W48348   9.428   3.430  12.603  0.0486 -0.0139  0.2029
32215W        W48349   4.272   1.307   1.815  0.2506 -0.0746 -0.2285
32216W        W48350  11.245   3.046  11.953 -0.1167 -0.0278  0.1301
32217W        W48351  14.025  11.040   9.237 -0.3166 -0.1567  0.1101
32218W        W48352  10.226  10.564   3.416 -0.1835  0.0987 -0.1394
32219W        W48353   7.059  13.843   0.710 -0.1435  0.0282 -0.0677
32220W        W48354  17.149  15.147   3.163  0.1424  0.1148 -0.2892
32221W        W48355   9.826  16.840   2.034 -0.1206  0.1412  0.4043
32222W        W48356  14.798   4.508  14.348 -0.2373 -0.1722 -0.2222
32223W        W48357  10.629   0.090   4.432  0.1112 -0.2944  0.0669
32224W        W48358   6.569  13.786  13.231 -0.0156 -0.2619 -0.0122
32225W        W48359  17.566   1.869  11.732 -0.0465 -0.1549  0.2170
32226W        W48360   8.483   9.185   5.865  0.2593  0.0788 -0.0893
32227W        W48361  13.552  10.786   3.882  0.0298  0.3398  0.0692
32228W        W48362   0.746   1.931   2.413  0.2410  0.1639 -0.3304
32229W        W48363  14.391  17.004  13.943 -0.2609  0.0641 -0.1226
32230W        W48364   9.683   1.742  10.647  0.1042  0.1069  0.0829
32231W        W48365  13.832   1.638  15.011  0.2488 -0.0692  0.0836
32232W        W48366   8.208  15.094   5.440  0.1035  0.1098  0.1181
32233W        W48367   4.196   4.581   1.337  0.0013 -0.0566  0.1742
32234W        W48368   0.428   0.339   2.632 -0.4299 -0.1866 -0.1347
32235W        W48369   3.264  14.734   4.491  0.2040 -0.0604  0.0201
32236W        W48370  11.420   6.587  12.154 -0.2322  0.0333  0.0343
32237W        W48371   1.432   8.277  13.218  0.0909  0.1007 -0.0498
32238W        W48372  10.673  17.699   3.105  0.0770 -0.1184 -0.1396
32239W        W48373   4.607  14.623   3.489  0.1016  0.2454  0.0988
32240W        W48374   9.200   6.331   5.314  0.2549  0.1063 -0.1625
32241W        W48375   8.389  17.166   4.547 -0.2061  0.0465 -0.2591
32242W        W48376   3.125   5.857   0.288  0.1782  0.0872  0.0558
32243W        W48377   4.157   3.425   3.736 -0.0660  0.1107 -0.0303
32244W        W48378   4.630  11.864   5.506 -0.1689 -0.0882  0.1049
32245W        W48379  14.815  12.312  12.933  0.4411 -0.2206  0.1771
32246W        W48380  10.985  17.608  14.695 -0.0312 -0.0506  0.2144
32247W        W48381  18.341  10.713  13.138 -0.0345  0.2845 -0.3089
32248W        W48382   0.773   5.478   9.963 -0.1975 -0.2033 -0.1213
32249W        W48383  10.161   9.236   1.910 -0.1600  0.1618  0.0346
32250W        W48384  14.733   9.456  14.951 -0.0387 -0.0907  0.0563
32251W        W48385  17.501   7.005  10.547  0.2139 -0.1257  0.0296
32252W        W48386   8.068  15.698  14.175  0.1242  0.0172  0.1186
32253W        W48387  14.654  15.233   2.458  0.1400 -0.0465 -0.0733
32254W        W48388  14.677  13.718  12.241 -0.1887 -0.0586 -0.4226
32255W        W48389  14.752   3.940   1.318 -0.1553 -0.0751  0.2345
32256W        W48390  18.826  12.223  11.674 -0.1007 -0.1054  0.1370
32257W        W48391   2.854  10.308   0.730  0.0576  0.0014  0.0135
32258W        W48392   3.470   6.904   2.191  0.2018 -0.0835  0.0126
32259W        W48393   2.420  16.263   2.322  0.0633 -0.0235  0.0655
32260W        W48394   4.095  16.649  14.756 -0.1853 -0.2043 -0.3108
32261W        W48395   1.835  14.975   4.405  0.1222  0.1881  0.1490
32262W        W48396  12.281   8.744  15.031  0.1798 -0.2937 -0.2666
32263W        W48397   6.297  12.134   1.965  0.4595 -0.2747 -0.4466
32264W        W48398  17.883   1.554   2.176  0.1729 -0.2806 -0.4272
32265W        W48399  10.916   9.529   4.618  0.2299 -0.1246 -0.0312
32266W        W48400   1.889  16.236   0.348  0.2131  0.3842  0.0547
32267W        W48401   0.059  11.529  10.350  0.1780  0.1082 -0.0130
32268W        W48402  18.196  17.304  12.439  0.0269  0.0918 -0.4837
32269W        W48403  15.087  16.523   0.577  0.0160 -0.0204 -0.3215
32270W        W48404  12.492   7.795  13.744 -0.1442 -0.0257  0.0611
32271W        W48405   6.521  13.561   0.961  0.0317 -0.2696 -0.0213
32272W        W48406  15.312   6.471   3.220 -0.4031  0.1632 -0.0576
32273W        W48407   3.849  12.617   1.275  0.0487 -0.2291 -0.5652
32274W        W48408   6.187  17.070  13.673  0.0122 -0.1786 -0.3410
32275W        W48409  16.349  15.962   2.175 -0.0469  0.1932 -0.3712
32276W        W48410   7.954   4.594   4.846  0.3601  0.1249 -0.0558
32277W        W48411   4.620  15.368   2.868  0.2221  0.1369  0.1119
32278W        W48412   1.279  14.198  10.623 -0.0646 -0.0164  0.0550
32279W        W48413  14.213  16.299   1.907 -0.0646 -0.1956  0.1003
32280W        W48414   9.108  18.338   5.506  0.1332  0.5389 -0.0999
32281W        W48415   3.511  17.940   4.402  0.0250  0.0274 -0.1641
32282W        W48416   5.088   5.866   1.837  0.0652 -0.2847 -0.0915
32283W        W48417   4.370  17.307   1.970 -0.0006 -0.2190  0.0718
32284W        W48418   0.745   9.435  12.427  0.2283 -0.0757  0.3236
32285W        W48419  11.938   5.083   0.268  0.3765 -0.2115 -0.0935
32286W        W48420   9.702   9.970   0.508 -0.0931 -0.0959  0.1728
32287W        W48421  18.892  13.288  13.606  0.1568  0.0920  0.3407
32288W        W48422   8.618  15.307   4.801  0.0294 -0.0929 -0.2478
32289W        W48423   3.525  13.314   0.953  0.0361  0.3025 -0.0423
32290W        W48424   1.998  19.039   2.600 -0.0318 -0.1796  0.1280
32291W        W48425   4.975   2.337   1.775 -0.1629  0.2151 -0.1849
32292W        W48426   6.274  12.681   2.652 -0.1884 -0.1188  0.1518
32293W        W48427  11.487   6.999   2.457 -0.2890  0.0456  0.0143
32294W        W48428  14.410   2.923   2.353 -0.2653 -0.0281  0.1469
32295W        W48429   5.628  14.319  10.632  0.3826 -0.2416  0.1738
32296W        W48430   1.163   7.772  14.965 -0.1221  0.3650 -0.1346
32297W        W48431   7.205   0.529   4.844  0.0483 -0.0774 -0.0105
32298W        W48432   7.282  13.911  14.203 -0.0154 -0.0088 -0.0934
32299W        W48433   1.126  10.358   4.025 -0.2601  0.0952 -0.2109
32300W        W48434  13.229   9.551  14.051 -0.0096 -0.3101  0.4457
32301W        W48435  17.605  18.568   4.533 -0.0730 -0.2753 -0.1920
32302W        W48436  14.465  17.319  14.325 -0.0465  0.1158 -0.1142
32303W        W48437   3.236   9.294   0.105 -0.4323 -0.1191  0.2170
32304W        W48438  13.997  11.670  14.642 -0.2787 -0.2087  0.0185
32305W        W48439   1.533   9.135   2.039  0.4020  0.0555  0.1834
32306W        W48440  15.311  15.887  10.375 -0.0096 -0.2603 -0.1452
32307W        W48441   7.588  11.449  12.734 -0.3525 -0.1746 -0.0335
32308W        W48442  17.235   5.285  10.403  0.2070  0.3252  0.0607
32309W        W48443   0.891  18.502   2.697  0.2093  0.1817 -0.2964
32310W        W48444   1.529   4.227  13.228  0.0059 -0.0176 -0.0643
32311W        W48445  10.122  14.789   4.866  0.0032 -0.1254 -0.1281
32312W        W48446   9.587   9.556  12.170 -0.0849  0.0189  0.0259
32313W        W48447   4.019  13.512   4.854 -0.3083  0.0256 -0.1997
32314W        W48448  16.280  10.621   2.442  0.0216 -0.3489  0.2440
32315W        W48449  11.961   9.255   5.514  0.1124  0.0903  0.0663
32316W        W48450  16.269  17.534  10.268  0.1053  0.0414 -0.0489
32317W        W48451  18.928   8.689  13.431  0.1245 -0.2050 -0.0988
32318W        W48452   0.665   8.853  13.757  0.0191  0.1207 -0.3582
32319W        W48453  18.730  16.888   1.195 -0.0051  0.0077 -0.2296
32320W        W48454  18.517  14.079  15.175  0.2148 -0.0260 -0.0173
32321W        W48455   9.619   2.687   3.195  0.0931 -0.2624  0.0257
32322W        W48456  12.766   5.830   5.079 -0.5021 -0.5185  0.2879
32323W        W48457   2.916   1.583  10.954  0.2541  0.0931  0.0921
32324W        W48458  16.958  16.993  12.285  0.1206 -0.1287  0.1506
32325W        W48459   8.602   2.554   3.491 -0.0803  0.0695 -0.0246
32326W        W48460   7.245  10.327  14.689  0.1112  0.1505  0.0018
32327W        W48461  16.335  12.094  14.078 -0.1340 -0.2475 -0.0926
32328W        W48462   6.559  19.074   2.395 -0.0839  0.5467 -0.2470
32329W        W48463   0.620   9.883   3.516 -0.3778 -0.1234  0.0161
32330W        W48464   7.263  10.775   1.522 -0.0038  0.0911  0.3596
32331W        W48465  11.159  16.193  10.469 -0.0555  0.0166 -0.3739
32332W        W48466   3.566  14.854   3.444 -0.2213 -0.1713 -0.3517
32333W        W48467   0.262   7.630  15.142  0.0548 -0.2100 -0.1584
32334W        W48468  10.241   9.535   4.887  0.0725 -0.1919 -0.0225
32335W        W48469   9.641   1.193   3.181 -0.2696 -0.1018 -0.1043
32336W        W48470   1.680  12.282  14.567  0.0364 -0.0583 -0.2505
32337W        W48471   8.553   2.690   1.174 -0.1860 -0.0998  0.0886
32338W        W48472  11.633  17.100  10.757  0.0009  0.0913 -0.3899
32339W        W48473  15.793  15.290  12.384 -0.4745 -0.0537  0.1170
32340W        W48474   9.218   3.506   2.018  0.1318  0.0383  0.0548
32341W        W48475   3.529   4.035  11.705 -0.0119 -0.1387 -0.2483
32342W        W48476  17.978   1.523   5.151 -0.0052 -0.0953 -0.0479
32343W        W48477  15.546  14.671  10.435  0.3248 -0.2749  0.0717
32344W        W48478   0.804   7.041  11.057  0.1536  0.1287 -0.0746
32345W        W48479   5.183   4.834   0.161  0.0623  0.5859 -0.0104
32346W        W48480   4.900  14.530   1.150 -0.1846 -0.0790  0.0290
32347W        W48481   4.257  16.823  11.786  0.1355  0.1111 -0.2514
32348W        W48482  14.646   5.025   0.067  0.3525 -0.3585  0.3855
32349W        W48483   3.644  15.790  11.414 -0.4719 -0.3514 -0.0168
32350W        W48484   9.567   6.479   5.561 -0.1425 -0.2183  0.0867
32351W        W48485  11.259  19.040  14.202  0.0259  0.0830  0.0290
32352W        W48486  16.515  17.147   1.427 -0.1444  0.1990 -0.2727
32353W        W48487  12.125   7.827  12.439 -0.1234  0.0654 -0.1641
32354W        W48488   7.218   3.265   1.291 -0.3012  0.0236  0.3003
32355W        W48489   0.512  14.563   0.438  0.0566 -0.1958  0.1937
32356W        W48490   9.272   0.063  13.918  0.3947 -0.0350 -0.0720
32357W        W48491   9.013  10.886   1.223  0.3651  0.0257 -0.0948
32358W        W48492   4.338  14.995   2.083 -0.1537 -0.0393  0.1743
32359W        W48493   9.976  16.344   5.640 -0.1878 -0.2274 -0.1791
32360W        W48494  18.302   5.370   2.478 -0.5697 -0.0634 -0.1237
32361W        W48495  11.474  18.211   2.360 -0.0305  0.3293 -0.0069
32362W        W48496   6.106   5.085  12.417 -0.1174  0.1663 -0.0377
32363W        W48497   4.762   3.779  13.127 -0.0628  0.1572  0.2296
32364W        W48498   5.250   9.407   2.294 -0.0736 -0.0430 -0.4497
32365W        W48499   1.526   8.148  10.803  0.3802  0.2497  0.1412
32366W        W48500  12.951   3.335  13.029 -0.0831  0.1306  0.0152
32367W        W48501  12.410  15.335  15.105 -0.3445 -0.1646 -0.0074
32368W        W48502   4.794   5.587  11.256  0.4381 -0.0176  0.1488
32369W        W48503   0.396  12.221  10.522 -0.1135  0.0587  0.1380
32370W        W48504  15.917   1.385   3.520  0.0931 -0.2031 -0.2838
32371W        W48505   7.260  10.466   3.617 -0.0310 -0.1193  0.1043
32372W        W48506  11.206   7.477   0.150 -0.0496  0.0986  0.4287
32373W        W48507  18.790  12.394  15.176  0.0674 -0.0069 -0.1675
32374W        W48508   3.968   7.157  10.465 -0.0039 -0.0787  0.1505
32375W        W48509   1.714   5.139  14.302 -0.1361  0.0349  0.1669
32376W        W48510  10.216  13.380  14.422  0.0153 -0.0306  0.0089
32377W        W48511   8.868   0.027   1.880  0.0594 -0.1604 -0.0488
32378W        W48512  10.616  18.911   0.168 -0.0163 -0.0658 -0.1621
32379W        W48513   9.854  15.879  14.461  0.1656  0.1355 -0.1030
32380W        W48514  16.588  12.333   2.937  0.2451 -0.3754  0.1588
32381W        W48515  10.353   4.565  13.203 -0.0685 -0.0347 -0.4425
32382W        W48516   0.849   6.951   2.351  0.0273 -0.2722 -0.1448
32383W        W48517   4.187   6.541  14.329  0.0090 -0.2013 -0.2872
32384W        W48518   6.876   8.127   3.445  0.0286  0.3861  0.0797
32385W        W48519   8.160   9.999  11.139 -0.1889 -0.3081 -0.0179
32386W        W48520  17.062  18.017   3.028  0.0111 -0.0724 -0.1478
32387W        W48521  18.112  18.087   4.177 -0.3057 -0.1055 -0.1596
32388W        W48522   8.866   9.751   1.518 -0.2967  0.1691 -0.0103
32389W        W48523  11.805  13.354  15.074  0.4088 -0.5713  0.0184
32390W        W48524   0.120  15.729   3.572 -0.1911  0.1711 -0.1004
32391W        W48525   2.781  18.764  12.466  0.0002 -0.0323 -0.1578
32392W        W48526   3.875   4.637  11.514  0.1261  0.1624  0.3586
32393W        W48527  11.516  15.801  11.115  0.2066 -0.2430  0.1757
32394W        W48528  14.292   7.175   1.046  0.1260 -0.2218  0.1191
32395W        W48529   2.322  10.308   3.716  0.0575  0.1846 -0.2535
32396W        W48530  10.717   6.682   1.094  0.0540  0.0038  0.0769
32397W        W48531  11.567  16.126   3.084 -0.0460 -0.1718 -0.1128
32398W        W48532  14.223   1.564  14.083  0.1993  0.2235  0.0080
32399W        W48533   7.751  18.654   5.233  0.1699  0.0978  0.2182
32400W        W48534  13.309   2.833  10.866 -0.1355 -0.0415 -0.1157
32401W        W48535  17.180   4.267   4.654  0.2417 -0.0722 -0.2208
32402W        W48536  12.909  14.770   4.802 -0.0888 -0.1214 -0.0141
32403W        W48537  15.158  15.106  12.794 -0.0506 -0.2415 -0.2481
32404W        W48538   2.974  11.879  10.986  0.1248 -0.1320  0.3360
32405W        W48539  17.866  11.693   3.657  0.1525  0.0310  0.2436
32406W        W48540  15.956   6.208   4.414 -0.2353  0.0530  0.0169
32407W        W48541   3.185  18.107  15.068  0.0808  0.0055 -0.1955
32408W        W48542  11.173  17.352   1.952  0.0480  0.0203  0.0699
32409W        W48543  15.607  19.017   3.656  0.0794  0.2961  0.0180
32410W        W48544   4.768   3.531   0.800  0.1915 -0.0126  0.2395
32411W        W48545  11.027  15.730   3.868  0.0468 -0.0524  0.1418
32412W        W48546  11.290   1.596   4.735 -0.1628 -0.0207 -0.1622
32413W        W48547  14.374   1.700  11.721 -0.0144  0.0858  0.1114
32414W        W48548  11.011   1.408  10.213  0.1108  0.0252  0.1581
32415W        W48549  12.308  17.647  13.055  0.0664 -0.0721 -0.1701
32416W        W48550  17.792   1.774   1.288 -0.2942  0.0291 -0.2531
32417W        W48551  13.951  13.544  13.915 -0.1792 -0.2141  0.0984
32418W        W48552  14.895  17.297   2.987  0.1659 -0.3814  0.1109
32419W        W48553  14.587  12.903   9.724  0.2808  0.0787 -0.1276
32420W        W48554   8.247   5.462   0.488 -0.4018  0.5581  0.0270
32421W        W48555  14.755  13.272   1.840  0.0046 -0.0940 -0.3358
32422W        W48556   1.804   2.012   2.523 -0.1600  0.0062  0.2247
32423W        W48557   6.755  11.327  11.997 -0.0998  0.2385  0.1666
32424W        W48558   6.254  12.689  13.294 -0.0428  0.1800 -0.2303
32425W        W48559   9.833  11.619  13.711  0.0123  0.0340  0.3266
32426W        W48560   2.573   8.318   2.177  0.1635  0.2496  0.2068
32427W        W48561   5.842  14.243   3.916  0.2703  0.1500  0.1208
32428W        W48562  16.178  14.944   5.773 -0.2357 -0.1843  0.0749
32429W        W48563  17.231   5.680  13.027 -0.2962 -0.4002  0.2542
32430W        W48564   1.419  15.178  13.407 -0.1195  0.0207  0.0046
32431W        W48565   7.419   0.505  11.352 -0.4582  0.1973 -0.0989
32432W        W48566  11.723   5.018  10.815 -0.0827  0.0952 -0.3841
32433W        W48567   8.547   9.694  10.275 -0.0856 -0.0871  0.0785
32434W        W48568  17.316   9.678  10.843  0.2351 -0.0449  0.4246
32435W        W48569   7.671   5.632  12.221  0.0122  0.0340 -0.2738
32436W        W48570  17.566   3.176   9.325 -0.0442 -0.0578 -0.4202
32437W        W48571  10.784   5.922   5.904  0.3118  0.6053 -0.0796
32438W        W48572   0.839   9.808   2.147 -0.0340  0.0123  0.0198
32439W        W48573  10.939   1.748   4.245 -0.1628 -0.0832  0.1616
32440W        W48574   4.906  12.849  12.311 -0.1294  0.0546  0.2764
32441W        W48575   3.258  14.731  11.714 -0.1702 -0.2618 -0.0161
32442W        W48576  16.353  12.295   0.931 -0.3584 -0.1739 -0.2200
32443W        W48577   0.826   1.891   5.232 -0.0468 -0.1103  0.2411
32444W        W48578   4.187  17.673   2.966  0.0595 -0.0079  0.0580
32445W        W48579   3.566   4.989   1.832 -0.2586 -0.0237 -0.0306
32446W        W48580  13.355  17.163   0.033 -0.0004  0.0976 -0.0402
32447W        W48581  17.681  14.455   1.048 -0.0299  0.3149  0.2245
32448W        W48582  14.438  14.870  11.122  0.3403  0.2389  0.3628
32449W        W48583  13.134  10.841   3.577  0.3334 -0.2507  0.0666
32450W        W48584  15.720  11.441   0.577  0.0086 -0.2785 -0.0405
32451W        W48585   6.567   7.190   3.818 -0.1045  0.2037  0.0678
32452W        W48586  15.730  15.545  10.516  0.1427 -0.0640 -0.1203
32453W        W48587   8.017  13.939  12.696 -0.3130 -0.3050  0.1493
32454W        W48588  14.835   1.257  14.669  0.3400  0.1213 -0.0250
32455W        W48589   5.532  11.496   2.491  0.0586 -0.0333  0.0101
32456W        W48590   0.492   3.446   1.260  0.1385 -0.2868 -0.0197
32457W        W48591   8.026   8.797   0.628 -0.2327 -0.0904 -0.2695
32458W        W48592  19.101  17.092  12.322  0.0965  0.0833  0.0289
32459W        W48593  10.215   2.999  14.873  0.0156  0.0300 -0.0513
32460W        W48594  15.513   2.142  14.447 -0.0083 -0.2969 -0.0513
32461W        W48595   3.721   7.804   0.995  0.1533  0.3272  0.1088
32462W        W48596   1.457  18.344  13.262  0.4170 -0.1369 -0.2479
32463W        W48597  17.087  18.929  11.414  0.0616  0.1854  0.3160
32464W        W48598  18.125   1.300   0.036  0.2345 -0.3570 -0.2950
32465W        W48599  14.100  17.747  15.013 -0.5244 -0.1031  0.2382
32466W        W48600   5.499  16.706   1.773 -0.0773 -0.1791  0.0394
32467W        W48601   4.029  18.020   4.806 -0.2159  0.1288 -0.1796
32468W        W48602  15.986   8.084   1.674  0.0022 -0.0147  0.1583
32469W        W48603   5.073  13.858   4.988 -0.0531  0.2449 -0.0275
32470W        W48604   9.799  15.171   4.741 -0.0059  0.0094  0.3794
32471ION     NA48605  17.412  14.313   2.011 -0.1892 -0.0955  0.1526
32472ION     NA48606   5.353   4.048   9.769  0.2257  0.1126 -0.0391
32473ION     NA48607   9.963  14.813  11.907 -0.1473 -0.3017 -0.0749
32474ION     NA48608   0.840   6.417   9.707 -0.1258 -0.1973 -0.0410
32475ION     NA48609  17.549   2.479  13.685 -0.1863 -0.1893 -0.1233
32476ION     NA48610   3.591   9.965   4.355  0.0746  0.1487  0.1008
32477ION     NA48611  14.586   1.137   9.615 -0.0209 -0.2388  0.0459
32478ION     NA48612  14.328   5.550   9.753  0.3083 -0.1264  0.1236
32479ION     NA48613   2.644  12.670   5.346 -0.1495  0.2204 -0.1070
32480ION     NA48614  14.601   3.060   9.554  0.0851 -0.0034  0.1831
32481ION     NA48615   4.233  15.438   5.396 -0.1837 -0.3697  0.1754
32482ION     NA48616  11.842   4.227   5.485  0.1517 -0.2564  0.1695
32483ION     NA48617  15.627   7.619   0.475  0.0943  0.0388 -0.1420
32484ION     NA48618   2.430   6.212   9.673  0.0011  0.0130 -0.1268
32485ION     NA48619   9.272  12.583  10.376 -0.0108  0.0583 -0.3070
32486ION     NA48620   6.763  12.240   9.826  0.1423 -0.0701 -0.0640
32487ION     NA48621  10.154   4.715   5.684 -0.1664 -0.2486 -0.1455
32488ION     NA48622   3.443   6.488   5.087  0.1228 -0.0275  0.1887
32489ION     NA48623  14.942  13.970   3.677  0.0798 -0.1549 -0.0525
32490ION     NA48624   6.118  14.232   1.484 -0.1377  0.1461 -0.1126
32491ION     NA48625   8.720   9.707   5.957 -0.0617  0.0226 -0.2060
32492ION     NA48626  14.945  18.871   9.672 -0.3387  0.0337  0.0059
32493ION     NA48627  16.909   2.246   9.701 -0.0166  0.0427  0.3106
32494ION     NA48628   9.940   4.976   4.151 -0.1945  0.0274 -0.1544
32495ION     NA48629   8.251   1.728   5.199  0.2493 -0.2079 -0.1068
32496ION     NA48630  13.270   0.537   9.959 -0.1882 -0.5300  0.1946
32497ION     NA48631  10.431   6.658  10.277 -0.1901 -0.3690 -0.0333
32498ION     NA48632   0.735  16.240   5.506  0.1161 -0.1044 -0.1409
32499ION     NA48633  13.830  16.709   1.557 -0.1451 -0.0778  0.0895
32500ION     NA48634   7.396  15.329  10.970  0.0599  0.1007 -0.0092
32501ION     NA48635   9.982   5.687  12.902  0.0014  0.0893 -0.0165
32502ION     NA48636  15.658  11.984   9.586 -0.1268 -0.0447  0.1236
32503ION     NA48637  14.344  12.511   1.970  0.0217 -0.1767 -0.0424
32504ION     NA48638  16.590  11.536   4.857 -0.1492  0.0485  0.1028
32505ION     NA48639   9.278   9.354   9.953  0.0179 -0.1253 -0.0648
32506ION     NA48640   1.321   6.275  15.192  0.0884  0.2396  0.1349
32507ION     NA48641  15.474   9.715  10.557 -0.2493 -0.0233  0.2484
32508ION     NA48642  15.343   3.870   9.630  0.1570  0.0465  0.2737
32509ION     NA48643   0.906  15.808   9.808 -0.2544  0.1404  0.2327
32510ION     NA48644  16.741   3.158   5.214  0.1822 -0.2110 -0.2949
32511ION     NA48645   4.081   2.837   0.737 -0.1015 -0.1646  0.0343
32512ION     NA48646   2.263   0.690  15.125 -0.3212  0.1067  0.3234
32513ION     NA48647   2.944   2.491   0.629  0.2295 -0.0559 -0.2978
32514ION     NA48648   2.906   2.927   9.577 -0.3048  0.0459 -0.0910
32515ION     NA48649   7.078   2.274   9.421 -0.1826 -0.2157  0.4126
32516ION     NA48650   4.695  17.222   3.054  0.1236  0.1926  0.0419
32517ION     NA48651   9.659  11.785  11.128  0.1904  0.0914  0.2830
32518ION     NA48652  16.328   8.483   9.506 -0.2263 -0.0901 -0.2014
32519ION     NA48653  10.723  14.726   5.647 -0.1227 -0.3418 -0.0312
32520ION     NA48654   7.990   2.154   9.545 -0.0333 -0.1275  0.0997
32521ION     NA48655   5.450  19.018  11.827  0.0983  0.1156  0.0360
32522ION     NA48656   5.978  14.228  11.025 -0.1340 -0.3341  0.0176
32523ION     NA48657  13.713  18.261   5.389 -0.2853 -0.4882 -0.1265
32524ION     NA48658  15.804   8.194   3.756  0.0317  0.1002 -0.1182
32525ION     NA48659   0.787   0.310   2.269  0.1910  0.1501 -0.0634
32526ION     NA48660   1.717   0.147   9.592 -0.0335 -0.0688  0.5075
32527ION     NA48661  11.465   6.939  10.141 -0.0258  0.0926 -0.1210
32528ION     NA48662  17.114  11.287   3.961 -0.0026  0.1834  0.2629
32529ION     NA48663   0.285   9.723   9.368  0.0650 -0.0769  0.2600
32530ION     NA48664   1.967   6.471  10.895 -0.2109 -0.0405  0.1207
32531ION     NA48665  18.818   4.587  14.822 -0.0754  0.0258  0.1615
32532ION     NA48666   9.649  16.915  12.160 -0.2222 -0.0313 -0.2551
32533ION     NA48667  14.955   9.905  11.526  0.1894 -0.1251  0.0282
32534ION     NA48668   4.853  19.146   9.577  0.1489 -0.1571 -0.0718
32535ION     NA48669  15.007  11.803   4.373 -0.1018  0.1677 -0.0675
32536ION     NA48670   6.820   5.514   9.907 -0.2258  0.1955  0.2567
32537ION     NA48671  15.434   3.340   9.672 -0.2437  0.1107  0.3076
32538ION     NA48672   7.454  18.154   4.711 -0.3125 -0.0368 -0.3441
32539ION     NA48673  13.435  14.421   9.295  0.0220 -0.1492  0.1985
32540ION     NA48674   3.597   3.017  11.554  0.1657 -0.1094  0.2343
32541ION     NA48675   3.765   0.363   9.841 -0.2415 -0.2500 -0.0127
32542ION     NA48676   1.448  13.740   5.373 -0.2611  0.0106 -0.0699
32543ION     NA48677  17.912   8.109   9.308 -0.4011 -0.5226  0.3894
32544ION     NA48678   1.269   0.279   1.405  0.1412  0.2216 -0.1165
32545ION     NA48679  16.767   6.055   4.535  0.0973 -0.0406 -0.2133
32546ION     NA48680  14.534   7.292   9.733  0.0366 -0.0162  0.1533
32547ION     NA48681   5.528  11.950   5.766 -0.1998  0.2972 -0.1164
32548ION     NA48682   5.092   9.206  10.040 -0.0816  0.0447  0.0807
32549ION     NA48683  14.810   1.477   5.464  0.1811  0.2593 -0.2799
32550ION     NA48684  10.892  13.620   9.935  0.0755 -0.1223 -0.2403
32551ION     NA48685   0.012  14.843   9.662 -0.0509  0.0243 -0.0395
32552ION     NA48686  18.067   5.163   9.498 -0.3045 -0.0166  0.0039
32553ION     NA48687  12.651  11.024   0.442 -0.0950 -0.0054 -0.0189
32554ION     NA48688   3.786   3.258  13.868  0.3018  0.2169  0.2327
32555ION     NA48689  16.531  10.840  10.348  0.0667 -0.0568  0.0127
32556ION     NA48690  11.598  11.971   9.915 -0.1643  0.3668  0.1067
32557ION     NA48691   9.028   2.804   4.286  0.0531 -0.1879 -0.2497
32558ION     NA48692  11.161  15.074   9.754 -0.2607 -0.1199 -0.2448
32559ION     NA48693  15.166  10.434   9.349  0.0073  0.2874  0.3548
32560ION     NA48694   4.785  16.989   9.904 -0.0283  0.0944  0.2847
32561ION     NA48695  11.536   4.908  10.371 -0.2180 -0.0666  0.0513
32562ION     NA48696  16.416   3.159  10.719  0.0757  0.2372  0.0917
32563ION     NA48697   3.498  11.050   9.414 -0.3220 -0.4488  0.0554
32564ION     NA48698  13.139   7.616   5.472  0.2683  0.3108  0.0078
32565ION     NA48699   9.523  10.687   0.877  0.1020 -0.0839  0.0169
32566ION     NA48700  13.565   1.750   2.610 -0.1148 -0.2247  0.2740
32567ION     NA48701   2.278  18.067   9.473  0.2729  0.1279 -0.1017
32568ION     NA48702   1.378  14.530  11.041  0.3029  0.1865  0.1573
32569ION     NA48703   8.472  16.733  10.432  0.1606  0.3814 -0.0543
32570ION     NA48704  14.376  17.505   9.899 -0.0655  0.1918 -0.0685
32571ION     NA48705  12.197   6.340  13.926  0.1361  0.3711  0.1287
32572ION     NA48706   8.058   8.111  10.378  0.4199  0.4103  0.2433
32573ION     NA48707  13.020  11.535  14.820 -0.0716 -0.3206 -0.0198
32574ION     NA48708   4.894   7.876   9.758 -0.0703  0.1825  0.1789
32575ION     NA48709   5.251  10.156   1.655 -0.0083  0.3113  0.0878
32576ION     NA48710  16.450  17.114  10.108 -0.1398  0.0066  0.0438
32577ION     NA48711   2.932   1.599   5.422  0.0802  0.1636  0.0287
32578ION     NA48712  12.800  18.707   5.295  0.0118  0.3560  0.3258
32579ION     NA48713  12.241   4.971   9.992 -0.4185 -0.1734 -0.0737
32580ION     NA48714   3.950  18.447   0.904  0.4011  0.1359  0.1750
32581ION     NA48715   5.449  16.340   5.539  0.0073  0.4145 -0.0578
32582ION     NA48716   8.620   5.303  14.538 -0.0789  0.2689  0.0871
32583ION     NA48717   2.637   7.149   4.485 -0.0782 -0.0729  0.3864
32584ION     NA48718  11.499  13.101   5.388  0.2093  0.3378  0.0932
32585ION     NA48719   5.514  13.366  10.196 -0.2121  0.0675  0.2950
32586ION     NA48720  11.818  17.626  10.913 -0.3695  0.1435 -0.0080
32587ION     NA48721  15.289  11.881   4.850  0.0149 -0.0211  0.0498
32588ION     NA48722  18.293  11.335   9.523 -0.0350  0.3186 -0.2375
32589ION     NA48723   9.811   6.507  12.984 -0.0152 -0.1868 -0.0866
32590ION     NA48724  16.238   8.052  14.613  0.0369  0.1523  0.0009
32591ION     NA48725   2.929   7.962  11.621 -0.3749  0.0264  0.1262
32592ION     NA48726  10.625  15.422  14.043  0.0858 -0.0200  0.3670
32593ION     NA48727   1.724  17.255   9.743  0.2852  0.1100  0.4172
32594ION     NA48728  12.469   1.999   9.908 -0.2971  0.0214  0.0772
32595ION     NA48729  17.084  18.496   1.479 -0.4940 -0.0909 -0.2496
32596ION     NA48730  11.633  17.255   1.745 -0.2121 -0.0497  0.0313
32597ION     NA48731   1.865   4.165   5.143  0.1035 -0.1599  0.0120
32598ION     NA48732  15.450  13.018  13.949  0.2895 -0.0422  0.0078
32599ION     NA48733   7.169  10.994  10.271 -0.0693 -0.0398  0.2084
32600ION     NA48734  15.149   9.489   9.603  0.0869  0.0968 -0.1782
32601ION     NA48735  11.637  11.118  13.035 -0.2129  0.2166  0.1302
32602ION     NA48736   1.536  13.383   0.979 -0.0397  0.0152 -0.0252
32603ION     NA48737   3.124  15.569  11.444 -0.3386 -0.2157 -0.1383
32604ION     NA48738  10.778  15.344   5.324  0.0785 -0.0933  0.2250
32605ION     NA48739   8.942  13.576  10.361  0.1304  0.5282  0.3532
32606ION     NA48740   7.372   1.532   4.310 -0.1353  0.0483 -0.1892
32607ION     NA48741   7.870  13.269   1.946  0.2170  0.1837 -0.1037
32608ION     NA48742  12.120   0.704   1.575  0.3129 -0.0993 -0.1658
32609ION     NA48743   6.051   0.987   9.457 -0.2664  0.0771  0.1176
32610ION     NA48744   6.582  10.113  10.171 -0.4330 -0.0309 -0.0351
32611ION     NA48745   8.700   6.735  11.159  0.2791 -0.1615 -0.1425
32612ION     NA48746  17.372   7.860   4.490 -0.1383  0.1345  0.0292
32613ION     NA48747   6.096   9.696   5.727 -0.1030  0.0257 -0.3376
32614ION     NA48748  11.601   3.558  15.200 -0.0362 -0.0607 -0.1819
32615ION     NA48749   4.837  15.221   9.849 -0.0534 -0.1971 -0.2065
32616ION     NA48750   6.935   3.655   9.855 -0.3523  0.2403  0.1937
32617ION     NA48751  13.261  13.214   1.867 -0.0750 -0.3086 -0.0444
32618ION     NA48752   4.921  16.082   9.872  0.0976 -0.4156 -0.2055
32619ION     NA48753  17.034  17.888   9.865 -0.1887 -0.0586 -0.3588
32620ION     NA48754   8.276   1.976   4.318 -0.1782  0.0558 -0.2651
32621ION     NA48755  13.508   9.475   9.774  0.0944 -0.1376  0.2029
32622ION     NA48756  15.886   2.141  14.144 -0.2072 -0.0134 -0.0454
32623ION     NA48757  19.125  15.756   9.690  0.0390  0.2104  0.0042
32624ION     NA48758  14.835  13.324   9.488  0.2470  0.2217  0.0730
32625ION     NA48759   1.750  10.848   9.293 -0.0957  0.0826 -0.2494
32626ION     NA48760  12.948  15.815   9.746 -0.0840  0.3258 -0.2108
32627ION     NA48761  17.515   9.511   9.429  0.2873  0.2552 -0.0395
32628ION     NA48762   9.821   8.749   5.779 -0.0422  0.3443 -0.0693
32629ION     NA48763   0.973  17.192   9.920  0.1452 -0.2908 -0.1691
32630ION     NA48764   3.189   4.644   9.582 -0.0062 -0.0925  0.0889
32631ION     NA48765  14.456  18.771   4.908  0.2955 -0.0156 -0.0719
32632ION     NA48766   0.449   0.324   9.685 -0.1789 -0.2902 -0.1738
32633ION     NA48767   6.258   1.948   4.381  0.1963  0.1367  0.0078
32634ION     NA48768   3.948   1.220   9.653  0.1703  0.1985  0.2931
32635ION     NA48769   2.329   7.821   0.669 -0.1804 -0.2401  0.0372
32636ION     NA48770   8.276  17.743  14.125 -0.1714  0.0310  0.1039
32637ION     NA48771  11.254   1.233   9.861 -0.2901  0.3864 -0.1970
32638ION     NA48772  13.051  18.911   9.433  0.2088 -0.1994 -0.1605
32639ION     NA48773  18.795   4.406   9.783  0.2252  0.0485 -0.1449
32640ION     NA48774   0.276   2.760   9.608  0.0146  0.2031  0.3138
32641ION     NA48775   0.901  16.952  11.076  0.3801  0.3602  0.3274
32642ION     NA48776   8.906   0.865   2.079  0.1960 -0.1751  0.3587
32643ION     NA48777   4.578  15.583  11.504  0.1074 -0.0509  0.0922
32644ION     NA48778  10.098   9.627   5.782 -0.0612  0.0132 -0.3143
32645ION     NA48779   0.485  13.206   2.762  0.2625  0.1407  0.0413
32646ION     NA48780  13.274  13.355   3.539  0.2568 -0.3138  0.0206
32647ION     NA48781  13.643   9.344   2.467 -0.3575  0.0878 -0.1176
32648ION     NA48782  11.561  12.626  14.884 -0.0697 -0.4933  0.3193
32649ION     NA48783   5.150  17.230  12.004 -0.2323  0.1346  0.2959
32650ION     NA48784   7.788  11.572   5.810  0.1995 -0.2566 -0.0861
32651ION     NA48785   2.856  18.586   4.457  0.0475  0.0817  0.3053
32652ION     NA48786  12.777   6.436  10.036 -0.0020 -0.1794 -0.2799
32653ION     NA48787  18.389   7.010   9.238  0.0658  0.1970  0.3667
32654ION     NA48788   7.465   9.677   9.901  0.1994  0.2402  0.2310
32655ION     NA48789  16.347  12.767  10.073  0.1782 -0.4583  0.3573
32656ION     NA48790   4.967   3.258   9.465 -0.0849  0.1409 -0.4731
32657ION     NA48791   0.748  16.422   9.743  0.3712  0.3927  0.0728
32658ION     NA48792  16.770  16.150   5.402 -0.1439 -0.2618  0.0506
32659ION     NA48793  17.289   8.420  11.981  0.1059  0.0215  0.1380
32660ION     NA48794  16.680  18.499  14.453  0.0427 -0.0626  0.2211
32661ION     NA48795   6.692   3.650   5.101  0.1930 -0.4236  0.0117
32662ION     NA48796  11.948  14.944   9.747  0.1297  0.1052 -0.1704
32663ION     NA48797  18.321   6.755  10.240 -0.1773  0.1399  0.1238
32664ION     NA48798  13.530   8.398   9.797  0.1552  0.0162 -0.2948
32665ION     NA48799  18.368   2.440  11.269 -0.3357 -0.1337 -0.1214
32666ION     NA48800   8.698  13.413   9.905 -0.1505  0.3257  0.0281
32667ION     NA48801   0.961  13.680   9.784  0.1897 -0.0168 -0.1829
32668ION     NA48802  18.933  11.950   9.637 -0.0517  0.1051 -0.0431
32669ION     NA48803   1.845   9.367   9.133  0.2511  0.0696 -0.1446
32670ION     NA48804   9.375  18.484   9.324 -0.4652  0.0302 -0.0497
32671ION     NA48805  10.741  18.938   9.504  0.1871  0.1809 -0.0872
32672ION     NA48806  15.735  11.232   9.162  0.1333  0.0815  0.1012
32673ION     NA48807   4.941  14.055   0.896 -0.0051 -0.2754  0.0383
32674ION     NA48808  15.342  14.626   9.392 -0.1630 -0.0489  0.0810
32675ION     NA48809  17.377   0.944   9.666 -0.1135 -0.1188 -0.3437
32676ION     NA48810   6.015  11.112   0.520 -0.1225  0.1828 -0.3594
32677ION     NA48811  16.852  10.228   9.356 -0.1277  0.0088  0.0937
32678ION     NA48812   2.481  11.361  10.041 -0.1076 -0.1573 -0.1435
32679ION     NA48813  15.295  12.351  10.922 -0.2528  0.1672  0.2927
32680ION     NA48814  12.321   0.804   4.988  0.1074 -0.0035 -0.1508
32681ION     NA48815  10.338   0.704   9.617  0.0582 -0.0277 -0.1651
32682ION     NA48816   3.379   0.989   5.325  0.0413 -0.0317 -0.2535
32683ION     NA48817   5.192   4.813  11.286 -0.2656  0.0475  0.1279
32684ION     NA48818  12.803   0.233  13.439  0.1683  0.0406  0.0325
32685ION     NA48819   8.536   7.054  12.047  0.2265  0.1298  0.0591
32686ION     NA48820  19.122  10.027   4.724 -0.0191  0.0699 -0.2288
32687ION     NA48821   7.298  12.239   1.444 -0.0844 -0.1989 -0.1742
32688ION     NA48822  19.058  10.784  11.444  0.1584 -0.2375  0.1495
32689ION     NA48823   4.792   2.383   9.583 -0.2762  0.0384 -0.3178
32690ION     NA48824   1.782  12.427   9.573 -0.1637 -0.1361 -0.0507
32691ION     NA48825   5.863  16.949   3.774  0.2392 -0.1282  0.1654
32692ION     NA48826   0.576   7.792  14.785  0.1627  0.2155 -0.4185
32693ION     NA48827   1.761   0.576   3.116  0.0969 -0.0071 -0.3097
32694ION     NA48828   8.832  10.565   9.547 -0.1480 -0.2467  0.0204
32695ION     NA48829   2.865  16.530   4.477 -0.0715 -0.1759 -0.5107
32696ION     NA48830  10.252   5.678  10.539 -0.4274  0.0165  0.3828
32697ION     NA48831  18.578   8.713   9.494  0.1813 -0.1109  0.3932
32698ION     NA48832  13.180  13.948   9.223  0.1047  0.0265  0.0228
32699ION     NA48833  19.043   7.682  13.989  0.3385 -0.1193 -0.0827
32700ION     NA48834  10.538  14.571   9.950 -0.1961  0.0991  0.2078
32701ION     NA48835  14.326  17.678  13.880 -0.0115  0.3065  0.3153
32702ION     NA48836  16.135  15.843  10.344  0.1718  0.1827 -0.2049
32703ION     NA48837  18.833  14.861  12.241  0.3342  0.1787 -0.1828
32704ION     NA48838  18.071   7.599   9.398  0.1792  0.1929 -0.0552
32705ION     NA48839   8.798   3.062  14.580 -0.0284  0.2336  0.0077
32706ION     NA48840   8.021   7.039   5.753  0.2939 -0.0905  0.2443
32707ION     NA48841   3.033   9.923  11.311 -0.2179 -0.3191  0.3879
32708ION     NA48842   6.490  13.019  10.026 -0.0145 -0.2096 -0.0406
32709ION     NA48843  15.564   1.395   9.784 -0.1431  0.0791 -0.0315
32710ION     NA48844   4.026  10.652  10.031  0.0755 -0.0048  0.0509
32711ION     NA48845  16.159   9.027   3.670 -0.0173 -0.2403  0.1879
32712ION     NA48846  13.448   5.149   9.814  0.1203 -0.2202 -0.3126
32713ION     NA48847  13.965   7.968  12.890  0.3147 -0.1856  0.3081
32714ION     NA48848   9.010  18.736   9.641 -0.2457 -0.3544  0.0281
32715ION     NA48849   8.224  18.870   9.722  0.3758  0.1848 -0.1733
32716ION     NA48850  17.657  14.863   9.846 -0.0572  0.1634 -0.1219
32717ION     NA48851   1.712   3.637   9.669  0.1356  0.0909  0.0719
32718ION     NA48852  15.995  10.736   9.271  0.0257 -0.2390 -0.1107
32719ION     NA48853   3.022   0.221   9.887  0.0972 -0.1621 -0.1465
32720ION     NA48854  13.609   1.282   9.822  0.0415 -0.0395 -0.0275
32721ION     NA48855  18.222  10.265   1.342  0.2305  0.1754  0.1537
32722ION     NA48856   2.736   9.718   9.081 -0.0752  0.1264  0.0127
32723ION     NA48857   9.662  18.253  10.274 -0.3626  0.0910  0.1229
32724ION     NA48858   6.272  18.610  11.661  0.2508 -0.1274  0.0580
32725ION     NA48859   5.316   6.826   0.835 -0.3640  0.3604  0.2787
32726ION     NA48860  13.840   5.500   0.337  0.1482  0.0073  0.4536
32727ION     NA48861  10.440  10.481   5.773  0.2080  0.0615 -0.0208
32728ION     NA48862  13.590   0.054   1.663  0.3530  0.0877  0.0303
32729ION     NA48863  18.813  16.905   9.726  0.0947  0.1029  0.0996
32730ION     NA48864  10.443  15.516  10.075  0.0735 -0.4268 -0.3408
32731ION     NA48865   5.912   7.040  13.026 -0.1794 -0.0802 -0.0507
32732ION     NA48866   6.451  15.447  10.235  0.1092  0.0589 -0.3040
32733ION     NA48867  13.714   7.536   9.895  0.0932 -0.2700 -0.0894
32734ION     NA48868  17.508   3.366   5.537  0.0915 -0.0770 -0.0283
32735ION     NA48869   3.564  16.668   9.610  0.1164 -0.2214 -0.0717
32736ION     NA48870   1.008   1.792  13.213  0.1032 -0.2334 -0.1587
32737ION     NA48871   5.852   6.468   9.798 -0.3382 -0.3914 -0.2363
32738ION     NA48872  15.134   4.866   9.856  0.0813  0.0329 -0.0832
32739ION     NA48873   9.350   8.019  14.921 -0.1485 -0.0542 -0.0153
32740ION     NA48874  17.269  10.596  11.019  0.2642  0.1136  0.3531
32741ION     NA48875  12.884   4.361  12.204 -0.1270  0.0880 -0.0383
32742ION     NA48876  18.434  14.364   9.896 -0.4129  0.0056 -0.0994
32743ION     NA48877  12.119  19.135   9.369 -0.0094  0.0895  0.0154
32744ION     NA48878   2.820   6.658  12.929 -0.0797 -0.3913 -0.2456
32745ION     NA48879   3.080   7.566   9.484  0.2267 -0.0596 -0.0755
32746ION     NA48880  16.047   8.508   5.073  0.0092  0.0221 -0.2300
32747ION     NA48881   6.834   4.742   5.646 -0.1352  0.1278  0.1468
32748ION     NA48882  16.728   9.303   9.607  0.3360 -0.0437 -0.3060
32749ION     NA48883   9.535   6.465  10.097 -0.3326 -0.0380 -0.0184
32750ION     NA48884   8.125  12.242  10.313  0.0121  0.1239 -0.1135
32751ION     NA48885  14.297   2.441   9.863  0.0635 -0.0657 -0.0532
32752ION     NA48886  12.218  13.444   9.806  0.3602 -0.3022  0.1834
32753ION     NA48887  18.493   1.376   4.562  0.1897  0.1689  0.2969
32754ION     NA48888   2.756  16.599   9.866 -0.1173  0.3171  0.0698
32755ION     NA48889   6.249   4.205   9.791 -0.2724 -0.1465  0.1027
32756ION     NA48890  14.728  16.278   9.645  0.0004 -0.1000  0.1654
32757ION     NA48891   8.463   9.748   9.775  0.3621 -0.1300 -0.0302
32758ION     NA48892   5.797   1.817   9.491  0.0039 -0.0793 -0.0175
32759ION     NA48893  11.414   2.246   9.857 -0.0458  0.0346 -0.0470
32760ION     NA48894  13.010  10.865  10.165  0.0963 -0.3060  0.4472
32761ION     NA48895  18.704   3.348   9.575 -0.0050  0.1270  0.2176
32762ION     NA48896   5.930   5.607   2.621  0.1207  0.4458  0.0356
32763ION     NA48897  14.645   4.872   9.652  0.1014  0.0286  0.0481
32764ION     NA48898   3.762   8.323   9.480  0.0500  0.4164  0.0998
32765ION     NA48899  10.622  18.177  12.320  0.1083  0.4151 -0.1185
32766ION     NA48900  18.952   7.827   9.510 -0.2065 -0.2216  0.1784
32767ION     NA48901  15.075   0.484  13.521 -0.1595 -0.1393  0.0245
32768ION     NA48902   0.669  10.342  14.174  0.1185  0.0803 -0.0655
32769ION     NA48903  14.713   7.920   5.146  0.1253 -0.6396 -0.0442
32770ION     NA48904   8.165   1.091   9.532 -0.1062  0.1236 -0.0642
32771ION     NA48905   8.267  12.595   3.620  0.0581 -0.2313  0.5326
32772ION     NA48906  13.681   4.571   9.768  0.1418  0.0344 -0.4384
32773ION     NA48907  18.253  10.304  10.464 -0.0138  0.1743 -0.0797
32774ION     NA48908   1.854   9.956   5.033 -0.0227  0.1240  0.1377
32775ION     NA48909   6.051   9.391   9.936  0.1846 -0.1579 -0.4169
32776ION     NA48910   3.012  11.947   9.487 -0.2860 -0.0204  0.1280
32777ION     NA48911   2.361  15.202   5.720  0.2417 -0.0819 -0.0719
32778ION     NA48912  18.159  13.372   9.884 -0.1023 -0.3497 -0.1986
32779ION     NA48913   7.511   7.262  10.267  0.1007 -0.0353 -0.1487
32780ION     NA48914  14.449   2.815   4.190 -0.0644  0.2488 -0.0189
32781ION     NA48915  10.456  16.479  13.167  0.0671  0.1203 -0.2590
32782ION     NA48916  12.247  14.109   1.152 -0.0937  0.2891 -0.0208
32783ION     NA48917   1.727  14.296   9.764  0.0739 -0.1310 -0.1039
32784ION     NA48918  12.470  14.201   9.659  0.1939  0.2041 -0.3009
32785ION     NA48919  16.373   0.831   9.784  0.1460  0.0085  0.3030
32786ION     NA48920   2.421  15.617   9.762  0.0031  0.1731 -0.0131
32787ION     NA48921  18.805   7.379   5.010  0.0832  0.0718  0.0032
32788ION     NA48922   3.049   5.624   9.637  0.0806 -0.1154  0.2287
32789ION     NA48923  11.509  16.763   9.714  0.0244  0.0905  0.0523
32790ION     NA48924   9.787   4.804  10.118 -0.2381  0.0835  0.0624
32791ION     NA48925  16.201   5.990   9.581 -0.0564  0.2734  0.3269
32792ION     NA48926   5.098  17.388   9.790 -0.1256  0.0366 -0.0130
32793ION     NA48927   5.827  17.207   1.249 -0.2239 -0.2359  0.2273
32794ION     NA48928   4.287  18.962  12.501  0.0402  0.2028 -0.0580
32795ION     NA48929   7.136   8.856  14.764 -0.0882 -0.0361  0.3704
32796ION     NA48930   8.308   7.209  13.522 -0.2905 -0.1112 -0.0556
32797ION     NA48931   0.694   1.984   9.651 -0.1009 -0.1303  0.2135
32798ION     NA48932   1.218   3.586   3.594 -0.0160  0.0383  0.1237
32799ION     NA48933   8.799  16.466  15.135 -0.0097  0.1252 -0.2229
32800ION     NA48934  11.000  17.700   3.603  0.3561  0.1144  0.1217
32801ION     NA48935   9.946  18.149  14.498 -0.1351 -0.0753  0.2036
32802ION     NA48936   9.909  16.447   9.570 -0.1793  0.0473  0.1842
32803ION     NA48937   2.526  14.230   9.582  0.0968 -0.0366 -0.0634
32804ION     NA48938   0.666   1.024   9.401  0.0132  0.0811  0.3624
32805ION     NA48939   6.912   8.027   2.457 -0.1952  0.0541 -0.0095
32806ION     NA48940   0.287   7.119   1.260  0.0670 -0.4134  0.0685
32807ION     NA48941   3.346   9.431  14.740  0.0344  0.1943  0.1905
32808ION     NA48942   5.001  15.185  10.331  0.3071 -0.1136 -0.0192
32809ION     NA48943  14.374   2.180   5.103  0.3995 -0.0042  0.1012
32810ION     NA48944   6.669  18.315  10.233 -0.1483 -0.0503 -0.0216
32811ION     NA48945   5.482   4.893   5.609 -0.0197  0.2566 -0.0036
32812ION     NA48946   6.490  10.829  11.849 -0.0719 -0.1366 -0.2448
32813ION     NA48947  17.415  13.808   9.877 -0.0655  0.1127  0.1445
32814ION     NA48948  12.616   9.527   9.477  0.0270 -0.1193  0.0109
32815ION     NA48949   7.233   6.516   9.980  0.2529 -0.1064  0.0192
32816ION     NA48950  14.552   0.000   9.692 -0.0691  0.1292 -0.0817
32817ION     NA48951   0.371   3.882   0.845 -0.3007 -0.0989 -0.0159
32818ION     NA48952   0.582  12.906  12.631  0.5332  0.2665 -0.3274
32819ION     NA48953  16.965  15.209   5.301  0.2412  0.1258  0.0695
32820ION     NA48954   7.619   7.861   1.317 -0.1632 -0.4668  0.3547
32821ION     NA48955  15.968  12.732   9.310 -0.1747 -0.5299  0.0752
32822ION     NA48956   3.323   4.851  10.074  0.3257 -0.2863 -0.1130
32823ION     NA48957   9.935   6.055   5.693  0.1090  0.1833 -0.1651
32824ION     NA48958   5.437  10.525  10.143  0.1158  0.3789  0.0660
32825ION     NA48959   0.127   5.832   9.366  0.1379 -0.0273 -0.1565
32826ION     NA48960  17.298   7.092   9.495 -0.1201 -0.2784  0.3824
32827ION     NA48961   9.525   7.250  10.172 -0.0505  0.1384 -0.3958
32828ION     NA48962   7.872  16.777   5.778 -0.0463  0.1610  0.0902
32829ION     NA48963  15.380  15.630  11.934 -0.2647  0.1316  0.0288
32830ION     NA48964   0.895   2.852   5.145 -0.0222 -0.0296 -0.1147
32831ION     NA48965   9.867  18.664   9.382  0.2022 -0.1865 -0.0252
32832ION     NA48966  13.985   1.423  11.747  0.0703 -0.1887 -0.1386
32833ION     NA48967   2.930  12.873   4.401  0.0635  0.0482  0.1700
32834ION     NA48968   4.033  13.886  12.314  0.1606  0.2075  0.0066
32835ION     NA48969  15.987   0.301  12.961 -0.0115 -0.6235 -0.2283
32836ION     NA48970   1.647   8.689   2.462 -0.2394 -0.1792 -0.1426
32837ION     NA48971   1.836  10.215   9.414  0.0537  0.1828 -0.1355
32838ION     NA48972   1.723  16.027  10.039  0.2281  0.2511  0.1032
32839ION     NA48973  15.745   8.668   9.721 -0.1549 -0.0144 -0.2505
32840ION     NA48974   6.861   9.141  10.265 -0.2050  0.0044 -0.2627
32841ION     NA48975  18.266  18.751   9.493  0.4655 -0.3886 -0.0415
32842ION     NA48976   3.989   8.586  12.481 -0.0436  0.2042  0.0095
32843ION     NA48977   2.359   4.205   9.755 -0.5066 -0.0191 -0.1176
32844ION     NA48978  16.244   7.554   9.788 -0.0577 -0.0075 -0.1381
32845ION     NA48979  11.218   4.665  11.698  0.3268  0.0997 -0.3046
32846ION     NA48980  18.511   5.992   9.636 -0.0961 -0.0473 -0.0158
32847ION     NA48981   4.081  18.294   9.621  0.0589 -0.2765 -0.0715
32848ION     NA48982  10.475   7.931   0.437  0.0306  0.3244 -0.2682
32849ION     NA48983   4.844   6.362   9.292  0.2024 -0.1408 -0.0287
32850ION     NA48984   7.630  13.036  10.052  0.2461 -0.1865  0.1198
32851ION     NA48985  17.080   9.428   5.126 -0.2166 -0.1536 -0.4079
32852ION     NA48986  14.794  12.465   9.584 -0.1328  0.1890  0.2309
32853ION     NA48987   8.346  15.768   5.615  0.0109 -0.1104 -0.1221
32854ION     NA48988  13.360   1.227   5.361  0.0209 -0.0555  0.1480
32855ION     NA48989   0.070   0.595   5.293  0.1147 -0.0819  0.0375
32856ION     NA48990   5.767   2.917   3.291  0.1893 -0.2438  0.1585
32857ION     NA48991  10.598   8.979   5.458  0.1645  0.3059  0.0357
32858ION     NA48992  15.323  13.940  13.576 -0.0200  0.1929  0.0317
32859ION     NA48993  15.116  17.681   5.323 -0.0517  0.0747 -0.1879
32860ION     NA48994   6.661  13.629   0.518  0.0486 -0.4324 -0.2313
32861ION     NA48995  13.663   3.486   4.969 -0.1759 -0.2402 -0.0378
32862ION     NA48996  11.379   1.027   5.538 -0.0573  0.0665 -0.1195
32863ION     NA48997   6.279  14.047  10.228  0.1736  0.0483 -0.1421
32864ION     NA48998   6.962   9.637  11.517  0.1248 -0.0316 -0.2684
32865ION     NA48999  12.723  10.459   9.682 -0.1772 -0.2680 -0.1460
32866ION     NA49000  18.043  17.568   9.816  0.0297  0.0481  0.1091
32867ION     NA49001  11.612  18.767   9.489 -0.1147  0.1067 -0.0048
32868ION     NA49002  15.853   0.067   9.801 -0.0584  0.1115 -0.1099
32869ION     NA49003   2.969  17.573   3.565  0.4861  0.2812 -0.2193
32870ION     NA49004  11.975  15.784   9.698 -0.0489 -0.0574 -0.3852
32871ION     NA49005   5.277  14.263  10.139 -0.1241 -0.0570  0.1411
32872ION     NA49006  13.037   9.881   0.871  0.1324 -0.2800 -0.2482
32873ION     NA49007   5.494   8.478   9.909 -0.3712 -0.2820 -0.1164
32874ION     NA49008  16.451   1.544   3.522 -0.1259 -0.2127 -0.1397
32875ION     NA49009  13.588   7.005   9.949 -0.0747 -0.0951  0.0663
32876ION     NA49010  19.097  10.915   9.531  0.0227 -0.1926 -0.2408
32877ION     NA49011  17.119   6.055   9.652  0.0238  0.2047  0.1106
32878ION     NA49012  14.468  14.615   9.350  0.1036 -0.2545  0.2457
32879ION     NA49013  14.498  10.105  10.777 -0.1501 -0.1820 -0.0038
32880ION     NA49014  10.577   3.412   3.710 -0.5659  0.0269  0.0175
32881ION     NA49015  15.315  18.948  10.739 -0.3264 -0.0388 -0.3227
32882ION     NA49016   2.837  15.301   3.325  0.1892  0.0601 -0.0100
32883ION     NA49017  11.211  18.034   9.786  0.2125 -0.0876 -0.0644
32884ION     NA49018  16.724  13.617   9.604 -0.0986  0.0638 -0.2269
32885ION     NA49019  15.706  17.550  13.341  0.2185 -0.0661 -0.0807
32886ION     NA49020   2.688   0.690   9.784 -0.1957  0.0822  0.0618
32887ION     NA49021  14.445   8.652   9.643 -0.2287 -0.1052  0.4073
32888ION     NA49022   0.669   8.788   9.181 -0.2014  0.0150 -0.0960
32889ION     NA49023  17.221  11.983   2.726 -0.0083  0.2756 -0.0224
32890ION     NA49024   3.097  14.852   9.995 -0.4058  0.0803 -0.1814
32891ION     NA49025  14.093  12.878   9.628  0.1731  0.0100  0.3707
32892ION     NA49026   4.293   1.551   9.596 -0.0153 -0.1702  0.0165
32893ION     NA49027  11.996   7.693  10.154  0.1945 -0.2373  0.1841
32894ION     NA49028  14.028  18.463   9.914 -0.0360  0.1982 -0.2740
32895ION     NA49029   1.985  11.962   9.401  0.0443  0.3594 -0.0818
32896ION     NA49030  10.010  12.505  10.102 -0.0122  0.1358  0.0401
32897ION     NA49031  15.688   3.761  14.528  0.1402  0.0177  0.0464
32898ION     NA49032  17.141   7.991   9.707 -0.0741 -0.1409 -0.0172
32899ION     NA49033   4.050  10.501   1.961  0.1306 -0.0825  0.2049
32900ION     NA49034   5.607   4.174   5.122  0.1306 -0.1675 -0.1591
32901ION     NA49035  12.653   4.555   5.521  0.0175  0.1797 -0.2862
32902ION     NA49036  18.259   9.536   9.590  0.3736 -0.1323 -0.5300
32903ION     NA49037  15.390  17.143   9.444  0.2199 -0.1192  0.0479
32904ION     NA49038   7.306   2.033  14.674  0.2741  0.1232  0.0037
32905ION     NA49039  13.113   9.256   5.227  0.1114  0.4300  0.3453
32906ION     NA49040   9.604  11.014   5.913  0.2929  0.2602  0.2154
32907ION     NA49041   9.052   7.750  10.356 -0.2159  0.4582 -0.2234
32908ION     NA49042   4.363  14.303  10.037  0.0470  0.0743  0.0881
32909ION     NA49043   9.669  15.435  13.268  0.1008  0.0411  0.0656
32910ION     NA49044  15.340   8.295   9.524 -0.2144  0.1586  0.2395
32911ION     NA49045   4.009   3.886   5.465 -0.0505  0.1223 -0.1446
32912ION     NA49046  17.750  10.395   9.460 -0.2329 -0.0815 -0.1708
32913ION     NA49047  18.693  12.819   9.666  0.1467 -0.2278 -0.0287
32914ION     NA49048   5.376  17.210   5.778 -0.2608 -0.3278 -0.0124
32915ION     NA49049  14.084  10.168   9.732 -0.1565 -0.2703 -0.1511
32916ION     NA49050   0.645   8.989   0.351  0.0116 -0.1722 -0.0029
32917ION     NA49051   4.782   0.793   9.514 -0.1461 -0.1221  0.5089
32918ION     NA49052   3.403  13.109   9.634  0.1121  0.0822 -0.3622
32919ION     NA49053  11.587   5.558   5.600  0.0382 -0.1228  0.1263
32920ION     NA49054  17.356  15.920   9.857 -0.0227  0.2030  0.2520
32921ION     NA49055  14.144   1.928  10.863 -0.1740  0.0208 -0.0431
32922ION     NA49056   0.535  12.667   9.773 -0.0947 -0.1191  0.1215
32923ION     NA49057  12.479  12.484   9.936 -0.4135 -0.3152 -0.1513
32924ION     NA49058   7.629  17.337  10.383 -0.0494 -0.0251 -0.0416
32925ION     NA49059  12.180  10.272   5.425 -0.1190 -0.0354 -0.2624
32926ION     NA49060   1.950   7.230   9.692  0.3574  0.0729 -0.1190
32927ION     NA49061   8.606   6.963  10.179 -0.1340 -0.0940 -0.1128
32928ION     NA49062  10.016   5.744  10.068  0.1880  0.1705  0.0564
32929ION     NA49063   8.409   3.802  10.551 -0.0872 -0.2671  0.0891
32930ION     NA49064  11.412   0.602   9.658 -0.2844  0.0848 -0.0593
32931ION     NA49065   5.096  14.633   5.352 -0.2564 -0.0417  0.2444
32932ION     NA49066   0.522  12.807  11.641 -0.0152  0.0721 -0.0764
32933ION     NA49067  13.034  16.382  12.953  0.3031 -0.4253  0.1958
32934ION     NA49068   6.881  19.084   9.986  0.2920 -0.0854 -0.0726
32935ION     NA49069   9.570   2.808   9.926  0.1895 -0.0958  0.0607
32936ION     NA49070   6.151   5.652   3.910  0.1929 -0.0751  0.1280
32937ION     NA49071  17.923   8.729   2.994  0.1336  0.0567  0.1335
32938ION     NA49072   6.024  15.281   3.965  0.2008 -0.0517 -0.1214
32939ION     NA49073   1.842  13.310   9.489 -0.1295 -0.3003  0.0336
32940ION     NA49074  10.325  11.671  10.049  0.4318 -0.1102 -0.2420
32941ION     NA49075   9.828  16.887   5.585 -0.0945  0.3530 -0.0205
32942ION     NA49076  11.075   7.638   5.569  0.0703  0.2916 -0.0374
32943ION     NA49077   3.839  15.277   9.692 -0.3293 -0.0030 -0.1251
32944ION     NA49078   7.880  11.939   1.889 -0.2627 -0.1000  0.0213
32945ION     NA49079  14.017   8.815   5.167 -0.0236  0.0367 -0.0483
32946ION     NA49080  11.585   3.997  14.278  0.1122 -0.2295  0.3145
32947ION     NA49081   7.817  13.579   5.807 -0.3214  0.0485  0.1839
32948ION     NA49082   5.994   5.121  10.011 -0.1415  0.0670  0.0894
32949ION     NA49083   2.024   0.907   9.536  0.2443  0.1028 -0.1153
32950ION     NA49084  13.255  12.984   9.351  0.1112  0.2869 -0.0319
32951ION     NA49085  11.813  10.432   9.909 -0.1140  0.0542 -0.0332
32952ION     NA49086  12.927  15.731   3.712 -0.0461  0.1503  0.0240
32953ION     NA49087  10.707   1.720   9.812 -0.3885  0.2329  0.2745
32954ION     NA49088   6.183  11.235  12.756 -0.5074 -0.3492  0.0163
32955ION     NA49089  18.064   7.343   4.913 -0.1579 -0.0324  0.1163
32956ION     NA49090   5.463   4.338  14.609  0.1081 -0.2987  0.0977
32957ION     NA49091   6.625   1.529   9.512 -0.0642 -0.1249  0.1804
32958ION     NA49092   4.437   3.829   9.333  0.2085 -0.2240 -0.1904
32959ION     NA49093   4.579   8.316   1.953  0.2870 -0.0422  0.4897
32960ION     NA49094   2.309  16.412   9.999 -0.2182 -0.0361 -0.1733
32961ION     NA49095  10.198   3.656  10.120  0.0219  0.1128  0.0803
32962ION     NA49096  13.496  17.942   9.842 -0.0901 -0.2253 -0.2041
32963ION     NA49097   9.847  14.366   4.096  0.1045 -0.0518 -0.2390
32964ION     NA49098   0.974  11.529   5.226 -0.2813 -0.0499  0.0382
32965ION     NA49099  18.000   8.552   4.994 -0.0117 -0.0878  0.0267
32966ION     NA49100   8.377  15.986   9.608 -0.0645 -0.1752 -0.0315
32967ION     NA49101   4.078   7.310   9.566 -0.0887  0.1851 -0.2536
32968ION     NA49102  12.313   1.327  12.872 -0.2375 -0.1546  0.2737
32969ION     NA49103   1.055  10.115   9.821  0.1393 -0.0902  0.1548
32970ION     NA49104   8.345  14.631   9.946  0.0385 -0.0566  0.0268
32971ION     NA49105  12.132  11.264   9.737 -0.2871  0.0082 -0.1339
32972ION     NA49106  12.579   7.568   5.247 -0.0031  0.1342  0.1178
32973ION     NA49107  10.275  17.582   9.731 -0.3657 -0.0263 -0.1579
32974ION     NA49108   3.374  10.219   9.328 -0.0038  0.5248  0.1188
32975ION     NA49109   1.633   0.262   3.981  0.0431  0.1929  0.2576
32976ION     NA49110  13.940  16.150   9.445 -0.0419  0.1781  0.2541
32977ION     NA49111   3.973   9.804  13.830 -0.1867 -0.2966 -0.1579
32978ION     NA49112  14.496  15.392  11.846  0.4132  0.0006  0.1818
32979ION     NA49113  12.351   1.749  11.297 -0.0840  0.3588  0.0686
32980ION     NA49114   8.450  10.165   0.600 -0.0055  0.0282  0.3817
32981ION     NA49115   4.996   5.361   9.460 -0.3049 -0.3611  0.0977
32982ION     NA49116  15.030   0.749   9.757  0.0212  0.1819 -0.2797
32983ION     NA49117   3.548   9.360   9.348 -0.3022  0.0916  0.2688
32984ION     NA49118  18.708  17.655   2.565  0.0060  0.0631 -0.2666
32985ION     NA49119  11.724   0.753   2.933  0.1246 -0.1568  0.0603
32986ION     NA49120  17.290  12.851   9.947  0.1265 -0.0054  0.2715
32987ION     NA49121  16.408  11.937   9.380  0.1579  0.1028  0.1909
32988ION     NA49122   7.892  10.427   9.812 -0.0279 -0.0745 -0.0169
32989ION     NA49123  13.495   6.113   9.934  0.1370 -0.2542 -0.1612
32990ION     NA49124  10.281  10.884   9.922  0.2297 -0.3665  0.3431
32991ION     NA49125   6.345  11.394   9.980 -0.2025 -0.1202  0.0821
32992ION     NA49126  11.295  16.273   9.547 -0.0610 -0.0458 -0.3329
32993ION     NA49127   6.302   9.236   2.574  0.4655 -0.4501 -0.3397
32994ION     NA49128   7.072   8.318  10.150  0.0026  0.0523 -0.0988
32995ION     NA49129  14.869  10.024   5.309 -0.1602  0.3791  0.0228
32996ION     NA49130   9.242  17.207   2.965  0.1971  0.0688  0.2130
32997ION     NA49131   7.436  10.190   5.364  0.0321  0.1204  0.0650
32998ION     NA49132  11.866   2.532  13.035  0.3153  0.1486 -0.1532
32999ION     NA49133  10.362   2.527   9.693 -0.2295 -0.2143 -0.3282
33000ION     NA49134  14.566  14.203   5.041 -0.1850  0.2103  0.1553
33001ION     NA49135   2.600   3.081  14.727  0.2724  0.0700 -0.1272
33002ION     NA49136   7.249  14.327  10.069  0.1018  0.0137 -0.1505
33003ION     NA49137  17.460  11.002   9.499 -0.0340 -0.0299 -0.0433
33004ION     NA49138   7.231  12.279  13.801  0.0516  0.0090 -0.0856
33005ION     NA49139   3.123   1.835  14.142 -0.1721 -0.0477 -0.2116
33006ION     NA49140   9.310   0.348   9.366 -0.4961  0.0329  0.2571
33007ION     NA49141   2.898  16.129  13.853  0.1140 -0.0167 -0.1065
33008ION     NA49142  11.588   4.861   3.258 -0.1430  0.0434 -0.0859
33009ION     NA49143  10.938   2.613   5.565 -0.1411 -0.3709  0.1301
33010ION     NA49144   1.711   1.449  12.290  0.0934  0.0403 -0.2077
33011ION     NA49145  11.355  14.702   5.476 -0.0722 -0.0582 -0.2779
33012ION     NA49146   2.502   2.961   9.315 -0.2110 -0.0383  0.3340
33013ION     NA49147   2.958   8.790   9.308  0.0416  0.2015  0.3218
33014ION     NA49148   5.985  12.232   9.836  0.1604  0.2243  0.2305
33015ION     NA49149  16.817  15.531   9.974  0.2643  0.2006  0.2766
33016ION     NA49150  12.055   1.025   5.741  0.0621  0.2927  0.3191
33017ION     NA49151  14.725   5.806   5.499 -0.3500 -0.1590 -0.2441
33018ION     NA49152  16.031   4.571  10.043  0.1257 -0.1103  0.0096
33019ION     NA49153  14.970   3.967   9.915  0.1513 -0.0728  0.1214
33020ION     NA49154   0.292   7.029   9.320 -0.0019  0.0191  0.0306
33021ION     NA49155   5.806  10.173  11.109  0.0147  0.1275 -0.3338
33022ION     NA49156  12.630  16.683   9.674 -0.0159  0.1140  0.0466
33023ION     NA49157  11.523   8.479   5.545  0.0715  0.2257  0.2250
33024ION     NA49158   3.040   6.501   3.351  0.2281  0.2074 -0.2474
33025ION     NA49159   6.900  16.313  10.134 -0.0536  0.1392  0.1815
33026ION     NA49160  15.573   6.674   9.445  0.3766 -0.1336  0.0768
33027ION     NA49161   4.584  13.592   9.905 -0.2721 -0.2088 -0.0660
33028ION     NA49162   1.109   5.136   5.351 -0.1204  0.1211 -0.1414
33029ION     NA49163  17.981  15.772   3.449  0.1221  0.1277  0.3624
33030ION     NA49164  14.142   9.369   0.744 -0.0906 -0.1778 -0.2104
33031ION     NA49165   8.245   9.139   2.590  0.2558 -0.0959  0.1967
33032ION     NA49166   0.871  10.477   9.301  0.0903  0.3744 -0.0631
33033ION     NA49167   5.470  16.577  13.276 -0.1583  0.0378  0.0562
33034ION     NA49168   1.712  15.259   3.647  0.0622  0.0975  0.3462
33035ION     NA49169   9.714   1.074   9.508  0.0429 -0.0752 -0.1034
33036ION     NA49170  16.480   6.878   9.738 -0.3673 -0.1254  0.1342
33037ION     NA49171   3.501   3.717   9.486  0.2404 -0.0781 -0.0973
33038ION     NA49172  17.238   3.928   9.723  0.4740 -0.2441 -0.0597
33039ION     NA49173   7.561  14.618   5.851  0.2161 -0.0304  0.3864
33040ION     NA49174   6.253   2.751   1.350 -0.0852 -0.0164 -0.1070
33041ION     NA49175   5.826   5.566   9.806  0.2621 -0.2623  0.0127
33042ION     NA49176  18.262   1.968   4.914 -0.0344  0.0441  0.0649
33043ION     NA49177   8.708  11.794  10.353 -0.1723 -0.1445 -0.1303
33044ION     NA49178   1.314  13.638   2.107 -0.3109  0.0293  0.1245
33045ION     NA49179  16.387   3.040  13.868 -0.0055 -0.0720 -0.1160
33046ION     NA49180   8.820   4.492  10.155  0.1177  0.1976  0.2635
33047ION     NA49181  10.964  11.557   5.582 -0.0299 -0.0498 -0.1120
33048ION     NA49182   1.538   8.458   9.393 -0.2397 -0.0682  0.1162
33049ION     NA49183   0.407  11.185   9.461 -0.1568 -0.2294  0.5183
33050ION     NA49184  18.029  12.352   9.665  0.0511  0.2074 -0.1478
33051ION     NA49185  19.037   5.859  14.388  0.3293  0.1725 -0.0493
33052ION     NA49186   2.691  17.609   2.490  0.0314  0.0725 -0.2980
33053ION     NA49187   9.139   1.644   5.047  0.1725  0.0800 -0.1770
33054ION     NA49188  17.171  14.320  10.704 -0.2015 -0.0230 -0.0414
33055ION     NA49189   9.410   7.380   3.882  0.0322  0.1399  0.2254
33056ION     NA49190  18.665  17.082  13.306 -0.1948  0.2828 -0.2197
33057ION     NA49191  16.316  10.049   5.299 -0.2143  0.0907  0.0468
33058ION     NA49192   5.999   0.282   9.484 -0.2820  0.2109  0.2331
33059ION     NA49193   4.738  12.394  10.230  0.0394  0.0530 -0.0434
33060ION     NA49194   5.740  18.270   9.947 -0.0704 -0.2008 -0.1824
33061ION     NA49195   0.566   0.124   1.139  0.1707 -0.2405  0.0664
33062ION     NA49196  11.658  15.554   5.511  0.0283 -0.2578  0.2414
33063ION     NA49197   2.593   1.593   9.606 -0.0835 -0.0557 -0.0488
33064ION     NA49198   1.601   4.699   9.510 -0.0396 -0.1478 -0.0210
33065ION     NA49199  18.585  18.318   9.564 -0.2737 -0.4760  0.3098
33066ION     NA49200   9.779  14.454   9.921  0.2406 -0.0311 -0.2958
33067ION     NA49201   7.932  14.724  14.110 -0.2081  0.1201 -0.1975
33068ION     NA49202  13.125  15.185   9.505  0.0632 -0.0955  0.3470
33069ION     NA49203  15.134   2.366   9.715  0.3027  0.0518 -0.0064
33070ION     NA49204   4.019   3.012   9.552 -0.1070 -0.2568 -0.0453
33071ION     NA49205   6.745   7.268   5.549  0.1610  0.1135 -0.0718
33072ION     NA49206  17.218   5.233   9.890  0.1636 -0.1836  0.2974
33073ION     NA49207   4.336  15.963   9.773  0.2339  0.3214  0.1435
33074ION     NA49208   2.216  13.662  11.716  0.0890 -0.1491 -0.0417
33075ION     NA49209   4.232   0.996   5.090 -0.2502  0.1049  0.4355
33076ION     NA49210  16.942  14.120   0.473 -0.1199  0.1728 -0.3068
33077ION     NA49211  16.018   6.094   3.892  0.1293 -0.2962 -0.2335
33078ION     NA49212  16.572  13.808   4.986 -0.1320  0.0098 -0.0133
33079ION     NA49213  17.152  13.713  13.629  0.1470 -0.0141 -0.0661
33080ION     NA49214   9.335  10.760  11.330  0.1649 -0.1629  0.0079
33081ION     NA49215  15.016   4.847   1.183 -0.1335 -0.1719  0.0956
33082ION     NA49216  18.221  15.091  11.188  0.1352  0.4082  0.2292
33083ION     NA49217   1.115   2.196   3.449  0.3789  0.1069 -0.4459
33084ION     NA49218  15.627  14.759   0.392  0.2577 -0.0415  0.1139
33085ION     NA49219  18.992   0.429   9.504  0.0751 -0.0240 -0.1457
33086ION     NA49220  14.399   8.146   9.760  0.1188  0.0085 -0.0033
33087ION     NA49221  15.213  16.335   9.489  0.2491 -0.2402 -0.0108
33088ION     NA49222  18.459   2.078  13.735  0.1403 -0.2710 -0.2095
33089ION     NA49223   2.538   6.101   4.978 -0.2088 -0.4062  0.0767
33090ION     NA49224  15.031   2.652   0.776  0.5396 -0.0643 -0.1194
33091ION     NA49225   5.949  10.524  10.298 -0.0042 -0.0473 -0.0603
33092ION     NA49226  15.861  13.435   9.755  0.1234  0.1829 -0.0558
33093ION     NA49227  13.702  15.484   3.909  0.0706  0.0998  0.1053
33094ION     NA49228  11.116   3.070  10.142  0.1072  0.0276 -0.3246
33095ION     NA49229   2.260  19.049   9.482 -0.2441  0.1582  0.0667
33096ION     NA49230   7.378   2.983   9.877  0.0700  0.0749  0.0621
33097ION     NA49231  12.176   1.283   9.596 -0.0108  0.2054 -0.0575
33098ION     NA49232   0.794  14.186   9.629  0.1135 -0.2327  0.3297
33099ION     NA49233   4.249   9.074   9.769 -0.1285  0.2013  0.0567
33100ION     NA49234   4.324   4.860   9.608  0.1500  0.1108  0.1848
33101ION     NA49235   7.716   2.204  13.312  0.2633 -0.3657 -0.1657
33102ION     NA49236  15.553  14.352   4.097 -0.1863  0.1007 -0.1686
33103ION     NA49237   4.933  10.414   3.702  0.0618 -0.0624 -0.1587
33104ION     NA49238   0.519   1.527  11.364 -0.2224 -0.0530 -0.0422
33105ION     NA49239   8.322  10.115  12.624 -0.0013  0.2631 -0.0927
33106ION     NA49240   0.752  17.123   1.932  0.0961 -0.1789 -0.1087
33107ION     NA49241   7.131  17.151   5.554 -0.4909  0.0906 -0.1488
33108ION     NA49242   9.090   8.858   4.703 -0.0014 -0.1759  0.4197
33109ION     NA49243  12.630   3.957  10.400 -0.2351 -0.0457 -0.0506
33110ION     NA49244  11.206   4.362  10.402  0.1868  0.2534  0.0623
33111ION     NA49245  11.657  14.079  10.176 -0.1024  0.4954 -0.2792
33112ION     NA49246  10.655   9.325  10.120  0.1788  0.0544  0.1526
33113ION     NA49247   2.069   9.584   4.849  0.2750 -0.4228  0.2896
33114ION     NA49248  11.220   8.340  10.310  0.2619  0.3629 -0.2631
33115ION     NA49249  11.776   6.144   9.892 -0.1533 -0.2787 -0.0591
33116ION     NA49250   9.143   6.345   5.814  0.1326 -0.1055 -0.1139
33117ION     NA49251  15.874   2.560  10.350 -0.2498  0.0390  0.3215
33118ION     NA49252   4.160   5.638   9.342 -0.1753  0.1130  0.2051
33119ION     NA49253   1.824  18.378   9.614 -0.1287 -0.2005  0.1190
33120ION     NA49254   5.087   4.852   9.938  0.0610  0.1181 -0.1876
33121ION     NA49255   7.169  16.246  13.816  0.0756 -0.0157 -0.0604
33122ION     NA49256  18.150   1.193   9.948 -0.0513 -0.1835  0.0430
33123ION     NA49257   2.459  12.086   4.767 -0.2564 -0.0791 -0.0122
33124ION     NA49258   1.527   2.553   9.616  0.1845 -0.0190 -0.2818
33125ION     NA49259   5.968   2.983  14.841 -0.0874  0.0364 -0.1122
33126ION     NA49260  18.974  10.720   3.575  0.1577  0.0414 -0.0816
33127ION     NA49261   0.482   8.689  11.002  0.0927 -0.0342  0.0621
33128ION     NA49262  12.303  18.612  10.014 -0.4320 -0.0589 -0.1081
33129ION     NA49263   3.226  18.133   9.698 -0.1651  0.5145 -0.2983
33130ION     NA49264  17.656  14.121   0.118  0.0980  0.3409 -0.3279
33131ION     NA49265   7.331   4.399   5.026 -0.1129  0.3444  0.3795
33132ION     NA49266   8.823   2.622   9.648  0.2267 -0.3569  0.2875
33133ION     NA49267   5.469  12.816  10.207 -0.3243 -0.1067  0.2598
33134ION     NA49268  16.746  14.477   9.880  0.3976  0.0084 -0.0116
33135ION     NA49269  13.881  15.119   9.317 -0.0963 -0.2395 -0.1915
33136ION     NA49270  15.623  18.507   3.619  0.1861 -0.6099 -0.0707
33137ION     NA49271   6.962  17.972  10.023 -0.1071 -0.0763  0.1868
33138ION     NA49272   0.119  16.599  10.941  0.2038  0.0743 -0.2434
33139ION     NA49273  14.478   5.678  12.856  0.0702 -0.4205 -0.1573
33140ION     NA49274   8.865   2.400  10.841 -0.2436 -0.1797 -0.1041
33141ION     NA49275  18.407  10.402   9.386  0.2051 -0.3206 -0.1446
33142ION     NA49276  18.579   9.396   4.810 -0.0226 -0.1847 -0.0602
33143ION     NA49277  19.149  13.966   9.754 -0.1633  0.0564  0.0011
33144ION     NA49278   0.538  12.579   5.372  0.0650  0.0565  0.1142
33145ION     NA49279   5.145   5.968   9.274 -0.1473 -0.0456 -0.0079
33146ION     NA49280   7.999  15.151   3.137 -0.2153 -0.3997  0.0659
33147ION     NA49281   0.996   6.425   5.482 -0.0869  0.1794  0.1755
33148ION     NA49282  13.715  11.069  13.333  0.0708 -0.0563 -0.1355
33149ION     NA49283  11.261   4.804   4.975 -0.0900  0.2979 -0.2797
33150ION     NA49284   5.639  15.582  10.016  0.2503 -0.1752 -0.0233
33151ION     NA49285   6.192  11.207   5.026 -0.3388 -0.2887  0.2875
33152ION     NA49286   7.003  12.794   5.027 -0.1344  0.0753 -0.1784
33153ION     NA49287  13.809   7.659   4.892 -0.1449 -0.0878 -0.1640
33154ION     NA49288  14.751  15.292   9.586  0.2229  0.0865  0.0335
33155ION     NA49289   1.758   8.019   9.413 -0.0613 -0.0452  0.5054
33156ION     NA49290  18.141   4.931  12.534  0.1657  0.2656  0.3715
33157ION     NA49291  11.009  11.419  11.293 -0.0589 -0.0660  0.1637
33158ION     NA49292   3.471   5.082   4.399  0.0453 -0.0156 -0.1562
33159ION     NA49293  12.544  17.648  10.098 -0.0764 -0.0008  0.2948
33160ION     NA49294   9.139  10.572  14.255  0.1601  0.0658 -0.3979
33161ION     NA49295  11.113   1.029  10.741  0.1345 -0.2309  0.1347
33162ION     NA49296   6.532  18.252   5.574  0.0550 -0.1302  0.0420
33163ION     NA49297   4.061  14.079   5.131  0.0055  0.2859  0.1372
33164ION     NA49298  17.796   0.317  11.371 -0.0844  0.0072  0.0317
33165ION     NA49299   9.356   3.523   9.810 -0.0229  0.0023 -0.2484
33166ION     NA49300  12.784  18.375  13.075  0.1379 -0.1147 -0.0358
33167ION     NA49301  11.250  11.008  10.077  0.1939 -0.1230 -0.1751
33168ION     NA49302  15.454  10.614   5.003 -0.2372 -0.2052 -0.3174
33169ION     NA49303  18.336   4.250   9.745  0.1108  0.1987 -0.0550
33170ION     NA49304   9.301   8.305  12.518  0.1015  0.1618 -0.1550
33171ION     NA49305   5.287   7.292  10.305 -0.2696  0.6000  0.1356
33172ION     NA49306   7.559  18.506   9.884  0.0892  0.3897  0.0546
33173ION     NA49307  11.047   2.020  12.913 -0.4251  0.0913 -0.2828
33174ION     NA49308  12.605   7.342  10.178  0.0605  0.0421  0.0213
33175ION     NA49309  13.576  16.994   9.714  0.1400 -0.2251 -0.1147
33176ION     NA49310   3.551   2.272   9.693 -0.0473 -0.0984  0.1845
33177ION     NA49311   9.557  11.548  10.095  0.1545 -0.0206 -0.0825
33178ION     NA49312  17.982   2.302   9.649 -0.0340 -0.1690 -0.2078
33179ION     NA49313   1.858   3.659   0.353  0.0643 -0.2298 -0.1610
33180ION     NA49314  10.735  15.387  12.555 -0.1801 -0.0901 -0.1086
33181ION     NA49315  18.968   1.900   9.939 -0.1716 -0.3952 -0.2588
33182ION     NA49316  11.421   3.865   2.507  0.0938  0.2450 -0.0312
33183ION     NA49317  18.154  15.703   9.986 -0.1143  0.1988  0.0779
33184ION     NA49318   8.154  15.109  10.069  0.0595  0.2567 -0.0974
33185ION     NA49319   8.850   2.610   2.284  0.2296  0.0195  0.0660
33186ION     NA49320  13.459   2.332  10.089  0.2073 -0.2884  0.1119
33187ION     NA49321   0.281  18.631   9.635  0.0757 -0.3628 -0.1354
33188ION     NA49322  14.076   6.330   5.486  0.1635  0.1282  0.2124
33189ION     NA49323   7.752   5.230   9.895 -0.2402 -0.4063 -0.1736
33190ION     NA49324   0.286  18.048   5.362  0.0069 -0.4502  0.2027
33191ION     NA49325   2.447   5.177   9.689  0.0014  0.0764  0.0741
33192ION     NA49326   2.517   0.588  11.519  0.1257 -0.1666 -0.5068
33193ION     NA49327   0.581   4.504   9.909 -0.0321  0.3373 -0.0717
33194ION     NA49328  18.938   2.348   9.561  0.2099  0.0066 -0.0596
33195ION     NA49329  10.488  19.054   5.402 -0.0445  0.2333  0.0562
33196ION     NA49330   4.621   4.438   4.292  0.0352 -0.0404  0.2343
33197ION     NA49331   8.239  13.648   3.721 -0.0076 -0.4252  0.0692
33198ION     NA49332   4.935  15.590   1.588  0.0413 -0.0314  0.0638
33199ION     NA49333   2.357   8.063   9.339 -0.0411  0.1570  0.0338
33200ION     NA49334  15.016   3.795   0.822 -0.3765  0.2131 -0.1035
33201ION     NA49335   3.966  12.347   9.756 -0.1596  0.2497  0.2220
33202ION     NA49336   7.528   4.447   9.903  0.1422 -0.1051 -0.0032
33203ION     NA49337   1.289   1.691   9.573 -0.0802  0.1114 -0.1272
33204ION     NA49338  17.610  17.368   9.544  0.0704 -0.0103 -0.1274
33205ION     NA49339   3.338  15.150   5.609 -0.0819  0.1060 -0.0567
33206ION     NA49340  12.703   1.695   5.279  0.0326  0.0488  0.1029
33207ION     NA49341  13.293  10.695  12.343  0.2876 -0.2473 -0.1941
33208ION     NA49342   7.699  15.487  10.546 -0.1985  0.1838 -0.0693
33209ION     NA49343  12.880  11.853  10.095 -0.0657  0.1309  0.0814
33210ION     NA49344   9.176   1.675   0.712 -0.1746 -0.0527 -0.2491
33211ION     NA49345   7.072   1.094   9.456  0.0936  0.3708  0.2300
33212ION     NA49346  13.356  11.667  10.023 -0.1723 -0.0246  0.0061
33213ION     NA49347  15.718  12.269   1.272 -0.0321 -0.2466 -0.0327
33214ION     NA49348  19.134  10.228  10.729 -0.0166 -0.1273 -0.0094
33215ION     NA49349   7.135   4.836  12.662 -0.1101  0.0803 -0.0525
33216ION     NA49350   3.969  12.860   9.691 -0.0802  0.0034  0.5520
33217ION     NA49351   2.499  12.004  11.937 -0.1844 -0.0718  0.2479
33218ION     NA49352  13.937  12.066   9.481 -0.1706 -0.0160  0.2995
33219ION     NA49353   9.093  14.975   9.702  0.1204 -0.1132  0.3122
33220ION     NA49354   7.579   0.306   9.511 -0.0371 -0.0816 -0.1999
33221ION     NA49355  18.793  14.529   3.339 -0.3771  0.3479  0.2851
33222ION     NA49356   1.604  15.213   9.695 -0.0265 -0.1270  0.1863
33223ION     NA49357   0.734   7.965   9.313  0.1916  0.0901 -0.1635
33224ION     NA49358   2.697  10.757   9.314  0.2023  0.0436 -0.0177
33225ION     NA49359   6.160  18.452   9.804  0.1617  0.1917 -0.3432
33226ION     NA49360   8.664   8.960  11.077 -0.1896  0.0237 -0.1058
33227ION     NA49361   2.588   6.580   5.280  0.0898 -0.0949 -0.1392
33228ION     NA49362   8.931   8.482  10.266  0.0891 -0.2354  0.2089
33229ION     NA49363  14.352  15.767   5.192 -0.1998  0.0683  0.0090
33230ION     NA49364  10.522   5.064  10.091 -0.3205  0.0472  0.4233
33231ION     NA49365  10.109   0.778   5.067  0.3455 -0.1337 -0.1190
33232ION     NA49366  16.757   5.424  11.483  0.0901 -0.0370  0.3279
33233ION     NA49367   6.161   3.221   9.836 -0.0334  0.5027 -0.0853
33234ION     NA49368   0.227   3.542   5.300 -0.1848 -0.0474  0.1340
33235ION     NA49369  11.584   9.502   9.845  0.3735 -0.1580  0.0669
33236ION     NA49370  14.883  13.246   5.156  0.0709  0.1483  0.1362
33237ION     NA49371  17.059   2.514  11.836 -0.1969 -0.1292  0.2074
33238ION     NA49372  18.221  17.439   5.432 -0.2772 -0.1740 -0.1681
33239ION     NA49373   6.033   8.283   2.547  0.1485  0.0065 -0.2207
33240ION     NA49374   5.701   2.293  10.733 -0.2946 -0.2819  0.3093
33241ION     NA49375   1.181  10.382  13.237 -0.0535 -0.0378 -0.1349
33242ION     NA49376  12.804  15.833  10.245 -0.3001  0.0197  0.4126
33243ION     NA49377   8.784   5.384  10.037  0.0645 -0.1826 -0.0668
  19.14946  19.14946  15.20703
