INSANE! Membrane UpperLeaflet>loPI:POPI:DPPI:PYPI:ERGO=80.0:5.0:3.0:2.0:10.0 LowerLeaflet>PSPI:POPI:POPS:YOPS:POPE:YOPE:POPC:YOPC:ERGO=6.0:14.0:21.0:9.0:9.0:21.0:12.0:48.0:60.0
49377
    1loPI    C1    1  12.805   2.509  11.068  0.0270 -0.1106  0.1997
    1loPI    C2    2  12.796   2.903  11.139 -0.0057 -0.0335 -0.2053
    1loPI    C3    3  12.527   2.661  11.312  0.1251  0.0939  0.1859
    1loPI   PO4    4  12.799   2.547  10.769 -0.1072 -0.0068  0.2524
    1loPI   GL1    5  12.679   2.321  10.543  0.2235 -0.0960  0.2700
    1loPI   GL2    6  12.537   2.694  10.420  0.0360 -0.0894 -0.2673
    1loPI   C1A    7  12.838   2.326  10.075 -0.0507 -0.0698  0.1431
    1loPI   C2A    8  12.950   2.352   9.652 -0.0011 -0.1347 -0.0197
    1loPI   C3A    9  12.916   2.353   9.265  0.0579 -0.1024 -0.0592
    1loPI   C4A   10  13.088   2.345   8.792 -0.3180 -0.0005 -0.2060
    1loPI   C5A   11  13.071   2.242   8.351 -0.0347 -0.3270  0.1386
    1loPI   C6A   12  13.109   2.500   8.032 -0.2196 -0.1150 -0.0154
    1loPI   C1B   13  12.533   2.760  10.096  0.0468  0.2839  0.0749
    1loPI   C2B   14  12.523   2.726   9.682 -0.0337 -0.0551  0.2276
    1loPI   C3B   15  12.615   2.786   9.284  0.0717  0.0162 -0.3848
    1loPI   C4B   16  12.605   2.776   8.820 -0.2859 -0.0314  0.1121
    2loPI    C1   17  12.809  13.773  10.718 -0.0623 -0.2300 -0.3439
    2loPI    C2   18  12.978  13.654  11.061 -0.2036  0.2715 -0.0901
    2loPI    C3   19  12.665  13.455  10.912 -0.1942  0.0990  0.1165
    2loPI   PO4   20  12.890  14.081  10.787  0.0142  0.0346  0.0846
    2loPI   GL1   21  13.099  14.201  10.437  0.1179  0.2615 -0.2352
    2loPI   GL2   22  13.388  13.951  10.269 -0.0087 -0.3127 -0.1060
    2loPI   C1A   23  13.105  14.318  10.040 -0.0379 -0.3935 -0.2122
    2loPI   C2A   24  13.049  14.448   9.732 -0.1576  0.1169  0.2076
    2loPI   C3A   25  13.178  14.433   9.313 -0.1089 -0.0231  0.2501
    2loPI   C4A   26  13.089  14.350   8.858 -0.0111 -0.3768  0.0019
    2loPI   C5A   27  13.122  14.442   8.404 -0.1361 -0.1960 -0.2539
    2loPI   C6A   28  13.458  14.666   8.203  0.0372 -0.1524  0.1781
    2loPI   C1B   29  13.427  14.070   9.828 -0.3663  0.1254 -0.2520
    2loPI   C2B   30  13.419  13.976   9.408  0.0184 -0.0032 -0.1014
    2loPI   C3B   31  13.389  13.956   8.957  0.0087 -0.2319 -0.1753
    2loPI   C4B   32  13.184  13.945   8.567 -0.1996 -0.0329  0.2071
    3loPI    C1   33  17.794   5.614  10.927  0.0054 -0.2001 -0.0148
    3loPI    C2   34  17.751   5.906  11.198  0.1871 -0.1385 -0.0506
    3loPI    C3   35  17.514   5.583  11.211  0.2948 -0.2076  0.2754
    3loPI   PO4   36  17.954   5.811  10.724  0.2993 -0.1252  0.2351
    3loPI   GL1   37  17.859   5.902  10.223 -0.0922  0.1579  0.0421
    3loPI   GL2   38  17.914   6.222  10.348 -0.0317  0.0660 -0.0041
    3loPI   C1A   39  17.798   5.976   9.719  0.1655 -0.2261 -0.0529
    3loPI   C2A   40  17.783   5.958   9.327 -0.1514 -0.1381  0.0606
    3loPI   C3A   41  17.701   6.030   8.960 -0.1444  0.4647  0.0712
    3loPI   C4A   42  17.730   6.034   8.527  0.0861 -0.1692 -0.0531
    3loPI   C5A   43  17.789   6.366   8.235  0.1685 -0.0985  0.0718
    3loPI   C6A   44  18.073   6.617   7.945 -0.0084 -0.1012  0.1315
    3loPI   C1B   45  17.897   6.422   9.965  0.1425 -0.0183 -0.2926
    3loPI   C2B   46  17.926   6.424   9.687 -0.3722  0.0440  0.0465
    3loPI   C3B   47  17.940   6.412   9.224 -0.0100  0.0486  0.2414
    3loPI   C4B   48  17.914   6.424   8.742  0.1408  0.1231 -0.1968
    4loPI    C1   49   3.826  13.888  10.888 -0.2095  0.0879 -0.3704
    4loPI    C2   50   4.197  13.856  10.742 -0.1300  0.0102 -0.1557
    4loPI    C3   51   4.117  14.124  11.028 -0.1429 -0.2512  0.0910
    4loPI   PO4   52   3.711  13.592  10.677 -0.0846 -0.1749 -0.1897
    4loPI   GL1   53   3.377  13.579  10.470  0.2525  0.1281 -0.0535
    4loPI   GL2   54   2.971  13.540  10.462  0.2163 -0.1551  0.1200
    4loPI   C1A   55   3.444  13.578  10.052 -0.2170 -0.2696  0.3220
    4loPI   C2A   56   3.422  13.516   9.641 -0.1975  0.2336  0.2559
    4loPI   C3A   57   3.415  13.547   9.138  0.0855  0.1147  0.1595
    4loPI   C4A   58   3.328  13.637   8.686 -0.0709  0.0901  0.2078
    4loPI   C5A   59   3.399  13.308   8.334 -0.2622  0.1647  0.1364
    4loPI   C6A   60   3.435  13.007   8.159 -0.2285  0.0482 -0.1867
    4loPI   C1B   61   2.954  13.487  10.130 -0.1602  0.2130  0.0745
    4loPI   C2B   62   2.971  13.476   9.815  0.0907 -0.0199  0.5132
    4loPI   C3B   63   2.926  13.488   9.423  0.0762  0.1792  0.0685
    4loPI   C4B   64   2.913  13.486   8.957 -0.2596  0.1665  0.3186
    5loPI    C1   65  11.489   2.994  11.048  0.1965 -0.0527 -0.0745
    5loPI    C2   66  11.372   3.318  11.250 -0.1941 -0.0304 -0.3253
    5loPI    C3   67  11.261   2.955  11.375  0.2451 -0.0758 -0.0432
    5loPI   PO4   68  11.461   3.030  10.854 -0.2518  0.2696  0.1242
    5loPI   GL1   69  11.354   2.702  10.516  0.1019 -0.0848 -0.0856
    5loPI   GL2   70  11.638   2.471  10.516  0.3080 -0.0309 -0.1780
    5loPI   C1A   71  11.174   2.882  10.106 -0.0035 -0.1154  0.0458
    5loPI   C2A   72  11.174   2.995   9.667 -0.0194 -0.0793  0.0617
    5loPI   C3A   73  11.159   2.969   9.223 -0.2258 -0.0047 -0.0994
    5loPI   C4A   74  11.347   3.006   8.898 -0.2383 -0.1771  0.2127
    5loPI   C5A   75  11.522   3.292   8.561 -0.0842 -0.0078 -0.1436
    5loPI   C6A   76  11.699   3.553   8.169 -0.1235  0.0593  0.3187
    5loPI   C1B   77  11.547   2.575  10.039  0.0039 -0.0040  0.1175
    5loPI   C2B   78  11.450   2.615   9.486 -0.2693 -0.4021  0.0323
    5loPI   C3B   79  11.613   2.571   9.034 -0.0148 -0.1374 -0.0464
    5loPI   C4B   80  11.511   2.583   8.681 -0.1902  0.3407  0.0330
    6loPI    C1   81  17.827   0.711  10.940 -0.2152 -0.0348  0.0231
    6loPI    C2   82  17.637   0.406  11.116 -0.1556 -0.0560  0.0512
    6loPI    C3   83  17.587   0.778  11.253  0.1359 -0.1100  0.3167
    6loPI   PO4   84  17.745   0.637  10.651  0.3541  0.0400  0.0254
    6loPI   GL1   85  17.872   0.638  10.239 -0.1288  0.1877 -0.3593
    6loPI   GL2   86  17.584   0.442  10.138 -0.1023 -0.2820  0.0182
    6loPI   C1A   87  17.711   0.806   9.741 -0.2495 -0.2758  0.1614
    6loPI   C2A   88  17.745   0.861   9.317  0.0240  0.0397  0.2155
    6loPI   C3A   89  17.683   0.840   8.947 -0.0744 -0.0876  0.3271
    6loPI   C4A   90  17.673   0.901   8.550  0.0082 -0.1676  0.3102
    6loPI   C5A   91  17.722   1.045   8.125 -0.0506 -0.3059  0.2808
    6loPI   C6A   92  17.936   1.187   7.784  0.0812 -0.0445  0.2646
    6loPI   C1B   93  17.544   0.296   9.662  0.0278 -0.0153  0.2343
    6loPI   C2B   94  17.521   0.439   9.275 -0.3025 -0.1382 -0.0135
    6loPI   C3B   95  17.494   0.403   8.867 -0.0175  0.0228  0.0937
    6loPI   C4B   96  17.495   0.339   8.440  0.1839 -0.2073  0.3017
    7loPI    C1   97   5.098   0.635  10.788  0.0170  0.1384 -0.0804
    7loPI    C2   98   5.366   0.831  11.011  0.0589 -0.0174  0.0078
    7loPI    C3   99   4.983   0.814  11.127 -0.0458  0.4246 -0.2493
    7loPI   PO4  100   5.149   0.684  10.567 -0.1475  0.1884  0.1497
    7loPI   GL1  101   5.387   0.802  10.260 -0.1719 -0.0628  0.3985
    7loPI   GL2  102   5.377   0.488  10.055  0.0077 -0.1200  0.0605
    7loPI   C1A  103   5.624   1.112  10.056  0.4411 -0.0435 -0.0837
    7loPI   C2A  104   5.703   1.076   9.570  0.1847  0.2378  0.1391
    7loPI   C3A  105   5.711   1.014   9.226  0.0730 -0.2160  0.1521
    7loPI   C4A  106   5.527   1.053   8.919  0.0843 -0.0358  0.0123
    7loPI   C5A  107   5.417   0.938   8.501  0.2003 -0.3602 -0.1665
    7loPI   C6A  108   5.030   0.853   8.213  0.0877 -0.3893 -0.2856
    7loPI   C1B  109   5.522   0.533   9.585  0.0492 -0.1335  0.3963
    7loPI   C2B  110   5.485   0.584   9.139  0.0691 -0.2440 -0.2196
    7loPI   C3B  111   5.323   0.499   8.827 -0.1142 -0.1753  0.0748
    7loPI   C4B  112   5.227   0.385   8.366 -0.4212 -0.1434 -0.2965
    8loPI    C1  113  13.158  17.027  10.974  0.0341 -0.1740  0.0922
    8loPI    C2  114  13.516  16.972  11.143  0.0164 -0.0223  0.1804
    8loPI    C3  115  13.238  17.192  11.329 -0.0757 -0.0269  0.0497
    8loPI   PO4  116  13.197  16.891  10.728 -0.0967 -0.2578  0.0036
    8loPI   GL1  117  13.105  16.947  10.404 -0.0761  0.0134  0.1080
    8loPI   GL2  118  12.836  16.779  10.363 -0.1656  0.0270 -0.3529
    8loPI   C1A  119  13.167  16.638  10.031  0.1988  0.1084  0.0365
    8loPI   C2A  120  13.059  16.627   9.560  0.3755  0.1250  0.1038
    8loPI   C3A  121  12.972  16.623   9.126  0.2562 -0.2259 -0.0659
    8loPI   C4A  122  12.949  16.631   8.699  0.0574  0.1420 -0.1470
    8loPI   C5A  123  12.972  16.910   8.396 -0.1553 -0.1860  0.2394
    8loPI   C6A  124  13.089  17.221   8.033 -0.0292 -0.0433 -0.1888
    8loPI   C1B  125  12.789  16.976  10.008  0.2101  0.0683  0.1359
    8loPI   C2B  126  12.740  17.010   9.578  0.1477  0.1200 -0.0574
    8loPI   C3B  127  12.667  17.016   9.149 -0.0261  0.2588 -0.3722
    8loPI   C4B  128  12.666  17.156   8.707  0.2005 -0.0328  0.2238
    9loPI    C1  129  15.639  16.390  11.199  0.1319  0.0113 -0.0899
    9loPI    C2  130  15.937  16.528  11.427  0.2155 -0.4103  0.0666
    9loPI    C3  131  15.570  16.488  11.581  0.0676  0.1125 -0.1272
    9loPI   PO4  132  15.801  16.390  10.989 -0.0833  0.0637 -0.0424
    9loPI   GL1  133  15.844  16.553  10.573 -0.5394  0.0056 -0.1233
    9loPI   GL2  134  16.138  16.790  10.522  0.1502  0.0784 -0.2948
    9loPI   C1A  135  15.869  16.636  10.111  0.1444  0.0543 -0.1906
    9loPI   C2A  136  15.858  16.638   9.716 -0.1447 -0.0759 -0.0384
    9loPI   C3A  137  15.901  16.683   9.237 -0.1203  0.1560  0.2674
    9loPI   C4A  138  15.896  16.715   8.834  0.2196  0.0409  0.1286
    9loPI   C5A  139  15.709  16.424   8.576  0.3003 -0.0118 -0.2213
    9loPI   C6A  140  15.442  16.314   8.116 -0.3158  0.0321  0.1639
    9loPI   C1B  141  16.352  16.732  10.116 -0.0854  0.5109 -0.4138
    9loPI   C2B  142  16.437  16.726   9.623  0.2190 -0.1581 -0.1092
    9loPI   C3B  143  16.430  16.801   9.142  0.2500  0.1036 -0.0444
    9loPI   C4B  144  16.427  16.735   8.790  0.0288 -0.0178  0.1605
   10loPI    C1  145  17.868   6.638  10.744 -0.0088  0.1060  0.1287
   10loPI    C2  146  18.129   6.340  10.798  0.0642  0.1577  0.0617
   10loPI    C3  147  17.748   6.294  10.909  0.1179  0.1090  0.2288
   10loPI   PO4  148  17.856   6.702  10.522  0.3843  0.2216  0.0398
   10loPI   GL1  149  17.842   7.108  10.246 -0.0898  0.0190 -0.0215
   10loPI   GL2  150  17.942   7.470  10.359  0.0520  0.2071  0.3512
   10loPI   C1A  151  18.040   6.971   9.873 -0.0829  0.2927 -0.0758
   10loPI   C2A  152  18.091   6.845   9.442 -0.1724  0.1964 -0.2674
   10loPI   C3A  153  17.989   6.930   9.076  0.1249 -0.1284  0.2737
   10loPI   C4A  154  18.169   6.975   8.690 -0.0315 -0.1558  0.1608
   10loPI   C5A  155  18.146   7.067   8.220  0.1899  0.2988 -0.0225
   10loPI   C6A  156  18.374   7.254   7.966 -0.0895 -0.0749 -0.1237
   10loPI   C1B  157  18.151   7.425   9.973 -0.3832 -0.2100  0.1233
   10loPI   C2B  158  18.211   7.336   9.517 -0.1992 -0.0124 -0.2768
   10loPI   C3B  159  18.210   7.341   9.054  0.1541  0.0041 -0.1131
   10loPI   C4B  160  18.312   7.429   8.588 -0.0615  0.0028 -0.1726
   11loPI    C1  161   0.702   0.184  10.499  0.0800 -0.0218  0.1554
   11loPI    C2  162   0.769   0.172  10.894  0.2013 -0.3386  0.1281
   11loPI    C3  163   1.072   0.240  10.642  0.1193 -0.1104  0.0892
   11loPI   PO4  164   0.504   0.419  10.485 -0.0347 -0.0218  0.3462
   11loPI   GL1  165   0.417   0.640  10.131  0.2479 -0.0128 -0.4181
   11loPI   GL2  166   0.845   0.538  10.099  0.2683  0.2208 -0.2043
   11loPI   C1A  167   0.582   0.542   9.687  0.3249  0.1311  0.0080
   11loPI   C2A  168   0.584   0.590   9.224  0.1452  0.2146  0.0775
   11loPI   C3A  169   0.610   0.658   8.822 -0.3587 -0.0547  0.2036
   11loPI   C4A  170   0.562   0.690   8.336  0.2209 -0.1809 -0.1090
   11loPI   C5A  171   0.787   0.676   7.970  0.2267  0.2898  0.0369
   11loPI   C6A  172   0.795   0.465   7.614  0.2677  0.2720  0.0969
   11loPI   C1B  173   1.080   0.616   9.705  0.0788  0.2118 -0.0488
   11loPI   C2B  174   1.169   0.712   9.316  0.3574  0.0086 -0.1385
   11loPI   C3B  175   1.070   0.705   8.942 -0.0396 -0.0579  0.0184
   11loPI   C4B  176   1.037   0.760   8.499  0.4457 -0.0256  0.0802
   12loPI    C1  177   4.147   0.143  10.688  0.2258 -0.2317  0.1854
   12loPI    C2  178   4.018   0.107  11.065  0.0605 -0.1443  0.1377
   12loPI    C3  179   4.327   0.346  10.981 -0.0565  0.0255  0.1853
   12loPI   PO4  180   3.928   0.185  10.511 -0.0572 -0.0901  0.0520
   12loPI   GL1  181   3.940   0.265  10.089  0.1689 -0.0758  0.1958
   12loPI   GL2  182   3.851  -0.083  10.049 -0.2149 -0.0865  0.1048
   12loPI   C1A  183   3.916   0.239   9.594  0.1984 -0.1574  0.0237
   12loPI   C2A  184   3.864   0.186   9.155 -0.0802 -0.0178  0.1129
   12loPI   C3A  185   3.808   0.161   8.754 -0.0396  0.3313 -0.4222
   12loPI   C4A  186   3.731   0.138   8.286 -0.0612 -0.4046 -0.1935
   12loPI   C5A  187   3.766  -0.099   7.968  0.3587 -0.0539 -0.0512
   12loPI   C6A  188   3.642  -0.621   7.817  0.0163 -0.0593 -0.2370
   12loPI   C1B  189   3.791  -0.232   9.666  0.0354 -0.1023 -0.1146
   12loPI   C2B  190   3.691  -0.265   9.190 -0.0864  0.0810 -0.0636
   12loPI   C3B  191   3.614  -0.306   8.671 -0.0171  0.0253 -0.2153
   12loPI   C4B  192   3.520  -0.403   8.264 -0.0678  0.0854 -0.0945
   13loPI    C1  193  11.233   8.665  10.505  0.2955  0.0104  0.1615
   13loPI    C2  194  11.088   9.021  10.615 -0.1430 -0.0786 -0.1039
   13loPI    C3  195  10.869   8.691  10.669  0.2416 -0.3073  0.0988
   13loPI   PO4  196  11.275   8.717  10.283  0.1774  0.2898 -0.2014
   13loPI   GL1  197  11.082   8.447   9.996 -0.3482 -0.1619 -0.0851
   13loPI   GL2  198  10.754   8.290   9.889 -0.1867  0.0406 -0.2079
   13loPI   C1A  199  11.229   8.444   9.585 -0.0400 -0.1317  0.1531
   13loPI   C2A  200  11.245   8.562   9.193 -0.2467 -0.3183  0.2459
   13loPI   C3A  201  11.390   8.551   8.846  0.0244 -0.2236  0.0307
   13loPI   C4A  202  11.426   8.369   8.458 -0.1726 -0.2059  0.0431
   13loPI   C5A  203  11.768   8.407   8.191  0.1923  0.1152  0.1055
   13loPI   C6A  204  11.787   8.565   7.773  0.4167 -0.1117  0.1422
   13loPI   C1B  205  10.750   8.322   9.463  0.1499 -0.3502  0.0313
   13loPI   C2B  206  10.843   8.370   8.967  0.1571  0.1085  0.1784
   13loPI   C3B  207  10.967   8.354   8.498  0.1622  0.1968 -0.2893
   13loPI   C4B  208  10.898   8.284   8.190  0.1463  0.2590  0.0599
   14loPI    C1  209   0.007  10.628  11.091 -0.0472 -0.0178 -0.0807
   14loPI    C2  210   0.133  10.831  11.412  0.2131 -0.3187  0.0129
   14loPI    C3  211  -0.178  10.581  11.443 -0.1552  0.1094 -0.1196
   14loPI   PO4  212   0.033  10.853  10.857  0.3597 -0.0944  0.1723
   14loPI   GL1  213   0.118  11.043  10.439 -0.0932  0.1033 -0.0778
   14loPI   GL2  214   0.460  10.948  10.439  0.0989 -0.0877 -0.1767
   14loPI   C1A  215   0.190  11.007   9.979 -0.0144  0.0923  0.0168
   14loPI   C2A  216   0.073  11.062   9.570  0.1346  0.2848 -0.0048
   14loPI   C3A  217   0.155  11.126   9.136  0.3397 -0.0311  0.3301
   14loPI   C4A  218   0.165  11.117   8.641  0.0681 -0.1242 -0.1846
   14loPI   C5A  219   0.337  10.962   8.326 -0.0872  0.0105  0.0562
   14loPI   C6A  220   0.405  10.827   7.882  0.2763 -0.3603  0.0366
   14loPI   C1B  221   0.663  11.185  10.072  0.2540  0.2037  0.0321
   14loPI   C2B  222   0.721  11.283   9.662  0.0163 -0.2163 -0.0431
   14loPI   C3B  223   0.757  11.233   9.198 -0.0181 -0.1142 -0.1164
   14loPI   C4B  224   0.649  11.273   8.794 -0.0017 -0.1093 -0.1596
   15loPI    C1  225  12.495  15.405  11.192  0.2136 -0.1772 -0.0448
   15loPI    C2  226  12.357  15.030  11.202  0.1690 -0.1564  0.1565
   15loPI    C3  227  12.413  15.232  11.543  0.2019  0.0169  0.0497
   15loPI   PO4  228  12.390  15.460  10.935  0.0397  0.0001  0.3194
   15loPI   GL1  229  12.327  15.427  10.479 -0.0871  0.1190 -0.0487
   15loPI   GL2  230  12.600  15.292  10.482  0.1081 -0.0853 -0.0832
   15loPI   C1A  231  12.069  15.518  10.171 -0.0116 -0.0505 -0.1235
   15loPI   C2A  232  12.157  15.570   9.763  0.3895  0.0919 -0.2031
   15loPI   C3A  233  12.093  15.550   9.370  0.0590  0.2642  0.0124
   15loPI   C4A  234  12.100  15.595   8.925 -0.2105 -0.1066 -0.0493
   15loPI   C5A  235  12.003  15.492   8.614  0.0652 -0.0939 -0.0620
   15loPI   C6A  236  12.026  15.437   8.106  0.4199  0.1356 -0.0393
   15loPI   C1B  237  12.600  15.542  10.039 -0.0646 -0.1331 -0.0046
   15loPI   C2B  238  12.694  15.620   9.695 -0.0966  0.0168 -0.0713
   15loPI   C3B  239  12.608  15.673   9.272 -0.0650 -0.2447  0.0929
   15loPI   C4B  240  12.622  15.596   8.916  0.0284 -0.0460  0.0399
   16loPI    C1  241  11.480   0.826  10.504 -0.0107  0.0039  0.0840
   16loPI    C2  242  11.298   0.699  10.837 -0.0595 -0.0216  0.0475
   16loPI    C3  243  11.087   0.883  10.551 -0.0459 -0.1352 -0.0364
   16loPI   PO4  244  11.679   0.581  10.409  0.1204  0.2604 -0.2044
   16loPI   GL1  245  11.813   0.384  10.083  0.0770 -0.0688 -0.2659
   16loPI   GL2  246  11.560   0.214   9.957 -0.0776  0.0390 -0.0460
   16loPI   C1A  247  11.886   0.742   9.817  0.2740  0.0229 -0.0773
   16loPI   C2A  248  11.942   0.797   9.436 -0.0936 -0.0483  0.3743
   16loPI   C3A  249  11.937   0.770   9.049 -0.1199 -0.0565  0.1882
   16loPI   C4A  250  11.881   0.822   8.521  0.2698  0.1551 -0.3311
   16loPI   C5A  251  11.734   0.932   8.184  0.1824  0.1410  0.1162
   16loPI   C6A  252  11.693   1.233   7.949 -0.0288  0.3208 -0.0026
   16loPI   C1B  253  11.853   0.207   9.629 -0.0601 -0.1406  0.5023
   16loPI   C2B  254  11.857   0.270   9.206 -0.2290  0.0116  0.0727
   16loPI   C3B  255  11.624   0.313   8.770  0.1553  0.1318 -0.2135
   16loPI   C4B  256  11.531   0.419   8.373  0.2276 -0.0764  0.0275
   17loPI    C1  257  16.052   8.462  10.744  0.1143  0.2769 -0.2353
   17loPI    C2  258  15.690   8.454  10.575 -0.0249 -0.1586  0.0634
   17loPI    C3  259  15.961   8.176  10.479  0.1781  0.0712 -0.0390
   17loPI   PO4  260  16.103   8.698  10.733  0.1759 -0.1546 -0.0186
   17loPI   GL1  261  16.141   8.812  10.304 -0.2816  0.2617 -0.2268
   17loPI   GL2  262  16.080   8.589  10.215 -0.0563  0.2856  0.3826
   17loPI   C1A  263  16.248   8.920   9.796  0.0171  0.0609 -0.2967
   17loPI   C2A  264  16.387   8.910   9.395  0.1946  0.1959 -0.0696
   17loPI   C3A  265  16.471   8.933   8.954  0.2048  0.0926 -0.1138
   17loPI   C4A  266  16.745   8.922   8.599 -0.0895  0.2730  0.0471
   17loPI   C5A  267  16.996   9.276   8.432 -0.2944 -0.0491  0.0228
   17loPI   C6A  268  17.032   9.631   8.134 -0.2952 -0.1540  0.0688
   17loPI   C1B  269  16.055   8.454   9.796 -0.0097 -0.0241  0.1639
   17loPI   C2B  270  16.194   8.463   9.320  0.1224 -0.3255  0.0864
   17loPI   C3B  271  16.248   8.408   8.843  0.4246  0.0983 -0.0036
   17loPI   C4B  272  16.151   8.392   8.441  0.1228 -0.4020  0.2101
   18loPI    C1  273   8.142  15.883  10.554 -0.1916 -0.0928 -0.1504
   18loPI    C2  274   8.157  15.991  10.939 -0.0263  0.0104 -0.1847
   18loPI    C3  275   7.838  15.794  10.799  0.0189 -0.2437  0.0605
   18loPI   PO4  276   8.195  16.044  10.367  0.1363 -0.1322  0.1287
   18loPI   GL1  277   8.379  15.974  10.089  0.0156  0.0945 -0.5132
   18loPI   GL2  278   8.495  16.229   9.993  0.0688 -0.1543 -0.0193
   18loPI   C1A  279   8.273  15.880   9.625 -0.0924  0.3490 -0.2084
   18loPI   C2A  280   8.357  15.975   9.212 -0.0536  0.0453  0.1394
   18loPI   C3A  281   8.151  16.215   8.870  0.1176 -0.0089 -0.2414
   18loPI   C4A  282   8.155  16.306   8.424 -0.2222 -0.0376  0.0557
   18loPI   C5A  283   8.201  16.031   8.102  0.2920  0.0133  0.0659
   18loPI   C6A  284   8.093  15.695   7.785  0.2597 -0.2413  0.0899
   18loPI   C1B  285   8.571  16.283   9.545  0.1156  0.0751  0.0285
   18loPI   C2B  286   8.579  16.380   9.096  0.0374  0.0253  0.1911
   18loPI   C3B  287   8.613  16.343   8.613  0.4017 -0.2089 -0.0568
   18loPI   C4B  288   8.654  16.374   8.184 -0.1985  0.0034  0.1652
   19loPI    C1  289  12.197   6.880  10.890  0.1929 -0.1551 -0.1296
   19loPI    C2  290  11.822   6.851  10.756  0.0577  0.1985  0.1555
   19loPI    C3  291  11.947   6.613  11.052  0.0460  0.1111  0.0907
   19loPI   PO4  292  12.276   7.143  10.775  0.3089  0.1337  0.1225
   19loPI   GL1  293  12.438   7.065  10.379 -0.0095 -0.0821  0.0678
   19loPI   GL2  294  12.804   6.913  10.357  0.0029  0.1461  0.1984
   19loPI   C1A  295  12.291   7.151  10.002  0.1730 -0.2300  0.1156
   19loPI   C2A  296  12.324   7.255   9.610 -0.1693  0.0892 -0.3075
   19loPI   C3A  297  12.357   7.207   9.179  0.2875 -0.2136  0.1894
   19loPI   C4A  298  12.345   7.230   8.721 -0.0315  0.2595  0.0558
   19loPI   C5A  299  12.340   7.087   8.369  0.0710 -0.2146  0.0637
   19loPI   C6A  300  12.266   6.773   8.049 -0.1113 -0.1092 -0.2150
   19loPI   C1B  301  12.711   6.830   9.888  0.0684 -0.1139  0.2388
   19loPI   C2B  302  12.686   6.917   9.547 -0.4389  0.0208 -0.2939
   19loPI   C3B  303  12.656   6.751   9.100 -0.0992 -0.0129 -0.1742
   19loPI   C4B  304  12.653   6.857   8.715 -0.0026  0.1832  0.1985
   20loPI    C1  305   9.055   4.617  10.860 -0.1271  0.0107  0.0733
   20loPI    C2  306   9.068   4.459  11.227  0.1925 -0.0830  0.0250
   20loPI    C3  307   9.262   4.799  11.150  0.0304 -0.0019 -0.0303
   20loPI   PO4  308   8.882   4.644  10.752  0.0777  0.0081 -0.2014
   20loPI   GL1  309   8.944   4.789  10.229  0.0775  0.2012 -0.3567
   20loPI   GL2  310   8.588   4.757  10.220 -0.3569 -0.2136 -0.2916
   20loPI   C1A  311   8.990   4.837   9.822  0.0857 -0.0567  0.0240
   20loPI   C2A  312   8.988   4.855   9.382  0.1043  0.1405 -0.3198
   20loPI   C3A  313   8.937   4.845   8.937  0.1841  0.1563  0.0506
   20loPI   C4A  314   8.981   4.846   8.479  0.1700 -0.2178 -0.1729
   20loPI   C5A  315   8.853   4.901   8.085  0.1706 -0.2401 -0.3316
   20loPI   C6A  316   8.382   4.717   8.012 -0.1186  0.1136 -0.0717
   20loPI   C1B  317   8.476   4.720   9.805  0.0720 -0.0974 -0.5531
   20loPI   C2B  318   8.489   4.686   9.372 -0.2940  0.0418  0.0888
   20loPI   C3B  319   8.391   4.756   8.953 -0.0598  0.0263 -0.0221
   20loPI   C4B  320   8.399   4.744   8.490  0.3940 -0.1326 -0.2761
   21loPI    C1  321  13.548   9.075  10.954  0.1935  0.0826  0.0019
   21loPI    C2  322  13.299   8.966  11.247  0.0469 -0.0975 -0.1860
   21loPI    C3  323  13.691   9.003  11.320 -0.0054 -0.0123  0.0621
   21loPI   PO4  324  13.466   9.297  10.754 -0.3786  0.1471  0.0257
   21loPI   GL1  325  13.349   9.314  10.412  0.3469 -0.1827  0.2619
   21loPI   GL2  326  13.444   9.652  10.383 -0.3052 -0.0020 -0.4965
   21loPI   C1A  327  13.500   9.295   9.910 -0.0173  0.1576  0.0033
   21loPI   C2A  328  13.619   9.267   9.530 -0.0845 -0.0179  0.2139
   21loPI   C3A  329  13.810   9.356   9.127 -0.0123 -0.2556 -0.1406
   21loPI   C4A  330  13.758   9.234   8.645 -0.3417 -0.1376  0.1588
   21loPI   C5A  331  13.672   9.187   8.271  0.0067  0.0260  0.0057
   21loPI   C6A  332  13.884   9.219   7.872  0.0129  0.0083  0.0178
   21loPI   C1B  333  13.671   9.805  10.030  0.0131  0.2021 -0.1909
   21loPI   C2B  334  13.796   9.823   9.591  0.1581  0.0733 -0.2050
   21loPI   C3B  335  13.906   9.792   9.271 -0.2731  0.1041  0.0424
   21loPI   C4B  336  13.990   9.729   8.788 -0.1368 -0.2152  0.0034
   22loPI    C1  337  17.797   9.361  11.133 -0.0152 -0.0011 -0.1108
   22loPI    C2  338  17.959   9.058  11.337 -0.1319 -0.1086 -0.1758
   22loPI    C3  339  18.120   9.424  11.360 -0.0460 -0.1549 -0.0233
   22loPI   PO4  340  17.598   9.191  10.983 -0.0832 -0.1815  0.0987
   22loPI   GL1  341  17.514   9.113  10.507 -0.0027 -0.1774  0.0957
   22loPI   GL2  342  17.810   8.950  10.446 -0.0554  0.1423  0.5070
   22loPI   C1A  343  17.371   9.040  10.065  0.3376  0.1750 -0.0460
   22loPI   C2A  344  17.422   9.158   9.561  0.0865 -0.0193 -0.2100
   22loPI   C3A  345  17.563   9.228   9.130 -0.1299  0.0928 -0.1362
   22loPI   C4A  346  17.419   9.047   8.645 -0.2967  0.2288  0.0679
   22loPI   C5A  347  17.393   8.788   8.213  0.1340  0.0477 -0.1732
   22loPI   C6A  348  17.516   8.802   7.720  0.1643 -0.2466 -0.0797
   22loPI   C1B  349  17.851   9.151  10.120 -0.1840 -0.0888 -0.1738
   22loPI   C2B  350  17.952   9.199   9.709 -0.2874  0.0948 -0.1376
   22loPI   C3B  351  18.113   9.255   9.366 -0.0352  0.2469  0.0363
   22loPI   C4B  352  18.046   9.250   8.987  0.0045 -0.2362 -0.0553
   23loPI    C1  353  16.443  16.473  11.377 -0.1699 -0.1570 -0.0505
   23loPI    C2  354  16.743  16.269  11.545 -0.0180  0.0959 -0.0084
   23loPI    C3  355  16.436  16.394  11.769 -0.1169 -0.0920 -0.0363
   23loPI   PO4  356  16.534  16.353  11.078 -0.1068  0.0683  0.0937
   23loPI   GL1  357  16.265  16.297  10.697  0.1612 -0.1879  0.0872
   23loPI   GL2  358  15.952  16.059  10.646  0.0293  0.1548  0.1074
   23loPI   C1A  359  16.247  16.203  10.261  0.2235 -0.0277 -0.0392
   23loPI   C2A  360  16.212  16.289   9.866  0.1364 -0.0217 -0.2179
   23loPI   C3A  361  16.185  16.279   9.374 -0.2053 -0.1401  0.2582
   23loPI   C4A  362  16.208  16.226   8.913  0.0367 -0.2915 -0.3683
   23loPI   C5A  363  16.226  16.297   8.477  0.1353  0.1436  0.1897
   23loPI   C6A  364  15.961  16.422   8.150 -0.2812  0.0935 -0.0431
   23loPI   C1B  365  15.725  16.180  10.323  0.2101  0.0278  0.3471
   23loPI   C2B  366  15.715  16.169   9.896 -0.1721 -0.1287  0.1677
   23loPI   C3B  367  15.646  16.205   9.507  0.0339 -0.1228  0.1679
   23loPI   C4B  368  15.594  16.245   9.043 -0.2185  0.0226  0.3610
   24loPI    C1  369   1.014   3.310  10.719 -0.1924  0.0341  0.1369
   24loPI    C2  370   1.393   3.437  10.731 -0.2474  0.1832  0.3525
   24loPI    C3  371   1.277   3.133  10.964 -0.2320  0.0553  0.1950
   24loPI   PO4  372   0.940   3.346  10.471  0.0805 -0.0229 -0.0273
   24loPI   GL1  373   0.886   3.445  10.113  0.1508 -0.0223  0.3071
   24loPI   GL2  374   1.039   3.529   9.965  0.2009  0.1391  0.0748
   24loPI   C1A  375   0.708   3.325   9.641 -0.2712 -0.1118  0.0827
   24loPI   C2A  376   0.568   3.273   9.178  0.0704  0.1825 -0.0958
   24loPI   C3A  377   0.578   3.378   8.735 -0.0037 -0.1122  0.2129
   24loPI   C4A  378   0.641   3.284   8.257  0.2044  0.1963 -0.1830
   24loPI   C5A  379   0.857   3.436   7.835  0.0366  0.1508 -0.3151
   24loPI   C6A  380   1.294   3.686   7.636 -0.1564  0.0196  0.0910
   24loPI   C1B  381   1.207   3.394   9.512  0.0814 -0.2274 -0.2414
   24loPI   C2B  382   1.218   3.371   9.010 -0.4741  0.0173  0.2269
   24loPI   C3B  383   1.073   3.464   8.621 -0.3786  0.0294 -0.0763
   24loPI   C4B  384   1.159   3.447   8.194  0.0104 -0.1725  0.1088
   25loPI    C1  385  12.503   9.942  10.613 -0.1182  0.0994  0.1329
   25loPI    C2  386  12.721  10.086  10.916  0.0345 -0.0621  0.1010
   25loPI    C3  387  12.336  10.188  10.881  0.1122  0.2551  0.1371
   25loPI   PO4  388  12.679  10.001  10.444 -0.0146  0.2648 -0.1328
   25loPI   GL1  389  13.013  10.016  10.232 -0.2313  0.2019  0.3760
   25loPI   GL2  390  13.272  10.110  10.270  0.0506  0.2306  0.1627
   25loPI   C1A  391  12.859  10.026   9.863 -0.1675  0.1982 -0.3055
   25loPI   C2A  392  12.960  10.019   9.496  0.0649 -0.1062 -0.1032
   25loPI   C3A  393  13.047  10.055   9.051  0.2221 -0.2380 -0.0089
   25loPI   C4A  394  13.183  10.018   8.551  0.0540 -0.0942  0.1395
   25loPI   C5A  395  13.314  10.034   8.191 -0.1392  0.0733  0.0415
   25loPI   C6A  396  13.589  10.041   7.833 -0.0670  0.0910  0.1779
   25loPI   C1B  397  13.332  10.143   9.887  0.1459  0.0477  0.0297
   25loPI   C2B  398  13.498  10.180   9.457 -0.2183 -0.0503 -0.3151
   25loPI   C3B  399  13.631  10.145   9.081 -0.0669 -0.1859  0.2168
   25loPI   C4B  400  13.714  10.152   8.567  0.0295 -0.1864 -0.2562
   26loPI    C1  401   7.164   1.536  11.196  0.0511  0.0066 -0.0077
   26loPI    C2  402   7.325   1.319  11.490  0.0332 -0.0961 -0.0734
   26loPI    C3  403   7.001   1.543  11.561  0.1886  0.0908  0.0526
   26loPI   PO4  404   7.191   1.400  11.012  0.2437  0.2410  0.1634
   26loPI   GL1  405   7.076   1.462  10.654 -0.1140  0.2207 -0.3014
   26loPI   GL2  406   7.304   1.256  10.517 -0.1233 -0.0050 -0.0022
   26loPI   C1A  407   7.397   1.746  10.284  0.0126 -0.0794  0.0398
   26loPI   C2A  408   7.387   1.817   9.905 -0.3937  0.2107  0.0619
   26loPI   C3A  409   7.387   1.766   9.440  0.0240 -0.4826  0.2537
   26loPI   C4A  410   7.385   1.717   9.022 -0.1001  0.2994  0.0933
   26loPI   C5A  411   7.276   1.716   8.579  0.1114  0.0896 -0.1225
   26loPI   C6A  412   7.062   1.863   8.151  0.0601 -0.0733  0.1084
   26loPI   C1B  413   7.256   1.316  10.100 -0.4254  0.1245  0.0465
   26loPI   C2B  414   7.218   1.313   9.608  0.1955  0.4119 -0.2706
   26loPI   C3B  415   7.167   1.297   9.217  0.0077  0.0423  0.0757
   26loPI   C4B  416   7.135   1.225   8.705 -0.0385  0.0368 -0.3156
   27loPI    C1  417   5.691  15.085  10.656  0.0643 -0.1647  0.0916
   27loPI    C2  418   5.661  15.328  10.971 -0.0280 -0.0031 -0.0405
   27loPI    C3  419   6.019  15.251  10.812  0.0212 -0.1029  0.1164
   27loPI   PO4  420   5.483  14.926  10.592  0.2907  0.1191  0.3713
   27loPI   GL1  421   5.239  14.806  10.216  0.1278 -0.0449 -0.1669
   27loPI   GL2  422   4.927  14.643  10.068 -0.0340  0.1919  0.2514
   27loPI   C1A  423   5.380  14.804   9.889  0.1142 -0.0450  0.0037
   27loPI   C2A  424   5.409  14.787   9.412  0.1146 -0.1631  0.3382
   27loPI   C3A  425   5.379  14.820   8.916 -0.2585  0.0520 -0.0517
   27loPI   C4A  426   5.455  14.803   8.457  0.1091 -0.0584 -0.1497
   27loPI   C5A  427   5.850  14.673   8.241 -0.1267 -0.4266  0.0031
   27loPI   C6A  428   6.097  14.412   7.976  0.1836 -0.0875 -0.1748
   27loPI   C1B  429   4.958  14.677   9.670 -0.2473 -0.0186  0.3841
   27loPI   C2B  430   4.903  14.726   9.198 -0.1386 -0.0827  0.1907
   27loPI   C3B  431   4.854  14.712   8.750 -0.1493 -0.0716 -0.0296
   27loPI   C4B  432   4.839  14.578   8.391  0.2662 -0.1618  0.0474
   28loPI    C1  433   9.350  13.247  10.227  0.0017  0.0368  0.1622
   28loPI    C2  434   9.620  13.235  10.522  0.0715 -0.0894  0.0937
   28loPI    C3  435   9.230  13.222  10.608  0.0907 -0.0710  0.1838
   28loPI   PO4  436   9.320  13.015  10.019 -0.2479 -0.0038 -0.0253
   28loPI   GL1  437   9.405  12.925   9.605 -0.0560 -0.0275 -0.1163
   28loPI   GL2  438   9.599  12.832   9.579  0.1276  0.0634 -0.0906
   28loPI   C1A  439   9.100  12.661   9.341  0.3567 -0.1438 -0.2530
   28loPI   C2A  440   9.073  12.606   8.927 -0.0374  0.2010 -0.0827
   28loPI   C3A  441   8.970  12.687   8.546  0.1742  0.0717 -0.0972
   28loPI   C4A  442   9.101  13.002   8.222  0.1804  0.3048 -0.2342
   28loPI   C5A  443   9.021  13.181   7.777 -0.0537  0.0071  0.0056
   28loPI   C6A  444   8.951  13.433   7.478 -0.0202 -0.1350  0.0288
   28loPI   C1B  445   9.582  12.843   9.152  0.0198  0.0100 -0.1974
   28loPI   C2B  446   9.433  12.898   8.774 -0.3283  0.2772  0.2267
   28loPI   C3B  447   9.408  12.604   8.294  0.2157  0.0194 -0.1141
   28loPI   C4B  448   9.825  12.692   8.070 -0.0843  0.0394  0.1099
   29loPI    C1  449   1.328  10.305  10.779  0.0045 -0.0972  0.0305
   29loPI    C2  450   1.680  10.287  10.966  0.0272 -0.0967 -0.0119
   29loPI    C3  451   1.618  10.563  10.684  0.0083 -0.1257 -0.0363
   29loPI   PO4  452   1.223  10.074  10.655  0.3222  0.2194  0.0426
   29loPI   GL1  453   1.095   9.895  10.354  0.0181 -0.0648  0.3532
   29loPI   GL2  454   0.882  10.058  10.285  0.0210  0.0315 -0.1855
   29loPI   C1A  455   1.107   9.884   9.860  0.0289 -0.0478  0.3613
   29loPI   C2A  456   1.243   9.819   9.449 -0.0385  0.0448 -0.1788
   29loPI   C3A  457   1.194   9.902   9.041 -0.1619  0.0012  0.2228
   29loPI   C4A  458   1.221  10.063   8.645  0.3746 -0.0716  0.0117
   29loPI   C5A  459   1.009  10.086   8.279 -0.1836  0.2218  0.1306
   29loPI   C6A  460   0.531  10.037   8.168 -0.1431  0.0582 -0.0525
   29loPI   C1B  461   0.882  10.260   9.814  0.0138  0.0807  0.1688
   29loPI   C2B  462   0.816  10.241   9.360  0.0190  0.2375 -0.1923
   29loPI   C3B  463   0.865  10.355   8.837 -0.2309 -0.2324  0.3263
   29loPI   C4B  464   0.672  10.470   8.433  0.1232 -0.0002 -0.0243
   30loPI    C1  465   9.430   5.282  10.920  0.1157 -0.0400 -0.0372
   30loPI    C2  466   9.208   5.245  11.250  0.2500  0.1559  0.0772
   30loPI    C3  467   9.044   5.181  10.891  0.0758  0.0474  0.1742
   30loPI   PO4  468   9.666   5.128  10.951  0.0082 -0.0164  0.1229
   30loPI   GL1  469   9.731   4.941  10.608 -0.0210 -0.1015  0.2119
   30loPI   GL2  470   9.404   4.900  10.574 -0.2794  0.1770  0.0851
   30loPI   C1A  471   9.951   5.026  10.172  0.0037 -0.1199  0.1685
   30loPI   C2A  472   9.992   5.006   9.692 -0.1712  0.0945  0.1049
   30loPI   C3A  473   9.898   5.099   9.269 -0.2407 -0.2129 -0.1507
   30loPI   C4A  474   9.946   5.075   8.887 -0.0528  0.1767 -0.0900
   30loPI   C5A  475  10.068   5.186   8.544  0.3013  0.0384 -0.0339
   30loPI   C6A  476  10.449   5.345   8.273 -0.1199  0.5981 -0.0362
   30loPI   C1B  477   9.456   4.939  10.131  0.1234 -0.0660 -0.1751
   30loPI   C2B  478   9.455   4.912   9.654  0.1158 -0.3885 -0.3290
   30loPI   C3B  479   9.448   4.972   9.240  0.0394 -0.1618  0.2240
   30loPI   C4B  480   9.423   5.009   8.804 -0.0413 -0.2260  0.0357
   31loPI    C1  481  12.944  15.063  11.049 -0.1840  0.3658 -0.1204
   31loPI    C2  482  12.826  14.888  11.389  0.1695  0.1353 -0.1112
   31loPI    C3  483  12.997  15.250  11.399 -0.0145  0.2224 -0.0682
   31loPI   PO4  484  12.776  15.026  10.875 -0.2489  0.0147  0.3937
   31loPI   GL1  485  12.639  14.834  10.425  0.0042 -0.1407  0.1433
   31loPI   GL2  486  12.800  14.758  10.237  0.1270 -0.1022 -0.0977
   31loPI   C1A  487  12.401  15.096  10.099  0.0345 -0.1002 -0.1757
   31loPI   C2A  488  12.413  15.136   9.650 -0.0136 -0.2654  0.1566
   31loPI   C3A  489  12.410  15.153   9.188  0.0380  0.0623  0.0684
   31loPI   C4A  490  12.342  15.134   8.803 -0.1669  0.2465 -0.0494
   31loPI   C5A  491  12.326  15.116   8.393 -0.3279  0.1597  0.3824
   31loPI   C6A  492  12.497  15.247   8.031 -0.0971  0.0312 -0.0502
   31loPI   C1B  493  12.795  14.858   9.856 -0.0935  0.1883  0.0336
   31loPI   C2B  494  12.776  14.790   9.484  0.1249  0.0080  0.1042
   31loPI   C3B  495  12.812  14.686   9.076 -0.2531 -0.1719  0.1012
   31loPI   C4B  496  12.793  14.699   8.672  0.2187  0.4714 -0.3219
   32loPI    C1  497  12.557   4.564  11.032  0.0550  0.0695  0.2176
   32loPI    C2  498  12.364   4.799  11.291 -0.0248  0.0372  0.1875
   32loPI    C3  499  12.754   4.725  11.341 -0.0672 -0.0689  0.3695
   32loPI   PO4  500  12.516   4.662  10.773 -0.0380 -0.2839 -0.1993
   32loPI   GL1  501  12.357   4.537  10.448 -0.1529 -0.1134  0.1311
   32loPI   GL2  502  12.415   4.213  10.335 -0.1068  0.1112  0.0447
   32loPI   C1A  503  12.053   4.496  10.110  0.0383  0.0673  0.0001
   32loPI   C2A  504  12.174   4.463   9.729  0.1889  0.0217  0.1657
   32loPI   C3A  505  12.225   4.504   9.283  0.0401  0.3794 -0.3449
   32loPI   C4A  506  12.267   4.569   8.928 -0.0436 -0.0401  0.3260
   32loPI   C5A  507  12.354   4.576   8.562 -0.3977 -0.1437  0.0127
   32loPI   C6A  508  12.327   5.061   8.340 -0.0471  0.1108 -0.0713
   32loPI   C1B  509  12.512   4.111   9.988 -0.1651 -0.2092 -0.1387
   32loPI   C2B  510  12.476   4.061   9.532 -0.0045  0.0086 -0.0560
   32loPI   C3B  511  12.638   4.097   9.117  0.1810 -0.3049  0.1035
   32loPI   C4B  512  12.652   4.174   8.657  0.0639 -0.2046 -0.1962
   33loPI    C1  513   2.528  17.545  10.687 -0.1243 -0.1550 -0.2310
   33loPI    C2  514   2.593  17.176  10.545  0.0499 -0.2001 -0.0396
   33loPI    C3  515   2.587  17.241  10.940  0.2714  0.0449 -0.0739
   33loPI   PO4  516   2.457  17.646  10.340  0.0819 -0.1094 -0.1922
   33loPI   GL1  517   2.083  17.492  10.069  0.0670  0.0544  0.2408
   33loPI   GL2  518   1.709  17.436  10.069 -0.0206  0.1873 -0.3047
   33loPI   C1A  519   2.192  17.545   9.723  0.0008  0.0342 -0.0359
   33loPI   C2A  520   2.142  17.435   9.292  0.0967  0.1858  0.1344
   33loPI   C3A  521   1.924  17.509   8.964 -0.0036 -0.1094  0.0314
   33loPI   C4A  522   1.921  17.412   8.546 -0.0728  0.0140 -0.0169
   33loPI   C5A  523   1.971  17.562   8.120  0.1689 -0.2013 -0.4333
   33loPI   C6A  524   2.420  17.813   7.953  0.0138  0.0008  0.0437
   33loPI   C1B  525   1.678  17.490   9.607 -0.0524 -0.1483  0.1000
   33loPI   C2B  526   1.478  17.294   9.234 -0.0453 -0.3558  0.2909
   33loPI   C3B  527   1.438  17.393   8.724  0.0175 -0.2446 -0.0453
   33loPI   C4B  528   1.446  17.500   8.304  0.0085 -0.0930 -0.0703
   34loPI    C1  529   9.067   3.652  10.986  0.0120 -0.1154 -0.0886
   34loPI    C2  530   9.466   3.674  10.957  0.0054  0.1843  0.0045
   34loPI    C3  531   9.290   3.708  11.314 -0.0972 -0.1060 -0.0157
   34loPI   PO4  532   8.952   3.741  10.726  0.0300  0.4042 -0.0173
   34loPI   GL1  533   8.987   3.625  10.356  0.0842 -0.1875 -0.7468
   34loPI   GL2  534   8.887   3.481  10.237 -0.2193  0.1816  0.0120
   34loPI   C1A  535   9.123   3.935  10.128 -0.0557 -0.0769 -0.1518
   34loPI   C2A  536   9.103   3.987   9.689  0.0382  0.0771 -0.2439
   34loPI   C3A  537   9.112   4.009   9.267 -0.1703  0.1268 -0.0978
   34loPI   C4A  538   8.965   3.949   8.852  0.2189  0.1408  0.1963
   34loPI   C5A  539   9.137   3.987   8.454  0.0227  0.1377  0.2829
   34loPI   C6A  540   8.962   3.891   8.011  0.0357  0.0005 -0.0759
   34loPI   C1B  541   8.954   3.526   9.760  0.1277 -0.0869  0.0386
   34loPI   C2B  542   8.863   3.443   9.196 -0.1353  0.2063  0.1790
   34loPI   C3B  543   8.876   3.452   8.750  0.0004  0.0830  0.1523
   34loPI   C4B  544   8.832   3.404   8.342 -0.1580 -0.1813  0.0545
   35loPI    C1  545  13.805   8.648  10.584  0.0067 -0.0119  0.1736
   35loPI    C2  546  13.781   8.332  10.339 -0.1951  0.2750 -0.1871
   35loPI    C3  547  13.975   8.301  10.687 -0.1471 -0.2213 -0.2511
   35loPI   PO4  548  13.614   8.773  10.544 -0.2018  0.0321 -0.2231
   35loPI   GL1  549  13.381   8.808  10.157 -0.2913 -0.0618 -0.0782
   35loPI   GL2  550  13.411   8.454  10.067 -0.0072 -0.2456 -0.0221
   35loPI   C1A  551  13.422   8.786   9.676 -0.0313 -0.1081  0.3473
   35loPI   C2A  552  13.443   8.755   9.268 -0.4714 -0.1312 -0.0663
   35loPI   C3A  553  13.560   8.806   8.902  0.1437  0.1882  0.1011
   35loPI   C4A  554  13.678   8.692   8.395 -0.3285 -0.0827 -0.3753
   35loPI   C5A  555  14.014   8.829   8.151 -0.0542  0.0972 -0.2334
   35loPI   C6A  556  14.382   8.862   8.281  0.2773 -0.1025  0.0345
   35loPI   C1B  557  13.767   8.433   9.835 -0.1461  0.3207  0.0284
   35loPI   C2B  558  13.777   8.382   9.331 -0.2187  0.2256  0.1171
   35loPI   C3B  559  13.831   8.367   8.856 -0.0130  0.0441 -0.2441
   35loPI   C4B  560  14.078   8.478   8.535 -0.0299  0.1049  0.0911
   36loPI    C1  561   5.374   2.027  10.999 -0.1202  0.0153 -0.1084
   36loPI    C2  562   5.441   1.865  11.359  0.0040  0.2828 -0.0080
   36loPI    C3  563   5.068   1.883  11.213 -0.0199 -0.0280  0.0069
   36loPI   PO4  564   5.669   2.193  10.914  0.0251  0.0300 -0.1347
   36loPI   GL1  565   5.851   2.257  10.471  0.0271 -0.0845 -0.1211
   36loPI   GL2  566   5.611   2.517  10.464 -0.0382 -0.0172  0.1781
   36loPI   C1A  567   6.000   2.074  10.000 -0.2140 -0.1580 -0.2597
   36loPI   C2A  568   6.033   2.017   9.555 -0.1771  0.2531  0.2075
   36loPI   C3A  569   6.007   1.949   9.156  0.4343  0.3210 -0.1017
   36loPI   C4A  570   5.970   2.005   8.674  0.1072 -0.2906  0.0477
   36loPI   C5A  571   5.733   1.900   8.399  0.1805  0.2442  0.1669
   36loPI   C6A  572   5.286   1.885   8.364  0.0636  0.1366  0.3142
   36loPI   C1B  573   5.619   2.474  10.069  0.4225  0.5324 -0.1652
   36loPI   C2B  574   5.692   2.513   9.590  0.1624 -0.1128 -0.1056
   36loPI   C3B  575   5.730   2.426   9.178  0.1229 -0.0601  0.0084
   36loPI   C4B  576   5.613   2.389   8.721  0.0133  0.2403  0.0583
   37loPI    C1  577  15.489  11.081  11.218  0.0915  0.5246  0.1957
   37loPI    C2  578  15.803  10.849  11.303 -0.0878  0.1638 -0.0996
   37loPI    C3  579  15.588  11.010  11.599  0.1790  0.1477  0.1070
   37loPI   PO4  580  15.387  10.986  11.006  0.0006  0.2674 -0.1415
   37loPI   GL1  581  15.463  11.047  10.597 -0.0300 -0.1532 -0.1429
   37loPI   GL2  582  15.764  11.219  10.525  0.1760 -0.0403  0.1033
   37loPI   C1A  583  15.498  10.762  10.220  0.2389  0.2089 -0.0185
   37loPI   C2A  584  15.631  10.630   9.794 -0.0004  0.3177  0.1406
   37loPI   C3A  585  15.581  10.642   9.249 -0.1631 -0.1159  0.1395
   37loPI   C4A  586  15.473  10.682   8.889  0.0628 -0.2032 -0.1159
   37loPI   C5A  587  15.556  10.743   8.419 -0.0165 -0.0044  0.3640
   37loPI   C6A  588  15.904  10.828   8.416  0.1204 -0.2880  0.1523
   37loPI   C1B  589  15.745  11.136  10.103 -0.0313  0.2824  0.0332
   37loPI   C2B  590  15.660  11.128   9.684  0.1031 -0.5569  0.1652
   37loPI   C3B  591  15.757  11.187   9.201  0.1038  0.0428  0.1986
   37loPI   C4B  592  15.722  11.138   8.800  0.2763 -0.0062 -0.1119
   38loPI    C1  593   3.362   4.664  10.705 -0.0106 -0.1109 -0.0146
   38loPI    C2  594   3.052   4.870  10.851 -0.0190 -0.1755  0.0600
   38loPI    C3  595   3.352   4.763  11.093  0.1882  0.1110 -0.0641
   38loPI   PO4  596   3.368   4.852  10.479 -0.0983 -0.0725 -0.1891
   38loPI   GL1  597   3.250   4.788  10.042  0.2113 -0.2160 -0.0398
   38loPI   GL2  598   3.362   5.108   9.927 -0.1140 -0.0614 -0.1884
   38loPI   C1A  599   3.155   4.741   9.588  0.0045 -0.0493 -0.1216
   38loPI   C2A  600   3.088   4.704   9.095  0.1840  0.0087  0.0958
   38loPI   C3A  601   3.091   4.771   8.565  0.0934 -0.2090 -0.0896
   38loPI   C4A  602   2.882   4.678   8.225  0.0672  0.0756  0.2968
   38loPI   C5A  603   2.463   4.648   8.098 -0.1844  0.1371 -0.3137
   38loPI   C6A  604   2.028   4.867   8.043  0.1333 -0.1692  0.1483
   38loPI   C1B  605   3.300   5.197   9.504  0.0905 -0.2171  0.1892
   38loPI   C2B  606   3.215   5.233   9.021 -0.2705  0.0770  0.0310
   38loPI   C3B  607   3.290   5.241   8.579 -0.2305 -0.0088 -0.0242
   38loPI   C4B  608   3.319   5.219   8.034  0.1634 -0.1533  0.3416
   39loPI    C1  609  13.476   3.739  10.798  0.0628 -0.0498  0.1101
   39loPI    C2  610  13.668   4.025  10.595 -0.0556 -0.1716 -0.1790
   39loPI    C3  611  13.762   3.953  10.977  0.0483  0.1798 -0.1353
   39loPI   PO4  612  13.466   3.536  10.638 -0.1623 -0.0257  0.2312
   39loPI   GL1  613  13.594   3.561  10.271  0.0186 -0.0605  0.0401
   39loPI   GL2  614  13.878   3.340  10.152 -0.0544  0.0614  0.0605
   39loPI   C1A  615  13.459   3.781   9.921 -0.0867  0.2341  0.1383
   39loPI   C2A  616  13.416   3.744   9.529 -0.0291 -0.1110 -0.1236
   39loPI   C3A  617  13.467   3.758   9.127 -0.2895 -0.0862 -0.3534
   39loPI   C4A  618  13.591   3.875   8.693  0.2094 -0.0731 -0.0873
   39loPI   C5A  619  13.561   3.999   8.186  0.3058  0.0345  0.0961
   39loPI   C6A  620  13.202   4.170   7.903 -0.0845  0.0962  0.0426
   39loPI   C1B  621  13.719   3.401   9.790  0.1405  0.0467 -0.1064
   39loPI   C2B  622  13.719   3.389   9.340 -0.0844 -0.1512  0.4347
   39loPI   C3B  623  13.916   3.383   8.918 -0.0731 -0.1084  0.0664
   39loPI   C4B  624  13.840   3.505   8.528  0.0677 -0.0812  0.0935
   40loPI    C1  625  11.014  14.379  10.590  0.1271  0.2092 -0.0906
   40loPI    C2  626  10.729  14.345  10.869  0.1409 -0.0128 -0.1021
   40loPI    C3  627  11.085  14.502  10.964  0.1048  0.0223 -0.0239
   40loPI   PO4  628  10.935  14.077  10.424 -0.0341 -0.3084  0.0189
   40loPI   GL1  629  11.061  14.147  10.045 -0.4151 -0.0309  0.1909
   40loPI   GL2  630  11.212  13.839   9.964  0.1628 -0.1678  0.0965
   40loPI   C1A  631  11.057  14.134   9.647 -0.1521 -0.2860 -0.0222
   40loPI   C2A  632  11.150  14.098   9.191  0.2395 -0.0320  0.1548
   40loPI   C3A  633  11.074  13.988   8.789  0.2169 -0.2401  0.0092
   40loPI   C4A  634  11.265  13.864   8.342  0.2145 -0.0779  0.2853
   40loPI   C5A  635  11.529  13.846   8.034 -0.0342 -0.1928 -0.0621
   40loPI   C6A  636  11.926  13.851   7.733 -0.0833  0.1528 -0.0716
   40loPI   C1B  637  11.259  13.721   9.490 -0.0092 -0.0716  0.0895
   40loPI   C2B  638  11.328  13.596   9.048 -0.0684  0.0437  0.0917
   40loPI   C3B  639  11.432  13.502   8.618 -0.0823 -0.1317 -0.0778
   40loPI   C4B  640  11.590  13.327   8.149  0.0271 -0.1793 -0.1617
   41loPI    C1  641  15.566   2.306  10.901  0.3767  0.2623  0.0835
   41loPI    C2  642  15.694   1.928  10.885 -0.1351  0.0838  0.0577
   41loPI    C3  643  15.621   2.099  11.239 -0.2625  0.0298  0.0584
   41loPI   PO4  644  15.495   2.297  10.662 -0.1332  0.0257  0.1758
   41loPI   GL1  645  15.771   2.111  10.381  0.1318  0.0535 -0.1960
   41loPI   GL2  646  15.778   2.261  10.233 -0.1820  0.3310  0.2424
   41loPI   C1A  647  15.721   1.799  10.066  0.0354  0.1837  0.2174
   41loPI   C2A  648  15.611   1.882   9.707 -0.0771 -0.0234  0.2770
   41loPI   C3A  649  15.744   1.854   9.320  0.2391  0.0321 -0.0821
   41loPI   C4A  650  15.709   1.875   8.846 -0.0982  0.2713  0.3717
   41loPI   C5A  651  15.743   1.855   8.340  0.2864  0.2954  0.1225
   41loPI   C6A  652  15.814   2.022   7.886 -0.0051 -0.0813 -0.2796
   41loPI   C1B  653  15.805   2.296   9.861  0.2609 -0.0643 -0.0137
   41loPI   C2B  654  15.929   2.388   9.482 -0.2008  0.2858  0.1027
   41loPI   C3B  655  15.944   2.336   8.987  0.0771  0.0039  0.1834
   41loPI   C4B  656  15.843   2.426   8.573 -0.2186 -0.2217  0.0146
   42loPI    C1  657   5.250  15.614  10.851 -0.1519 -0.0050 -0.0007
   42loPI    C2  658   5.379  15.898  10.601  0.2791 -0.1873  0.0041
   42loPI    C3  659   5.481  15.911  10.987  0.1517 -0.2542  0.0407
   42loPI   PO4  660   5.275  15.407  10.693  0.0266  0.0183 -0.0463
   42loPI   GL1  661   5.255  15.296  10.248 -0.0923 -0.0687 -0.1095
   42loPI   GL2  662   5.567  15.264  10.152 -0.3457  0.0348 -0.1497
   42loPI   C1A  663   5.216  15.264   9.760  0.5580  0.1383  0.0037
   42loPI   C2A  664   5.169  15.245   9.360  0.1887 -0.1926  0.3258
   42loPI   C3A  665   5.147  15.241   8.936 -0.1800 -0.0388 -0.0287
   42loPI   C4A  666   5.073  15.260   8.530  0.3743  0.2649 -0.0236
   42loPI   C5A  667   4.753  15.204   8.225  0.3761 -0.0104 -0.2629
   42loPI   C6A  668   4.305  15.128   8.188 -0.3196  0.0208  0.0791
   42loPI   C1B  669   5.409  15.674  10.008  0.0570 -0.2038  0.0786
   42loPI   C2B  670   5.356  15.786   9.619  0.1870  0.1089 -0.1022
   42loPI   C3B  671   5.280  15.720   9.132 -0.2040 -0.2199 -0.1620
   42loPI   C4B  672   5.218  15.738   8.644  0.2699  0.0936  0.0809
   43loPI    C1  673   8.103  11.766  10.641  0.2072 -0.0865 -0.0970
   43loPI    C2  674   8.293  11.720  10.990 -0.0314  0.0252  0.0501
   43loPI    C3  675   8.231  12.087  10.843 -0.0937 -0.0127 -0.0188
   43loPI   PO4  676   8.204  11.624  10.492  0.3793 -0.0037 -0.2085
   43loPI   GL1  677   8.259  11.680  10.113  0.0183  0.2013 -0.0744
   43loPI   GL2  678   8.361  11.903   9.930  0.2117 -0.0817 -0.0455
   43loPI   C1A  679   8.086  11.541   9.725  0.0038  0.0022  0.2234
   43loPI   C2A  680   8.182  11.619   9.258 -0.0737 -0.0170  0.0126
   43loPI   C3A  681   8.163  11.696   8.824 -0.0798  0.3659  0.0735
   43loPI   C4A  682   8.120  11.575   8.327  0.1449 -0.0963  0.0237
   43loPI   C5A  683   8.278  11.336   7.929 -0.1080  0.1984  0.3566
   43loPI   C6A  684   8.706  11.284   7.863 -0.0971  0.1772 -0.1354
   43loPI   C1B  685   8.378  12.106   9.529 -0.0989 -0.0848  0.0452
   43loPI   C2B  686   8.386  12.102   8.976  0.2469 -0.1269 -0.0302
   43loPI   C3B  687   8.266  12.238   8.614 -0.0896  0.3073  0.1097
   43loPI   C4B  688   8.001  12.144   8.217 -0.1091 -0.1491 -0.1288
   44loPI    C1  689  17.237   5.115  10.568 -0.0157  0.0982  0.0105
   44loPI    C2  690  17.254   5.468  10.756  0.3081  0.1103 -0.0352
   44loPI    C3  691  17.454   5.153  10.902  0.1857 -0.0020 -0.1072
   44loPI   PO4  692  17.295   5.172  10.351 -0.3215  0.1891  0.2248
   44loPI   GL1  693  17.271   5.078   9.978 -0.0878 -0.0756  0.0796
   44loPI   GL2  694  17.068   5.323   9.910 -0.2500 -0.0253  0.1162
   44loPI   C1A  695  17.242   4.992   9.561 -0.1423  0.0206  0.1849
   44loPI   C2A  696  17.236   4.994   9.132 -0.1591 -0.1057  0.1930
   44loPI   C3A  697  17.346   4.875   8.833  0.0923 -0.1395 -0.0905
   44loPI   C4A  698  17.261   4.984   8.438 -0.0841  0.3163  0.3697
   44loPI   C5A  699  17.150   5.066   7.999  0.1660  0.3396  0.1715
   44loPI   C6A  700  16.870   5.228   7.749 -0.1511 -0.1581 -0.0661
   44loPI   C1B  701  16.908   5.316   9.585 -0.4340 -0.0813  0.4150
   44loPI   C2B  702  16.917   5.312   9.149 -0.0882 -0.1258 -0.2388
   44loPI   C3B  703  16.960   5.286   8.727  0.1599 -0.0098 -0.1588
   44loPI   C4B  704  16.935   5.415   8.269 -0.0596 -0.1381  0.0398
   45loPI    C1  705   5.655   8.841  11.000  0.0195 -0.2808  0.1819
   45loPI    C2  706   5.262   8.842  11.077 -0.0336 -0.0373 -0.0756
   45loPI    C3  707   5.507   9.082  11.283 -0.0695  0.0621 -0.1479
   45loPI   PO4  708   5.687   8.849  10.756  0.3752  0.0651  0.1217
   45loPI   GL1  709   5.627   8.682  10.360 -0.0796  0.0459 -0.3836
   45loPI   GL2  710   5.572   8.956  10.098 -0.4338 -0.2025  0.2914
   45loPI   C1A  711   5.491   8.483   9.916  0.1088  0.1433  0.2411
   45loPI   C2A  712   5.436   8.456   9.509 -0.4599 -0.0887 -0.1337
   45loPI   C3A  713   5.484   8.378   9.060  0.2001 -0.0073 -0.1087
   45loPI   C4A  714   5.485   8.375   8.526  0.2124 -0.1605  0.0481
   45loPI   C5A  715   5.712   8.120   8.195 -0.1181  0.4906 -0.2056
   45loPI   C6A  716   5.738   7.935   7.746  0.2183 -0.1492 -0.3873
   45loPI   C1B  717   5.729   8.843   9.692  0.1915  0.2475 -0.1845
   45loPI   C2B  718   5.683   8.741   9.244 -0.1985 -0.3388 -0.2240
   45loPI   C3B  719   5.700   8.789   8.809 -0.2006  0.2365  0.0227
   45loPI   C4B  720   5.646   8.910   8.447 -0.1156 -0.0604 -0.1588
   46loPI    C1  721  11.939   9.527  10.638 -0.1244  0.1778  0.0540
   46loPI    C2  722  11.863   9.448  11.022 -0.1493  0.1809  0.0497
   46loPI    C3  723  12.164   9.693  10.924  0.0663 -0.0783  0.0555
   46loPI   PO4  724  12.005   9.264  10.567  0.1377  0.2093 -0.0444
   46loPI   GL1  725  12.256   9.197  10.163  0.0536  0.1319  0.1587
   46loPI   GL2  726  12.035   9.338  10.033 -0.2704  0.0379 -0.2347
   46loPI   C1A  727  12.520   9.172   9.824  0.1099  0.0127 -0.1013
   46loPI   C2A  728  12.638   9.230   9.456  0.2310  0.2307  0.0695
   46loPI   C3A  729  12.749   9.140   9.016 -0.3163  0.0427 -0.1539
   46loPI   C4A  730  12.772   9.206   8.566 -0.0656  0.0173 -0.1702
   46loPI   C5A  731  12.720   9.285   8.084  0.1502 -0.0805  0.1698
   46loPI   C6A  732  12.996   9.413   7.777  0.0580  0.0351  0.2754
   46loPI   C1B  733  12.205   9.643   9.744 -0.0674 -0.0629  0.0653
   46loPI   C2B  734  12.320   9.555   9.266 -0.2930  0.0993 -0.1475
   46loPI   C3B  735  12.435   9.510   8.824  0.4795 -0.2588 -0.0564
   46loPI   C4B  736  12.355   9.570   8.316 -0.1885  0.1502  0.0344
   47loPI    C1  737  15.560   0.674  10.931 -0.1332 -0.0750  0.0492
   47loPI    C2  738  15.585   1.074  10.924 -0.4301 -0.0554 -0.0077
   47loPI    C3  739  15.832   0.862  11.157 -0.1095  0.1454 -0.1585
   47loPI   PO4  740  15.416   0.554  10.753 -0.1061 -0.1485 -0.1447
   47loPI   GL1  741  15.379   0.505  10.312  0.2548 -0.0435  0.1103
   47loPI   GL2  742  15.418   0.807  10.253 -0.1297  0.0230 -0.1164
   47loPI   C1A  743  15.584   0.496   9.895 -0.2923  0.2134 -0.0697
   47loPI   C2A  744  15.662   0.464   9.428  0.2570  0.0155 -0.1022
   47loPI   C3A  745  15.714   0.624   9.010  0.3980 -0.1232  0.0230
   47loPI   C4A  746  15.602   0.587   8.591  0.3532  0.1773 -0.0653
   47loPI   C5A  747  15.627   0.355   8.175 -0.1492 -0.0602 -0.0644
   47loPI   C6A  748  15.994   0.162   8.034  0.1265  0.0806 -0.1963
   47loPI   C1B  749  15.364   0.938   9.801 -0.3274  0.0542 -0.2940
   47loPI   C2B  750  15.346   0.876   9.377  0.0664  0.4247  0.0780
   47loPI   C3B  751  15.360   0.943   8.962 -0.2988 -0.1424 -0.3202
   47loPI   C4B  752  15.217   0.952   8.496 -0.1954 -0.0231  0.1337
   48loPI    C1  753   9.001   2.806  11.098  0.1353 -0.3853 -0.0824
   48loPI    C2  754   8.750   2.560  11.289  0.0177 -0.1527  0.0672
   48loPI    C3  755   8.963   2.828  11.496  0.2561 -0.2268 -0.0787
   48loPI   PO4  756   8.997   2.703  10.752  0.1695 -0.0478  0.4866
   48loPI   GL1  757   9.200   2.633  10.454  0.0646  0.1565  0.0969
   48loPI   GL2  758   9.463   2.524  10.337  0.0756 -0.1066  0.2510
   48loPI   C1A  759   9.086   2.522  10.051 -0.2673  0.0841  0.0065
   48loPI   C2A  760   9.146   2.548   9.707  0.1721 -0.0355 -0.0025
   48loPI   C3A  761   9.109   2.609   9.389  0.2513 -0.0202  0.0883
   48loPI   C4A  762   9.080   2.589   8.990 -0.0963 -0.1423  0.0186
   48loPI   C5A  763   9.252   2.747   8.605  0.2269  0.3924  0.0260
   48loPI   C6A  764   9.086   2.897   8.256  0.1121  0.1227 -0.0563
   48loPI   C1B  765   9.568   2.623   9.898  0.1357 -0.2005  0.2112
   48loPI   C2B  766   9.692   2.687   9.495  0.1413 -0.0528 -0.2697
   48loPI   C3B  767   9.603   2.705   9.077 -0.1676  0.1817 -0.3192
   48loPI   C4B  768   9.748   2.764   8.621  0.0935 -0.2025  0.1326
   49loPI    C1  769   8.753  11.762  10.357  0.1103  0.1206 -0.0350
   49loPI    C2  770   8.547  12.091  10.456  0.2439  0.1837  0.0362
   49loPI    C3  771   8.716  11.866  10.741  0.2453  0.1137 -0.0195
   49loPI   PO4  772   8.834  11.800  10.178  0.2515 -0.0050 -0.0932
   49loPI   GL1  773   8.998  12.005   9.930  0.0954 -0.1470  0.1959
   49loPI   GL2  774   9.297  12.017   9.956  0.1480  0.0479  0.3206
   49loPI   C1A  775   8.849  12.232   9.547 -0.4292  0.0805  0.3011
   49loPI   C2A  776   8.856  12.200   9.174 -0.1550  0.2479  0.2666
   49loPI   C3A  777   8.860  12.081   8.819 -0.0313 -0.0583 -0.0113
   49loPI   C4A  778   8.741  12.233   8.448  0.0845 -0.3885  0.2375
   49loPI   C5A  779   8.490  11.966   8.279  0.0196  0.0817 -0.2769
   49loPI   C6A  780   8.434  11.814   7.868  0.0431  0.1176  0.1265
   49loPI   C1B  781   9.374  12.319   9.604 -0.2809 -0.0001  0.2615
   49loPI   C2B  782   9.345  12.322   9.197 -0.4241  0.0379  0.1831
   49loPI   C3B  783   9.347  12.270   8.670  0.0987 -0.0332 -0.0808
   49loPI   C4B  784   9.226  12.078   8.274  0.2260  0.1083 -0.2056
   50loPI    C1  785  11.147   5.516  11.478  0.0035 -0.0276  0.0278
   50loPI    C2  786  10.837   5.754  11.395  0.1926  0.1856 -0.0787
   50loPI    C3  787  10.852   5.560  11.744 -0.0581  0.1750 -0.0720
   50loPI   PO4  788  11.224   5.425  11.267  0.0909  0.2079 -0.2922
   50loPI   GL1  789  10.997   5.570  10.873 -0.0718 -0.1101  0.3200
   50loPI   GL2  790  11.224   5.802  10.644  0.3232  0.2206  0.0307
   50loPI   C1A  791  10.890   5.354  10.438 -0.1571 -0.0780 -0.2523
   50loPI   C2A  792  10.956   5.202  10.055 -0.0064 -0.0805 -0.1847
   50loPI   C3A  793  11.016   5.223   9.722  0.1312  0.0525  0.0603
   50loPI   C4A  794  11.006   5.309   9.254  0.1787  0.0309 -0.0257
   50loPI   C5A  795  10.956   5.161   8.887  0.3874  0.6121  0.1386
   50loPI   C6A  796  11.146   5.215   8.499 -0.1809 -0.0358 -0.1564
   50loPI   C1B  797  11.409   6.051  10.358  0.4386 -0.0836 -0.0984
   50loPI   C2B  798  11.354   6.210   9.858 -0.0391  0.2660  0.0350
   50loPI   C3B  799  11.482   6.219   9.369 -0.2180  0.0431  0.1593
   50loPI   C4B  800  11.438   6.206   8.873  0.0698 -0.0136 -0.0821
   51loPI    C1  801   2.444   4.173  10.829  0.2996 -0.1089 -0.2147
   51loPI    C2  802   2.704   3.979  11.063  0.2960  0.1111 -0.0239
   51loPI    C3  803   2.412   4.197  11.227 -0.0207 -0.1429 -0.2361
   51loPI   PO4  804   2.624   4.192  10.596  0.1151  0.1637  0.0884
   51loPI   GL1  805   2.478   4.396  10.243 -0.2161  0.2793 -0.2561
   51loPI   GL2  806   2.425   4.073  10.122  0.2261  0.2482  0.2951
   51loPI   C1A  807   2.816   4.367   9.954 -0.2440 -0.0343  0.1144
   51loPI   C2A  808   2.885   4.144   9.617  0.1564 -0.0039 -0.0831
   51loPI   C3A  809   2.909   4.257   9.186  0.2857 -0.0938  0.0572
   51loPI   C4A  810   2.963   4.270   8.727 -0.0219 -0.5522 -0.0027
   51loPI   C5A  811   2.881   4.159   8.220  0.1830  0.1107 -0.2595
   51loPI   C6A  812   2.748   4.171   7.732  0.0769 -0.0460  0.1815
   51loPI   C1B  813   2.419   4.083   9.635 -0.1745  0.2198 -0.0131
   51loPI   C2B  814   2.341   4.084   9.234 -0.0188  0.1088 -0.2763
   51loPI   C3B  815   2.495   4.209   8.894 -0.3107  0.1739 -0.0993
   51loPI   C4B  816   2.458   4.232   8.490  0.5143  0.0706 -0.0241
   52loPI    C1  817   3.953   8.406  11.085 -0.1666  0.0128  0.0261
   52loPI    C2  818   3.892   8.552  11.453 -0.0621 -0.1861  0.1243
   52loPI    C3  819   4.151   8.732  11.206 -0.0814 -0.0918  0.1721
   52loPI   PO4  820   3.728   8.385  10.958 -0.1573  0.2461  0.1087
   52loPI   GL1  821   3.684   8.332  10.542  0.0067 -0.2464 -0.1256
   52loPI   GL2  822   3.657   8.087  10.324  0.1918 -0.1624  0.2102
   52loPI   C1A  823   3.510   8.581  10.113  0.1719  0.1212 -0.2550
   52loPI   C2A  824   3.529   8.482   9.718  0.1569  0.2449  0.1229
   52loPI   C3A  825   3.557   8.456   9.316 -0.2249 -0.1455  0.0409
   52loPI   C4A  826   3.552   8.507   8.846  0.2078  0.0891 -0.1897
   52loPI   C5A  827   3.534   8.468   8.435  0.1665  0.0441 -0.1210
   52loPI   C6A  828   3.224   8.347   8.140  0.1167 -0.0191  0.0115
   52loPI   C1B  829   3.819   8.220   9.961  0.2203 -0.2795 -0.0377
   52loPI   C2B  830   3.902   8.138   9.534  0.1021  0.1168  0.1287
   52loPI   C3B  831   3.967   8.112   9.054  0.1881  0.0850  0.0058
   52loPI   C4B  832   3.925   8.155   8.608  0.3536 -0.2820 -0.2455
   53loPI    C1  833  17.458   7.684  10.778 -0.1319 -0.2879  0.0362
   53loPI    C2  834  17.813   7.537  10.888 -0.0126  0.0263  0.0828
   53loPI    C3  835  17.486   7.450  11.101  0.1157  0.1254  0.3237
   53loPI   PO4  836  17.452   7.652  10.522  0.0203  0.1804  0.0384
   53loPI   GL1  837  17.410   7.353  10.154  0.0549 -0.3062 -0.0405
   53loPI   GL2  838  17.135   7.276  10.015  0.0444  0.1271 -0.0593
   53loPI   C1A  839  17.629   7.380   9.733 -0.0435 -0.1415 -0.1640
   53loPI   C2A  840  17.701   7.418   9.199  0.0346 -0.0534 -0.1061
   53loPI   C3A  841  17.725   7.282   8.862 -0.0663 -0.1778  0.1544
   53loPI   C4A  842  17.696   7.175   8.476 -0.2629  0.1542 -0.2451
   53loPI   C5A  843  17.630   6.888   8.217 -0.1136 -0.3737 -0.1841
   53loPI   C6A  844  17.540   6.677   7.783 -0.0061 -0.0981 -0.0643
   53loPI   C1B  845  17.148   7.272   9.605 -0.2356  0.1463 -0.2337
   53loPI   C2B  846  17.236   7.284   9.125  0.2670  0.0500  0.3735
   53loPI   C3B  847  17.203   7.137   8.717 -0.1627  0.1584  0.0463
   53loPI   C4B  848  17.145   7.200   8.275 -0.3815  0.1213 -0.0634
   54loPI    C1  849  12.344   1.378  10.775 -0.0126  0.1783 -0.1185
   54loPI    C2  850  12.169   1.308  11.127  0.2089 -0.0165 -0.0445
   54loPI    C3  851  12.477   1.561  11.104  0.3586 -0.1973 -0.0512
   54loPI   PO4  852  12.219   1.171  10.627  0.0231  0.1005 -0.2370
   54loPI   GL1  853  11.935   0.979  10.255 -0.0597  0.0733  0.3311
   54loPI   GL2  854  12.103   1.203  10.079 -0.0711  0.2896  0.1697
   54loPI   C1A  855  11.574   1.129  10.054 -0.4494  0.1044  0.0248
   54loPI   C2A  856  11.537   1.219   9.657 -0.0100  0.0637 -0.1021
   54loPI   C3A  857  11.662   1.236   9.253  0.0448  0.0891  0.0678
   54loPI   C4A  858  11.380   1.237   8.911  0.0713 -0.3053  0.2946
   54loPI   C5A  859  11.485   1.155   8.621  0.0030  0.1101 -0.0459
   54loPI   C6A  860  11.282   1.132   8.219  0.0792 -0.1782  0.1919
   54loPI   C1B  861  12.036   1.287   9.692 -0.1153 -0.0258  0.2129
   54loPI   C2B  862  12.168   1.314   9.278 -0.1963 -0.0353 -0.1568
   54loPI   C3B  863  12.031   1.244   8.840  0.3162  0.2080 -0.1471
   54loPI   C4B  864  11.840   1.431   8.399  0.2861 -0.0668 -0.0512
   55loPI    C1  865  15.683   8.731  11.003  0.1216  0.0820  0.1121
   55loPI    C2  866  15.355   8.670  11.224  0.0274  0.0451 -0.0366
   55loPI    C3  867  15.529   8.363  11.035  0.1706  0.0580  0.0726
   55loPI   PO4  868  15.652   8.887  10.859 -0.2911 -0.4735 -0.0768
   55loPI   GL1  869  15.766   9.028  10.562  0.1618  0.1833  0.3033
   55loPI   GL2  870  15.590   9.273  10.377 -0.0099 -0.1168  0.3390
   55loPI   C1A  871  15.670   8.851  10.156  0.0552  0.2417  0.4677
   55loPI   C2A  872  15.793   8.931   9.756  0.2855  0.0533 -0.2485
   55loPI   C3A  873  15.850   8.859   9.338  0.0628  0.0996  0.0047
   55loPI   C4A  874  15.898   8.808   8.909 -0.0544 -0.0356  0.0942
   55loPI   C5A  875  16.195   8.879   8.529  0.2208 -0.2825  0.0200
   55loPI   C6A  876  16.410   8.740   8.143  0.0321 -0.0168 -0.0175
   55loPI   C1B  877  15.381   9.307  10.115 -0.2923 -0.3372 -0.2195
   55loPI   C2B  878  15.508   9.390   9.596 -0.0516  0.1828  0.2907
   55loPI   C3B  879  15.572   9.277   9.134 -0.1813 -0.3415 -0.0578
   55loPI   C4B  880  15.742   9.231   8.659  0.0756 -0.0494  0.0586
   56loPI    C1  881   7.970  13.657  10.540  0.0431  0.0954 -0.2101
   56loPI    C2  882   8.192  13.944  10.708  0.0797  0.0289 -0.1442
   56loPI    C3  883   7.799  13.926  10.781  0.1060 -0.0360 -0.0161
   56loPI   PO4  884   8.005  13.664  10.217 -0.0670 -0.0686 -0.2369
   56loPI   GL1  885   7.936  13.741   9.817 -0.0587 -0.2718 -0.2150
   56loPI   GL2  886   8.261  13.938   9.793  0.2015  0.4141 -0.0329
   56loPI   C1A  887   7.903  13.520   9.437  0.2936  0.0110  0.0640
   56loPI   C2A  888   7.872  13.591   8.950 -0.0628  0.4172 -0.0083
   56loPI   C3A  889   7.887  13.475   8.602 -0.2903  0.0735  0.3294
   56loPI   C4A  890   7.866  13.646   8.142 -0.1133  0.0060  0.1505
   56loPI   C5A  891   8.139  13.911   7.822  0.0848  0.1050  0.0635
   56loPI   C6A  892   8.248  13.812   7.432  0.0112  0.1310 -0.1534
   56loPI   C1B  893   8.211  14.003   9.422 -0.1187 -0.1808  0.0501
   56loPI   C2B  894   8.171  14.009   9.026  0.3794  0.0439  0.0668
   56loPI   C3B  895   8.125  13.931   8.566 -0.0812  0.1702  0.1041
   56loPI   C4B  896   8.403  14.148   8.165 -0.1389 -0.0288 -0.4146
   57loPI    C1  897  15.425  11.941  11.052  0.0953  0.0254  0.0274
   57loPI    C2  898  15.551  12.252  11.270  0.0239 -0.0304  0.1496
   57loPI    C3  899  15.414  11.924  11.452 -0.0481 -0.0728  0.0196
   57loPI   PO4  900  15.297  11.975  10.878  0.2665 -0.1581  0.1863
   57loPI   GL1  901  15.465  11.844  10.489  0.3177  0.2492 -0.0245
   57loPI   GL2  902  15.349  11.498  10.397  0.1073  0.1102  0.0379
   57loPI   C1A  903  15.565  12.088  10.196  0.1259  0.2529  0.0076
   57loPI   C2A  904  15.621  12.053   9.777  0.2846  0.2648  0.1153
   57loPI   C3A  905  15.653  12.066   9.296 -0.1200  0.0628 -0.0640
   57loPI   C4A  906  15.660  12.029   8.812  0.0431  0.0375  0.3269
   57loPI   C5A  907  15.595  11.890   8.424 -0.0406  0.0278 -0.0648
   57loPI   C6A  908  15.427  11.406   8.319  0.0764  0.1139 -0.1766
   57loPI   C1B  909  15.376  11.572   9.987  0.0187 -0.1224  0.0134
   57loPI   C2B  910  15.384  11.580   9.544 -0.0448 -0.3591  0.0494
   57loPI   C3B  911  15.483  11.621   9.119 -0.1361 -0.1390 -0.3204
   57loPI   C4B  912  15.403  11.569   8.793  0.1130  0.0846  0.0016
   58loPI    C1  913  17.578   3.394  10.647 -0.1844 -0.2673 -0.1182
   58loPI    C2  914  17.550   3.756  10.815  0.0477 -0.1572 -0.3103
   58loPI    C3  915  17.666   3.443  11.034 -0.4040 -0.1712 -0.0786
   58loPI   PO4  916  17.689   3.476  10.430 -0.1154  0.1425  0.0631
   58loPI   GL1  917  17.551   3.242  10.081  0.0111 -0.2990 -0.2209
   58loPI   GL2  918  17.323   3.106  10.323  0.2505 -0.1361  0.0112
   58loPI   C1A  919  17.526   3.157   9.631 -0.0482 -0.3184  0.0524
   58loPI   C2A  920  17.605   3.076   9.247  0.1025  0.3683  0.1717
   58loPI   C3A  921  17.605   3.108   8.821 -0.0497 -0.0673 -0.1829
   58loPI   C4A  922  17.452   2.971   8.319  0.0352  0.1133 -0.0533
   58loPI   C5A  923  17.094   2.814   8.056  0.2087 -0.0632  0.0833
   58loPI   C6A  924  16.522   2.833   7.853  0.4526 -0.1246 -0.0512
   58loPI   C1B  925  17.065   3.058   9.928 -0.0536 -0.3026  0.3030
   58loPI   C2B  926  17.093   3.076   9.519  0.3314  0.0193 -0.0030
   58loPI   C3B  927  17.103   2.970   9.086  0.0859 -0.1289 -0.1974
   58loPI   C4B  928  17.068   3.012   8.623 -0.0159 -0.4399 -0.2069
   59loPI    C1  929  11.970   4.048  11.190 -0.1784  0.0120  0.0328
   59loPI    C2  930  11.983   4.376  11.418 -0.2316  0.0272  0.0143
   59loPI    C3  931  12.130   4.030  11.556 -0.0834  0.0817 -0.0050
   59loPI   PO4  932  11.848   4.159  10.967 -0.0584  0.0444 -0.1419
   59loPI   GL1  933  11.890   4.159  10.512  0.1286 -0.1631  0.2541
   59loPI   GL2  934  11.564   4.028  10.572 -0.0886  0.1295 -0.1903
   59loPI   C1A  935  11.966   3.990  10.086  0.2221 -0.4517  0.0767
   59loPI   C2A  936  11.946   3.963   9.689 -0.4355  0.3793  0.3260
   59loPI   C3A  937  12.015   4.025   9.256  0.0762  0.0933  0.0963
   59loPI   C4A  938  12.094   4.117   8.830  0.1147  0.0219 -0.1510
   59loPI   C5A  939  11.937   4.121   8.416  0.2643 -0.3144  0.2033
   59loPI   C6A  940  11.873   4.005   8.081 -0.3958  0.0050  0.1176
   59loPI   C1B  941  11.508   3.887  10.135  0.1540 -0.0464  0.0337
   59loPI   C2B  942  11.441   3.880   9.731  0.0658  0.1085 -0.0083
   59loPI   C3B  943  11.563   3.842   9.343 -0.4234  0.1187  0.1347
   59loPI   C4B  944  11.572   3.912   8.909 -0.1864  0.2778 -0.0209
   60loPI    C1  945  12.520  16.242  10.968 -0.2712 -0.0612 -0.0554
   60loPI    C2  946  12.406  16.203  11.350  0.2331  0.0363  0.1129
   60loPI    C3  947  12.561  15.890  11.155  0.1428  0.0339  0.0444
   60loPI   PO4  948  12.328  16.382  10.833  0.0844 -0.1007 -0.0288
   60loPI   GL1  949  12.531  16.373  10.450 -0.4094  0.2291  0.0616
   60loPI   GL2  950  12.737  16.267  10.505 -0.1584  0.1371  0.2614
   60loPI   C1A  951  12.494  16.471  10.019  0.1513  0.2564  0.1226
   60loPI   C2A  952  12.540  16.547   9.602  0.3392  0.1653 -0.0000
   60loPI   C3A  953  12.478  16.544   9.186 -0.3263  0.2244  0.0588
   60loPI   C4A  954  12.420  16.531   8.695 -0.1700 -0.0622 -0.0219
   60loPI   C5A  955  12.418  16.762   8.265  0.0968  0.1809  0.2712
   60loPI   C6A  956  12.333  17.055   8.018 -0.0624  0.0552 -0.0835
   60loPI   C1B  957  12.882  16.146  10.020  0.1947 -0.3317 -0.1618
   60loPI   C2B  958  12.871  16.152   9.687  0.0201 -0.1264 -0.1572
   60loPI   C3B  959  12.828  16.165   9.278  0.0488 -0.0557  0.2667
   60loPI   C4B  960  12.763  16.205   8.872  0.2758  0.0585 -0.0362
   61loPI    C1  961  14.475   3.533  10.965 -0.2762 -0.1268  0.0755
   61loPI    C2  962  14.114   3.497  11.135 -0.2364  0.1956  0.2360
   61loPI    C3  963  14.341   3.817  11.213  0.0456  0.0428  0.0600
   61loPI   PO4  964  14.439   3.534  10.743 -0.0550  0.0063 -0.2093
   61loPI   GL1  965  14.351   3.404  10.369  0.2935 -0.0007 -0.0252
   61loPI   GL2  966  14.598   3.207  10.290 -0.3715 -0.0644 -0.0306
   61loPI   C1A  967  14.352   3.455   9.993  0.1531 -0.0781  0.3257
   61loPI   C2A  968  14.350   3.440   9.715  0.1566 -0.0860  0.1367
   61loPI   C3A  969  14.378   3.499   9.300 -0.1453 -0.0719  0.0245
   61loPI   C4A  970  14.358   3.492   8.811 -0.0076  0.0132 -0.0192
   61loPI   C5A  971  14.449   3.513   8.402 -0.0369 -0.4392  0.2096
   61loPI   C6A  972  14.144   3.490   8.098 -0.2368 -0.1848 -0.0584
   61loPI   C1B  973  14.646   3.035   9.813  0.1486  0.2561  0.1340
   61loPI   C2B  974  14.640   3.124   9.437 -0.2779 -0.0845 -0.0848
   61loPI   C3B  975  14.673   3.124   8.977 -0.1669 -0.1128 -0.1109
   61loPI   C4B  976  14.751   3.070   8.570  0.1556  0.0545  0.3720
   62loPI    C1  977   3.642   1.511  10.645 -0.0825  0.0782 -0.0843
   62loPI    C2  978   3.436   1.726  10.911  0.0220 -0.0939  0.1386
   62loPI    C3  979   3.772   1.540  11.022  0.1285 -0.0736 -0.1435
   62loPI   PO4  980   3.630   1.717  10.382  0.0434 -0.0285  0.0420
   62loPI   GL1  981   3.835   1.882  10.149  0.0334  0.0327  0.1691
   62loPI   GL2  982   3.619   2.104   9.988  0.0794 -0.1555  0.2531
   62loPI   C1A  983   3.905   1.705   9.737  0.0868  0.1922 -0.0407
   62loPI   C2A  984   3.943   1.596   9.343  0.1129  0.2147 -0.1538
   62loPI   C3A  985   3.917   1.644   8.919  0.1172 -0.1071  0.1673
   62loPI   C4A  986   3.786   1.485   8.487 -0.0206  0.0382 -0.1420
   62loPI   C5A  987   3.634   1.336   8.062  0.2227 -0.0887 -0.1670
   62loPI   C6A  988   3.433   0.910   7.841  0.2785 -0.3073 -0.1780
   62loPI   C1B  989   3.600   2.033   9.601 -0.0521 -0.0099  0.1758
   62loPI   C2B  990   3.551   1.970   9.111 -0.2039  0.1173  0.0104
   62loPI   C3B  991   3.585   1.959   8.680  0.1169  0.3313  0.0965
   62loPI   C4B  992   3.459   1.869   8.289 -0.2929  0.0433  0.0269
   63loPI    C1  993   7.938  17.042  10.598  0.1346  0.1371 -0.1528
   63loPI    C2  994   7.860  16.931  10.974 -0.0736 -0.1316 -0.2719
   63loPI    C3  995   8.029  17.286  10.901 -0.1054 -0.0430  0.0686
   63loPI   PO4  996   7.752  16.916  10.458  0.0432 -0.1049 -0.0672
   63loPI   GL1  997   7.619  16.813  10.119 -0.1398  0.0803  0.1234
   63loPI   GL2  998   7.314  16.842   9.966  0.1933 -0.2367 -0.2848
   63loPI   C1A  999   7.685  16.590   9.733  0.0596  0.0913 -0.0497
   63loPI   C2A 1000   7.736  16.566   9.249  0.1758  0.1177  0.2018
   63loPI   C3A 1001   7.763  16.551   8.830  0.0008 -0.5585 -0.2068
   63loPI   C4A 1002   7.782  16.659   8.419  0.0714 -0.1611 -0.1447
   63loPI   C5A 1003   7.578  17.050   8.039 -0.2246 -0.1484  0.3662
   63loPI   C6A 1004   7.168  17.175   7.757  0.1543  0.0234 -0.1078
   63loPI   C1B 1005   7.350  16.949   9.534 -0.0444 -0.0410  0.3547
   63loPI   C2B 1006   7.376  16.870   9.112 -0.0424 -0.1732  0.2475
   63loPI   C3B 1007   7.303  16.925   8.678 -0.0592 -0.2287  0.1468
   63loPI   C4B 1008   7.140  16.878   8.266 -0.0252  0.2036  0.0267
   64loPI    C1 1009   1.077  15.556  10.951  0.0373  0.2239 -0.0815
   64loPI    C2 1010   0.715  15.651  10.811 -0.0294  0.0495 -0.0296
   64loPI    C3 1011   0.842  15.804  11.159 -0.1332 -0.0441  0.0502
   64loPI   PO4 1012   1.119  15.221  10.865  0.0008 -0.2035  0.0915
   64loPI   GL1 1013   1.103  15.259  10.495 -0.1180  0.1972 -0.1434
   64loPI   GL2 1014   0.834  15.412  10.409  0.1003  0.1758  0.3093
   64loPI   C1A 1015   1.197  14.924  10.137 -0.1369  0.0121  0.0314
   64loPI   C2A 1016   0.992  14.919   9.748  0.1325 -0.1141 -0.0840
   64loPI   C3A 1017   1.067  14.803   9.312 -0.3489 -0.3593 -0.3553
   64loPI   C4A 1018   1.071  14.872   8.895 -0.2673  0.3316 -0.0196
   64loPI   C5A 1019   1.068  15.053   8.440 -0.1343 -0.1594  0.0335
   64loPI   C6A 1020   0.892  14.979   8.074 -0.1973  0.1423 -0.0160
   64loPI   C1B 1021   0.785  15.306  10.015 -0.2050  0.1741 -0.3070
   64loPI   C2B 1022   0.692  15.348   9.560  0.0735  0.3869  0.2554
   64loPI   C3B 1023   0.759  15.313   9.089  0.1534  0.2192 -0.1504
   64loPI   C4B 1024   0.708  15.332   8.679  0.0478 -0.0920 -0.0160
   65loPI    C1 1025   2.151   8.954  10.850 -0.1028 -0.0454 -0.0259
   65loPI    C2 1026   2.409   8.998  11.153 -0.0090 -0.1309 -0.0930
   65loPI    C3 1027   2.058   9.188  11.161  0.0309 -0.0615  0.0270
   65loPI   PO4 1028   2.342   8.897  10.638  0.1300 -0.1739  0.0865
   65loPI   GL1 1029   2.353   8.580  10.334 -0.0903 -0.0777  0.1772
   65loPI   GL2 1030   2.626   8.732  10.167  0.0540 -0.2000 -0.2746
   65loPI   C1A 1031   2.158   8.621   9.908  0.1226 -0.0517 -0.0507
   65loPI   C2A 1032   2.172   8.610   9.498  0.0384  0.2012 -0.2075
   65loPI   C3A 1033   2.244   8.663   9.142 -0.1932 -0.1107  0.0492
   65loPI   C4A 1034   2.166   8.729   8.751 -0.0398 -0.2388 -0.0398
   65loPI   C5A 1035   1.939   8.859   8.524 -0.0799 -0.0767 -0.0378
   65loPI   C6A 1036   1.806   9.186   8.213  0.0798 -0.1585 -0.1913
   65loPI   C1B 1037   2.638   8.706   9.746 -0.1614  0.0091 -0.3337
   65loPI   C2B 1038   2.727   8.716   9.342  0.2809  0.1829 -0.1582
   65loPI   C3B 1039   2.774   8.756   8.798 -0.0641  0.2393  0.1273
   65loPI   C4B 1040   2.629   8.773   8.388  0.0392  0.1051 -0.1621
   66loPI    C1 1041  17.526   4.278  10.591  0.1062  0.2089 -0.1035
   66loPI    C2 1042  17.513   4.600  10.829 -0.1179  0.1097  0.0218
   66loPI    C3 1043  17.494   4.233  10.987 -0.4121  0.0448 -0.1564
   66loPI   PO4 1044  17.766   4.346  10.431  0.2613  0.1594 -0.1413
   66loPI   GL1 1045  17.865   4.515  10.067  0.0199 -0.2156 -0.2582
   66loPI   GL2 1046  17.732   4.706  10.018  0.0383  0.1134  0.0901
   66loPI   C1A 1047  17.881   4.249   9.670 -0.1017  0.0206  0.1320
   66loPI   C2A 1048  17.941   4.190   9.194  0.1284  0.2553 -0.1148
   66loPI   C3A 1049  17.978   4.138   8.799 -0.1717  0.2272 -0.0695
   66loPI   C4A 1050  17.854   4.201   8.352  0.1022  0.6089 -0.1090
   66loPI   C5A 1051  17.788   4.410   7.972  0.2614  0.1971  0.2934
   66loPI   C6A 1052  17.431   4.631   7.914 -0.1686 -0.2118  0.1693
   66loPI   C1B 1053  17.737   4.732   9.591  0.2878 -0.1063 -0.2789
   66loPI   C2B 1054  17.658   4.608   9.291 -0.0211  0.1520 -0.1881
   66loPI   C3B 1055  17.685   4.523   8.847  0.0327  0.0995  0.1077
   66loPI   C4B 1056  17.564   4.554   8.456  0.1010 -0.1906 -0.2112
   67loPI    C1 1057  11.855  13.479  10.944 -0.0265 -0.0857 -0.0098
   67loPI    C2 1058  12.227  13.587  11.044  0.0048  0.3507 -0.5532
   67loPI    C3 1059  11.914  13.773  11.209  0.0182 -0.0029 -0.1111
   67loPI   PO4 1060  11.953  13.471  10.673  0.2018 -0.1629 -0.0691
   67loPI   GL1 1061  11.924  13.776  10.362  0.0653  0.1303  0.4037
   67loPI   GL2 1062  11.606  14.061  10.324  0.1911 -0.0032 -0.1444
   67loPI   C1A 1063  11.872  13.765   9.885  0.0081  0.1534  0.2299
   67loPI   C2A 1064  11.776  13.676   9.392  0.0045 -0.1000 -0.1162
   67loPI   C3A 1065  11.818  13.582   8.937  0.0422  0.0805 -0.0467
   67loPI   C4A 1066  11.928  13.581   8.495  0.0192 -0.3881  0.2761
   67loPI   C5A 1067  12.098  13.519   7.994 -0.0150  0.0047  0.0452
   67loPI   C6A 1068  11.993  13.169   7.762 -0.1071  0.0484  0.0884
   67loPI   C1B 1069  11.539  14.171   9.957  0.0051  0.1912  0.2384
   67loPI   C2B 1070  11.526  14.139   9.519  0.2255  0.1134  0.0589
   67loPI   C3B 1071  11.654  14.046   9.063 -0.0455  0.3725 -0.1272
   67loPI   C4B 1072  11.650  13.975   8.645 -0.1334  0.1244  0.2197
   68loPI    C1 1073   5.433   5.982  10.745 -0.2011 -0.2054 -0.0662
   68loPI    C2 1074   5.223   6.264  10.556 -0.0474 -0.0264  0.0271
   68loPI    C3 1075   5.235   6.258  10.956  0.2224  0.0400  0.0220
   68loPI   PO4 1076   5.633   5.998  10.666 -0.1341  0.1643 -0.2725
   68loPI   GL1 1077   5.703   5.869  10.313  0.1931  0.1499  0.0843
   68loPI   GL2 1078   5.923   5.689  10.162 -0.2124 -0.2232 -0.0413
   68loPI   C1A 1079   5.702   6.080   9.887  0.0162  0.1359  0.0740
   68loPI   C2A 1080   5.661   6.022   9.464 -0.3214  0.4747 -0.2953
   68loPI   C3A 1081   5.563   6.095   9.111  0.3131  0.0922 -0.1353
   68loPI   C4A 1082   5.499   6.032   8.587  0.3628  0.0339 -0.0788
   68loPI   C5A 1083   5.420   6.129   8.206  0.3882  0.1211 -0.1873
   68loPI   C6A 1084   5.060   6.177   7.990  0.1206 -0.0891  0.0102
   68loPI   C1B 1085   6.034   5.629   9.780  0.0070 -0.1619 -0.2317
   68loPI   C2B 1086   5.968   5.636   9.343 -0.0819 -0.0151 -0.2933
   68loPI   C3B 1087   5.843   5.749   8.928  0.0226 -0.1694 -0.3729
   68loPI   C4B 1088   5.925   5.718   8.469  0.3205  0.1400 -0.3121
   69loPI    C1 1089  10.226   0.506  10.741  0.0201 -0.0643  0.1154
   69loPI    C2 1090   9.918   0.258  10.802 -0.0483  0.0334  0.1712
   69loPI    C3 1091  10.232   0.252  11.050  0.0116 -0.0917  0.0930
   69loPI   PO4 1092  10.181   0.479  10.438  0.0249 -0.1943  0.1721
   69loPI   GL1 1093   9.867   0.424  10.189  0.0787  0.0844  0.1222
   69loPI   GL2 1094  10.015   0.144  10.088  0.1824  0.1134 -0.2155
   69loPI   C1A 1095   9.756   0.324   9.760  0.0447 -0.0725 -0.2337
   69loPI   C2A 1096   9.652   0.416   9.186  0.0825  0.1818  0.0085
   69loPI   C3A 1097   9.564   0.443   8.746  0.0288 -0.0352  0.4458
   69loPI   C4A 1098   9.670   0.462   8.337 -0.3103  0.4872  0.0609
   69loPI   C5A 1099   9.942   0.298   8.012  0.1358  0.0304 -0.1779
   69loPI   C6A 1100  10.300   0.239   7.842  0.2262  0.2232 -0.0875
   69loPI   C1B 1101  10.074  -0.084   9.726 -0.1344 -0.0178 -0.1709
   69loPI   C2B 1102  10.075  -0.038   9.231 -0.3803 -0.0816 -0.3245
   69loPI   C3B 1103  10.003   0.137   8.853  0.0827  0.4220 -0.0585
   69loPI   C4B 1104   9.937   0.054   8.487  0.2680  0.1750 -0.2672
   70loPI    C1 1105  11.123   7.615  10.743  0.0473  0.0288  0.0767
   70loPI    C2 1106  11.162   7.850  11.064  0.2210  0.0213  0.0623
   70loPI    C3 1107  11.391   7.525  11.026 -0.0496 -0.1778  0.1044
   70loPI   PO4 1108  11.020   7.745  10.539 -0.0372 -0.3946  0.0413
   70loPI   GL1 1109  10.880   7.784  10.092 -0.1183  0.1865 -0.1073
   70loPI   GL2 1110  11.170   7.971  10.080  0.0380  0.0168  0.0709
   70loPI   C1A 1111  10.831   7.340   9.910  0.1481 -0.3766  0.0264
   70loPI   C2A 1112  10.881   7.369   9.479  0.0483  0.0517  0.0615
   70loPI   C3A 1113  11.006   7.439   9.096  0.6078  0.2223  0.0825
   70loPI   C4A 1114  11.121   7.517   8.748 -0.0828 -0.7158 -0.2351
   70loPI   C5A 1115  11.116   7.420   8.360  0.3501 -0.0806  0.1706
   70loPI   C6A 1116  10.956   7.659   8.001 -0.0277  0.0136  0.1101
   70loPI   C1B 1117  11.095   7.963   9.591 -0.1581 -0.0200 -0.0433
   70loPI   C2B 1118  11.160   7.969   9.210  0.0965 -0.0590  0.1676
   70loPI   C3B 1119  11.277   7.931   8.782  0.0541 -0.3619  0.4204
   70loPI   C4B 1120  11.326   7.893   8.264 -0.1173 -0.2456  0.3767
   71loPI    C1 1121  14.736   9.236  10.923 -0.1342 -0.0565 -0.0654
   71loPI    C2 1122  14.665   9.125  11.301  0.0651  0.2742  0.0742
   71loPI    C3 1123  14.981   8.977  11.106  0.0253  0.1887  0.0736
   71loPI   PO4 1124  14.496   9.212  10.790  0.3432  0.0635 -0.0498
   71loPI   GL1 1125  14.373   9.379  10.469  0.1399  0.1220  0.1170
   71loPI   GL2 1126  14.401   9.162  10.306 -0.1926 -0.0559 -0.1359
   71loPI   C1A 1127  14.527   9.688  10.147 -0.1705  0.0241  0.3970
   71loPI   C2A 1128  14.617   9.570   9.737 -0.1082  0.2276  0.1275
   71loPI   C3A 1129  14.651   9.469   9.327 -0.0435 -0.1334 -0.0693
   71loPI   C4A 1130  14.786   9.477   8.823 -0.0987 -0.0471  0.1457
   71loPI   C5A 1131  14.917   9.407   8.434  0.4120  0.2015 -0.0411
   71loPI   C6A 1132  14.649   9.252   8.197  0.1236  0.1960 -0.1595
   71loPI   C1B 1133  14.489   9.058   9.867 -0.1141  0.0142  0.1298
   71loPI   C2B 1134  14.522   9.041   9.527 -0.0443 -0.2397  0.2500
   71loPI   C3B 1135  14.548   8.919   9.099 -0.2615 -0.0061 -0.3480
   71loPI   C4B 1136  14.682   8.992   8.635  0.0492  0.1710  0.6426
   72loPI    C1 1137  10.336   0.799  11.147  0.1218  0.0488  0.0347
   72loPI    C2 1138  10.500   0.897  11.499 -0.0225 -0.0330  0.1260
   72loPI    C3 1139  10.230   0.603  11.480 -0.1508  0.0925 -0.0242
   72loPI   PO4 1140  10.350   1.000  10.950  0.1547  0.0190 -0.6482
   72loPI   GL1 1141  10.227   0.978  10.538  0.1964 -0.0239 -0.0636
   72loPI   GL2 1142  10.490   0.868  10.505 -0.1226  0.1606 -0.1469
   72loPI   C1A 1143  10.241   1.389  10.246  0.0672 -0.1616  0.1717
   72loPI   C2A 1144  10.170   1.421   9.788  0.1971  0.0288  0.0518
   72loPI   C3A 1145  10.155   1.419   9.336 -0.2924  0.0564 -0.1483
   72loPI   C4A 1146   9.985   1.418   8.937  0.0992 -0.0516  0.2398
   72loPI   C5A 1147  10.109   1.237   8.482  0.2155  0.1911  0.1403
   72loPI   C6A 1148  10.341   1.091   8.273  0.1098 -0.1695  0.0175
   72loPI   C1B 1149  10.448   0.968  10.059 -0.2037  0.1037 -0.2036
   72loPI   C2B 1150  10.465   1.080   9.600 -0.0402  0.1221 -0.0424
   72loPI   C3B 1151  10.455   1.056   9.238 -0.2200  0.0019  0.2385
   72loPI   C4B 1152  10.387   1.053   8.865 -0.0104  0.0346 -0.2648
   73loPI    C1 1153  16.664   9.244  10.852 -0.0347  0.0992  0.1444
   73loPI    C2 1154  16.834   9.230  11.214 -0.3901 -0.0411  0.3105
   73loPI    C3 1155  16.600   8.930  11.091 -0.3022  0.0229 -0.0230
   73loPI   PO4 1156  16.766   9.361  10.746  0.3702  0.0928  0.0602
   73loPI   GL1 1157  16.884   9.442  10.354 -0.1252 -0.0395 -0.0543
   73loPI   GL2 1158  16.772   9.787  10.185 -0.0077  0.1772  0.3042
   73loPI   C1A 1159  17.016   9.460   9.954  0.0823  0.0134 -0.1564
   73loPI   C2A 1160  17.056   9.548   9.549 -0.2251  0.2599  0.1373
   73loPI   C3A 1161  17.148   9.592   9.122 -0.1427  0.0420  0.2283
   73loPI   C4A 1162  17.212   9.646   8.730 -0.0517  0.0870  0.1906
   73loPI   C5A 1163  17.426   9.819   8.439  0.2190 -0.0305 -0.1486
   73loPI   C6A 1164  17.772   9.954   8.581  0.1237  0.2046 -0.0433
   73loPI   C1B 1165  16.740   9.873   9.730 -0.0741  0.1501 -0.1835
   73loPI   C2B 1166  16.774   9.981   9.349 -0.0813 -0.1654 -0.2825
   73loPI   C3B 1167  16.747   9.976   8.899  0.0494 -0.0234 -0.1864
   73loPI   C4B 1168  16.882  10.075   8.515 -0.0655  0.0156  0.2601
   74loPI    C1 1169   0.152   4.968  10.417 -0.0340 -0.0540 -0.0425
   74loPI    C2 1170  -0.240   4.916  10.476 -0.0488  0.0269 -0.0692
   74loPI    C3 1171   0.024   4.727  10.709 -0.1042  0.0290 -0.0045
   74loPI   PO4 1172   0.224   4.897  10.215 -0.0356 -0.1280 -0.2360
   74loPI   GL1 1173   0.344   5.222   9.904  0.0856 -0.0962  0.2598
   74loPI   GL2 1174   0.583   5.006   9.870  0.5175  0.0393  0.3972
   74loPI   C1A 1175   0.006   5.117   9.651  0.1867 -0.1112  0.1319
   74loPI   C2A 1176  -0.058   5.041   9.208  0.0464  0.1022  0.0760
   74loPI   C3A 1177  -0.119   4.983   8.699  0.1028  0.3127  0.0218
   74loPI   C4A 1178  -0.247   4.984   8.285 -0.1052 -0.1770  0.0580
   74loPI   C5A 1179  -0.509   5.452   8.094  0.1343 -0.0475  0.1241
   74loPI   C6A 1180  -0.337   5.880   8.075  0.1866 -0.0099 -0.2924
   74loPI   C1B 1181   0.444   5.129   9.397  0.3227  0.1508  0.0004
   74loPI   C2B 1182   0.410   5.071   8.981  0.1251  0.2064  0.1219
   74loPI   C3B 1183   0.389   5.188   8.583 -0.0014  0.0404 -0.0839
   74loPI   C4B 1184   0.242   5.209   8.180  0.1817  0.0204 -0.1312
   75loPI    C1 1185   6.280   1.269  11.018  0.2165  0.0987  0.0904
   75loPI    C2 1186   6.132   0.904  11.087  0.3840 -0.0143 -0.1374
   75loPI    C3 1187   6.225   1.143  11.394 -0.2678  0.0628  0.0141
   75loPI   PO4 1188   6.081   1.282  10.783  0.2655  0.0541 -0.0212
   75loPI   GL1 1189   6.062   1.265  10.319 -0.1503 -0.0056 -0.0796
   75loPI   GL2 1190   5.850   1.500  10.238 -0.0887  0.1616  0.3152
   75loPI   C1A 1191   6.175   1.175   9.898 -0.1362 -0.1702 -0.2372
   75loPI   C2A 1192   6.266   1.128   9.417  0.0265 -0.1261  0.1627
   75loPI   C3A 1193   6.152   1.097   9.021  0.0848  0.2119  0.0446
   75loPI   C4A 1194   6.103   1.137   8.697 -0.1925  0.1515 -0.1146
   75loPI   C5A 1195   6.069   1.498   8.382  0.0867  0.2199 -0.0044
   75loPI   C6A 1196   6.159   1.724   8.096 -0.1047  0.1239 -0.0565
   75loPI   C1B 1197   5.797   1.549   9.797  0.3514 -0.2861 -0.1297
   75loPI   C2B 1198   5.910   1.492   9.338 -0.0666 -0.1559 -0.2304
   75loPI   C3B 1199   5.769   1.454   8.953  0.3364 -0.4264 -0.0017
   75loPI   C4B 1200   5.579   1.413   8.581 -0.3670  0.0709 -0.0447
   76loPI    C1 1201   2.691  13.005  11.078  0.1674  0.0854  0.0178
   76loPI    C2 1202   3.053  13.088  11.226  0.0496  0.3829  0.1475
   76loPI    C3 1203   2.729  13.126  11.457 -0.0651  0.1030  0.0369
   76loPI   PO4 1204   2.694  13.132  10.866 -0.1592  0.1919  0.1494
   76loPI   GL1 1205   2.578  13.002  10.566 -0.2237  0.1284  0.0736
   76loPI   GL2 1206   2.785  13.039  10.345 -0.0961  0.0500 -0.1579
   76loPI   C1A 1207   2.317  12.899  10.255 -0.0045  0.0958  0.0094
   76loPI   C2A 1208   2.258  12.951   9.797 -0.4586 -0.1900 -0.0210
   76loPI   C3A 1209   2.321  12.953   9.346 -0.2112 -0.0660  0.1784
   76loPI   C4A 1210   2.187  12.916   9.021 -0.2159  0.0173 -0.0069
   76loPI   C5A 1211   2.051  12.710   8.640  0.1351  0.2302 -0.2418
   76loPI   C6A 1212   1.743  12.575   8.333 -0.0791 -0.1228  0.0273
   76loPI   C1B 1213   2.779  13.031   9.899 -0.2603  0.0827  0.0812
   76loPI   C2B 1214   2.817  13.017   9.448  0.1987  0.2364 -0.2318
   76loPI   C3B 1215   2.706  13.015   8.989  0.2283 -0.0411  0.1443
   76loPI   C4B 1216   2.548  12.832   8.628 -0.0533  0.2814  0.1622
   77loPI    C1 1217   6.816  14.869  10.651 -0.1928  0.1334 -0.0738
   77loPI    C2 1218   6.505  14.918  10.404 -0.1966  0.1323 -0.0693
   77loPI    C3 1219   6.459  14.976  10.797 -0.1948  0.1175 -0.0669
   77loPI   PO4 1220   6.995  15.047  10.596  0.1893 -0.3731 -0.1168
   77loPI   GL1 1221   7.073  15.162  10.154 -0.0502 -0.3147 -0.5028
   77loPI   GL2 1222   6.870  15.013  10.000  0.1449  0.0495 -0.1353
   77loPI   C1A 1223   7.216  15.235   9.686  0.0831  0.5337 -0.1682
   77loPI   C2A 1224   7.211  15.333   9.242 -0.0032  0.0086  0.2175
   77loPI   C3A 1225   7.241  15.414   8.820  0.3768 -0.1347  0.0561
   77loPI   C4A 1226   7.654  15.498   8.742 -0.0704 -0.0706  0.2986
   77loPI   C5A 1227   7.966  15.620   8.382  0.2819 -0.1034  0.2240
   77loPI   C6A 1228   8.324  15.467   8.422 -0.1683 -0.1166  0.1906
   77loPI   C1B 1229   6.659  14.992   9.555  0.0068 -0.1464 -0.1022
   77loPI   C2B 1230   6.502  14.977   9.084 -0.2797 -0.0174 -0.0825
   77loPI   C3B 1231   6.563  14.842   8.682  0.2417 -0.2280 -0.2867
   77loPI   C4B 1232   6.372  14.843   8.264  0.1513  0.3846 -0.3068
   78loPI    C1 1233  10.638  17.234  10.372  0.1041 -0.0627  0.0040
   78loPI    C2 1234  10.402  17.124  10.675  0.0375  0.1564  0.0329
   78loPI    C3 1235  10.787  17.018  10.674  0.0035  0.0297  0.1208
   78loPI   PO4 1236  10.577  17.488  10.404 -0.1522 -0.0297  0.0795
   78loPI   GL1 1237  10.483  17.882  10.019 -0.0697 -0.0991 -0.0534
   78loPI   GL2 1238  10.370  17.573   9.946  0.1057  0.0391 -0.0311
   78loPI   C1A 1239  10.639  18.139   9.641  0.1366 -0.1584  0.0247
   78loPI   C2A 1240  10.591  18.091   9.240 -0.1075  0.0954  0.1574
   78loPI   C3A 1241  10.530  18.146   8.876 -0.3175 -0.2214 -0.3499
   78loPI   C4A 1242  10.485  18.180   8.505 -0.0630 -0.0222 -0.0419
   78loPI   C5A 1243  10.767  18.264   8.132  0.1014  0.1619  0.2003
   78loPI   C6A 1244  11.173  18.260   7.967  0.0445 -0.1583  0.0743
   78loPI   C1B 1245  10.469  17.663   9.472  0.1789 -0.1107 -0.2113
   78loPI   C2B 1246  10.453  17.638   9.011 -0.2492 -0.0040 -0.1601
   78loPI   C3B 1247  10.289  17.621   8.531 -0.1052 -0.4591 -0.2063
   78loPI   C4B 1248  10.413  17.826   8.162 -0.2022  0.0138 -0.1349
   79loPI    C1 1249   9.853  14.334  10.754  0.0624 -0.1454 -0.1942
   79loPI    C2 1250  10.018  13.974  10.808  0.0035 -0.1667 -0.1565
   79loPI    C3 1251  10.250  14.300  10.797  0.0310 -0.1767  0.0841
   79loPI   PO4 1252   9.622  14.320  10.624 -0.1718  0.0186 -0.1037
   79loPI   GL1 1253   9.706  14.531  10.156  0.0497  0.1856 -0.2711
   79loPI   GL2 1254   9.863  14.870  10.095  0.0719 -0.0440 -0.1247
   79loPI   C1A 1255   9.514  14.567   9.785 -0.0557 -0.2140 -0.1869
   79loPI   C2A 1256   9.448  14.578   9.351 -0.1409  0.0081 -0.0286
   79loPI   C3A 1257   9.427  14.607   8.950  0.0833  0.1597 -0.0093
   79loPI   C4A 1258   9.266  14.479   8.529  0.2355  0.0773  0.0523
   79loPI   C5A 1259   9.416  14.501   8.061  0.1983 -0.0818  0.0287
   79loPI   C6A 1260   9.623  14.369   7.699 -0.3946  0.0237  0.1854
   79loPI   C1B 1261   9.876  14.804   9.581 -0.0488  0.0675 -0.1564
   79loPI   C2B 1262   9.857  14.737   9.145 -0.0088 -0.2255  0.1246
   79loPI   C3B 1263   9.966  14.661   8.747 -0.0279  0.0949  0.0027
   79loPI   C4B 1264   9.726  14.760   8.538  0.3959  0.0547  0.1296
   80loPI    C1 1265   2.236   1.871  10.456 -0.2712  0.0210 -0.0117
   80loPI    C2 1266   2.183   1.767  10.839 -0.2507 -0.0718 -0.0340
   80loPI    C3 1267   2.094   2.138  10.719 -0.3624 -0.0749  0.0373
   80loPI   PO4 1268   2.153   1.729  10.321 -0.1143  0.1802 -0.0193
   80loPI   GL1 1269   1.954   1.778  10.026  0.0315  0.3757  0.0997
   80loPI   GL2 1270   1.667   1.883  10.078 -0.3097  0.0309  0.3118
   80loPI   C1A 1271   2.008   1.725   9.563  0.3971  0.1984 -0.0258
   80loPI   C2A 1272   2.022   1.680   9.182  0.1373 -0.1101  0.3155
   80loPI   C3A 1273   1.848   1.761   8.773  0.0309  0.1438  0.1471
   80loPI   C4A 1274   1.908   1.860   8.418  0.0102  0.1076  0.2124
   80loPI   C5A 1275   2.160   1.653   8.140  0.0977 -0.0956  0.0502
   80loPI   C6A 1276   2.068   1.524   7.776  0.2603 -0.0821  0.3707
   80loPI   C1B 1277   1.435   1.661   9.791  0.3663  0.0449  0.2297
   80loPI   C2B 1278   1.498   1.606   9.302 -0.1284  0.0365  0.3011
   80loPI   C3B 1279   1.409   1.673   8.872  0.0799  0.1743  0.1450
   80loPI   C4B 1280   1.389   1.755   8.416 -0.0942 -0.2911  0.0468
   81loPI    C1 1281  15.836   3.675  10.562  0.1843  0.0993  0.0533
   81loPI    C2 1282  16.156   3.463  10.452  0.0796 -0.1170  0.1595
   81loPI    C3 1283  16.068   3.505  10.840  0.1402  0.1841  0.1426
   81loPI   PO4 1284  15.625   3.722  10.392 -0.0171 -0.3470 -0.0027
   81loPI   GL1 1285  15.518   3.941  10.021 -0.0069 -0.0420  0.3439
   81loPI   GL2 1286  15.655   4.208   9.817  0.0178  0.0657 -0.0646
   81loPI   C1A 1287  15.300   3.633   9.762 -0.2576  0.0303 -0.0458
   81loPI   C2A 1288  15.253   3.600   9.358 -0.0304  0.1987 -0.0424
   81loPI   C3A 1289  15.370   3.668   8.862  0.0588 -0.2847  0.3358
   81loPI   C4A 1290  15.407   3.656   8.338  0.0311 -0.1130 -0.0785
   81loPI   C5A 1291  15.802   3.692   8.092 -0.0835 -0.0818 -0.0103
   81loPI   C6A 1292  16.133   3.559   7.806 -0.2498  0.0179 -0.2341
   81loPI   C1B 1293  15.625   4.267   9.327 -0.0855  0.2222 -0.2853
   81loPI   C2B 1294  15.516   4.189   8.888  0.1051  0.0328 -0.1531
   81loPI   C3B 1295  15.579   4.186   8.420  0.1464 -0.1401 -0.6240
   81loPI   C4B 1296  15.648   4.343   7.994  0.0102 -0.0630  0.0195
   82loPI    C1 1297   7.590  10.967  10.619 -0.0437  0.0629 -0.0989
   82loPI    C2 1298   7.522  10.678  10.887  0.1819 -0.0679 -0.1803
   82loPI    C3 1299   7.820  10.938  10.945  0.1556 -0.0232 -0.2448
   82loPI   PO4 1300   7.424  10.851  10.419 -0.1304  0.0741 -0.2826
   82loPI   GL1 1301   7.386  10.779   9.978  0.0530  0.2685 -0.0884
   82loPI   GL2 1302   7.506  10.554   9.990  0.2023  0.0602  0.0012
   82loPI   C1A 1303   7.299  10.890   9.599 -0.0355 -0.1149  0.1824
   82loPI   C2A 1304   7.366  11.027   9.194 -0.2506  0.0790 -0.0478
   82loPI   C3A 1305   7.334  11.110   8.739  0.1450 -0.0638  0.0575
   82loPI   C4A 1306   7.506  11.226   8.359 -0.1007 -0.2676  0.1002
   82loPI   C5A 1307   7.689  11.354   8.069  0.5022  0.2591  0.2190
   82loPI   C6A 1308   7.706  11.735   7.998  0.0516  0.0876 -0.0599
   82loPI   C1B 1309   7.406  10.386   9.634  0.0992  0.1910  0.0007
   82loPI   C2B 1310   7.314  10.550   9.221  0.1674 -0.3857  0.0305
   82loPI   C3B 1311   7.228  10.617   8.791 -0.2678  0.1242 -0.0774
   82loPI   C4B 1312   7.283  10.677   8.338  0.1008 -0.2887  0.0134
   83loPI    C1 1313  16.316  14.387  11.429 -0.0994  0.2030 -0.1409
   83loPI    C2 1314  16.209  14.506  11.795  0.1046  0.1461 -0.0611
   83loPI    C3 1315  15.967  14.267  11.584  0.0688  0.0283  0.1111
   83loPI   PO4 1316  16.298  14.619  11.284 -0.0286  0.2076  0.0700
   83loPI   GL1 1317  16.308  14.450  10.906  0.1918  0.1027  0.3314
   83loPI   GL2 1318  16.046  14.346  10.663  0.3995  0.2031  0.0568
   83loPI   C1A 1319  16.522  14.435  10.569 -0.0883 -0.0795  0.0543
   83loPI   C2A 1320  16.520  14.426  10.142  0.1795  0.1468 -0.2879
   83loPI   C3A 1321  16.459  14.481   9.709  0.1978  0.2049  0.0808
   83loPI   C4A 1322  16.513  14.532   9.321 -0.0612 -0.0079 -0.2954
   83loPI   C5A 1323  16.414  14.509   8.964  0.2426 -0.1064  0.0986
   83loPI   C6A 1324  16.264  14.538   8.602  0.1649 -0.0092 -0.1726
   83loPI   C1B 1325  16.000  14.327  10.156 -0.3658 -0.0610  0.2184
   83loPI   C2B 1326  15.910  14.449   9.659  0.1063 -0.2279  0.1852
   83loPI   C3B 1327  15.958  14.366   9.277  0.0980  0.0284  0.3175
   83loPI   C4B 1328  15.859  14.389   8.856 -0.1249  0.3080  0.1963
   84loPI    C1 1329   0.861  16.805  10.824 -0.1657 -0.0436 -0.1728
   84loPI    C2 1330   0.879  17.204  10.843  0.2194 -0.0636 -0.0341
   84loPI    C3 1331   0.699  16.998  11.134  0.0870  0.0043 -0.0675
   84loPI   PO4 1332   0.782  16.625  10.630 -0.0806  0.0198 -0.0028
   84loPI   GL1 1333   0.735  16.606  10.165  0.0110  0.0054 -0.4066
   84loPI   GL2 1334   0.904  16.763   9.856  0.0634 -0.2311 -0.1525
   84loPI   C1A 1335   0.594  16.231  10.035 -0.1646 -0.5006 -0.1374
   84loPI   C2A 1336   0.594  16.218   9.561 -0.1371  0.1882 -0.0189
   84loPI   C3A 1337   0.659  16.176   9.183 -0.2011 -0.0673  0.3243
   84loPI   C4A 1338   0.634  16.323   8.738 -0.3322  0.0255 -0.1531
   84loPI   C5A 1339   0.450  16.221   8.395 -0.2555 -0.0407  0.1653
   84loPI   C6A 1340   0.016  16.111   8.276 -0.1187  0.0152 -0.1642
   84loPI   C1B 1341   0.822  16.703   9.480 -0.0068 -0.1176 -0.0892
   84loPI   C2B 1342   0.834  16.784   9.088  0.1281 -0.2120  0.0830
   84loPI   C3B 1343   0.709  16.835   8.603  0.1376 -0.0655  0.0411
   84loPI   C4B 1344   0.577  16.670   8.239  0.1940  0.3977 -0.1743
   85loPI    C1 1345  16.070   5.874  10.838  0.0362 -0.3455  0.0829
   85loPI    C2 1346  15.817   5.584  10.947 -0.2850 -0.1423 -0.1030
   85loPI    C3 1347  15.759   5.958  11.075 -0.0610 -0.0977 -0.1275
   85loPI   PO4 1348  16.042   5.951  10.571  0.0754  0.2923  0.0142
   85loPI   GL1 1349  16.153   6.220  10.267  0.0606  0.0364  0.1683
   85loPI   GL2 1350  16.032   6.503  10.307  0.2781  0.1227  0.2451
   85loPI   C1A 1351  16.329   6.283   9.766  0.1735  0.0813 -0.1473
   85loPI   C2A 1352  16.393   6.174   9.410 -0.0549  0.1497 -0.1575
   85loPI   C3A 1353  16.365   6.185   8.977  0.2286 -0.1175  0.0440
   85loPI   C4A 1354  16.238   6.226   8.584 -0.1788 -0.1671 -0.3235
   85loPI   C5A 1355  16.365   5.973   8.111  0.0450  0.0709  0.0281
   85loPI   C6A 1356  16.787   5.875   7.891  0.1083 -0.0393 -0.0112
   85loPI   C1B 1357  15.979   6.588   9.962  0.0219 -0.0146  0.0021
   85loPI   C2B 1358  15.977   6.616   9.542  0.0280 -0.2851 -0.2036
   85loPI   C3B 1359  16.042   6.540   9.131  0.0058  0.1581 -0.3427
   85loPI   C4B 1360  15.891   6.508   8.777  0.3601  0.0089  0.3710
   86loPI    C1 1361  15.051  13.391  11.423 -0.1167 -0.1723  0.1212
   86loPI    C2 1362  14.742  13.217  11.609 -0.0371 -0.2494  0.1818
   86loPI    C3 1363  14.977  13.474  11.807 -0.2045 -0.0054  0.0694
   86loPI   PO4 1364  14.938  13.407  11.157 -0.0578  0.0403  0.1726
   86loPI   GL1 1365  14.819  13.805  10.848  0.1538  0.1839  0.1037
   86loPI   GL2 1366  14.709  14.003  10.567 -0.4152 -0.1226  0.2501
   86loPI   C1A 1367  14.788  13.616  10.356  0.2603 -0.1031 -0.1254
   86loPI   C2A 1368  14.666  13.798  10.011 -0.0115 -0.0874  0.1759
   86loPI   C3A 1369  14.803  13.810   9.683  0.0499  0.2423  0.1095
   86loPI   C4A 1370  14.696  13.714   9.300  0.3235 -0.0053 -0.0112
   86loPI   C5A 1371  14.677  13.758   8.941 -0.1030  0.0861  0.2690
   86loPI   C6A 1372  14.789  13.729   8.509  0.3519  0.0140  0.2804
   86loPI   C1B 1373  14.923  14.223  10.206 -0.0618 -0.1365  0.1717
   86loPI   C2B 1374  14.987  14.258   9.714 -0.0446 -0.4884 -0.0920
   86loPI   C3B 1375  14.991  14.284   9.313  0.0805 -0.2288  0.1669
   86loPI   C4B 1376  14.923  14.321   8.908 -0.1342 -0.2422 -0.2067
   87loPI    C1 1377   4.043   2.926  11.042 -0.1257  0.2815 -0.1473
   87loPI    C2 1378   4.070   3.117  11.392  0.0026 -0.2582  0.1479
   87loPI    C3 1379   3.711   3.016  11.247 -0.0528 -0.0034  0.1026
   87loPI   PO4 1380   4.201   3.056  10.827  0.3598 -0.2081  0.1258
   87loPI   GL1 1381   4.105   3.073  10.363  0.1081 -0.1797 -0.2639
   87loPI   GL2 1382   4.309   2.790  10.387 -0.1461  0.0760  0.2089
   87loPI   C1A 1383   4.385   3.177  10.102  0.0108  0.4514  0.0860
   87loPI   C2A 1384   4.518   3.112   9.691  0.2318 -0.2952 -0.3550
   87loPI   C3A 1385   4.427   3.119   9.262  0.0065  0.2096 -0.0255
   87loPI   C4A 1386   4.401   3.019   8.765  0.0525 -0.0915 -0.1731
   87loPI   C5A 1387   4.411   2.959   8.434 -0.0572 -0.1611 -0.0560
   87loPI   C6A 1388   4.259   3.150   8.106  0.2087 -0.0738 -0.2902
   87loPI   C1B 1389   4.347   2.698   9.928  0.1729  0.0384  0.1621
   87loPI   C2B 1390   4.312   2.605   9.524  0.1009  0.3612 -0.0114
   87loPI   C3B 1391   4.290   2.546   9.086 -0.1139 -0.1373 -0.0076
   87loPI   C4B 1392   4.256   2.494   8.606  0.2174  0.0195  0.0819
   88loPI    C1 1393   5.736  12.783  10.940 -0.0840  0.0121 -0.0598
   88loPI    C2 1394   5.863  13.133  11.084  0.4056 -0.2243  0.1047
   88loPI    C3 1395   5.615  12.907  11.300 -0.0978  0.1155 -0.0999
   88loPI   PO4 1396   5.876  12.782  10.770 -0.1871  0.1641  0.2031
   88loPI   GL1 1397   5.717  12.819  10.333 -0.0032  0.0159  0.2416
   88loPI   GL2 1398   5.767  12.980  10.105  0.2436  0.2567 -0.0509
   88loPI   C1A 1399   5.478  12.481   9.969  0.2151  0.4078  0.1043
   88loPI   C2A 1400   5.363  12.380   9.604  0.2663 -0.2844 -0.0224
   88loPI   C3A 1401   5.383  12.446   9.223 -0.1488 -0.1887 -0.0249
   88loPI   C4A 1402   5.357  12.436   8.741  0.0436 -0.2323  0.0549
   88loPI   C5A 1403   5.399  12.265   8.287 -0.0622 -0.0495  0.1582
   88loPI   C6A 1404   5.333  12.421   7.864 -0.0581 -0.0350 -0.3140
   88loPI   C1B 1405   5.577  12.957   9.648  0.1285 -0.2000 -0.0017
   88loPI   C2B 1406   5.632  13.026   9.149  0.0827 -0.0864 -0.0579
   88loPI   C3B 1407   5.573  12.968   8.713  0.1937 -0.1271  0.1746
   88loPI   C4B 1408   5.422  12.790   8.291 -0.0579  0.0574 -0.2369
   89loPI    C1 1409  13.692  10.381  10.792  0.2697  0.0548 -0.1104
   89loPI    C2 1410  13.744  10.065  10.552  0.1739 -0.1233  0.0996
   89loPI    C3 1411  13.904  10.066  10.919  0.0166 -0.0079  0.1691
   89loPI   PO4 1412  13.396  10.508  10.581  0.1075 -0.1071  0.3287
   89loPI   GL1 1413  13.455  10.539  10.140  0.2072  0.3169  0.0188
   89loPI   GL2 1414  13.712  10.448  10.208 -0.1623 -0.2753  0.0229
   89loPI   C1A 1415  13.489  10.763   9.822 -0.0061 -0.0919  0.2219
   89loPI   C2A 1416  13.606  10.702   9.311  0.0816  0.1278  0.2307
   89loPI   C3A 1417  13.794  10.672   8.867 -0.1132  0.0118 -0.0300
   89loPI   C4A 1418  13.753  10.683   8.433  0.0227 -0.0342  0.0312
   89loPI   C5A 1419  13.639  10.415   8.111 -0.1311 -0.1539  0.1609
   89loPI   C6A 1420  13.772  10.581   7.666 -0.1713 -0.0861 -0.0742
   89loPI   C1B 1421  13.837  10.345   9.854 -0.0719  0.1899  0.1394
   89loPI   C2B 1422  13.920  10.391   9.500 -0.1899 -0.0669 -0.1054
   89loPI   C3B 1423  14.076  10.346   9.132  0.2393  0.1781 -0.0938
   89loPI   C4B 1424  14.176  10.263   8.746 -0.0550 -0.0030  0.3519
   90loPI    C1 1425   7.986   7.002  10.699  0.0724  0.1061  0.0266
   90loPI    C2 1426   8.250   7.282  10.809  0.1639  0.0838 -0.1329
   90loPI    C3 1427   8.005   7.121  11.081  0.1619  0.2642 -0.0260
   90loPI   PO4 1428   8.158   6.897  10.525  0.1707 -0.0145 -0.1550
   90loPI   GL1 1429   8.253   6.734  10.211 -0.0817  0.0514 -0.0843
   90loPI   GL2 1430   8.138   6.418  10.142 -0.2772 -0.1330  0.0570
   90loPI   C1A 1431   8.654   6.743   9.885 -0.1792  0.2125  0.0464
   90loPI   C2A 1432   8.633   6.642   9.440  0.1139  0.3343 -0.0135
   90loPI   C3A 1433   8.687   6.654   9.023  0.0952  0.1317  0.0075
   90loPI   C4A 1434   8.534   6.614   8.730 -0.1717  0.1471 -0.1857
   90loPI   C5A 1435   8.661   6.639   8.411  0.1477 -0.1678 -0.4323
   90loPI   C6A 1436   8.693   6.732   7.914 -0.0146 -0.0977  0.1115
   90loPI   C1B 1437   8.244   6.465   9.746  0.0487  0.2291 -0.1095
   90loPI   C2B 1438   8.138   6.445   9.332  0.0184 -0.0286  0.2095
   90loPI   C3B 1439   8.077   6.522   8.886 -0.2029  0.1668 -0.0398
   90loPI   C4B 1440   8.019   6.601   8.518 -0.0805  0.1687 -0.1042
   91loPI    C1 1441   3.870   9.921  10.964  0.1322 -0.0126  0.0134
   91loPI    C2 1442   4.103   9.632  10.815  0.0386 -0.1585  0.1471
   91loPI    C3 1443   4.256   9.903  11.067  0.1165 -0.1158  0.0546
   91loPI   PO4 1444   3.746  10.003  10.750 -0.2028  0.1872  0.0700
   91loPI   GL1 1445   3.592  10.154  10.358  0.1107 -0.2405  0.2894
   91loPI   GL2 1446   3.815  10.294  10.196 -0.0332  0.1308 -0.0437
   91loPI   C1A 1447   3.589   9.881  10.004  0.2018  0.0480 -0.3288
   91loPI   C2A 1448   3.628   9.863   9.520  0.1186  0.2179  0.1450
   91loPI   C3A 1449   3.576   9.894   9.032  0.0439  0.0481 -0.0221
   91loPI   C4A 1450   3.585   9.910   8.506 -0.0702 -0.0339  0.0758
   91loPI   C5A 1451   3.440  10.068   8.122  0.0074 -0.0133 -0.2573
   91loPI   C6A 1452   3.332  10.549   7.924 -0.1201 -0.0078  0.0632
   91loPI   C1B 1453   3.750  10.465   9.819  0.3190 -0.0964 -0.1070
   91loPI   C2B 1454   3.785  10.437   9.398  0.1115  0.0643 -0.2217
   91loPI   C3B 1455   3.730  10.345   9.092 -0.0082 -0.1230 -0.0199
   91loPI   C4B 1456   3.745  10.407   8.641 -0.1124 -0.1289 -0.0117
   92loPI    C1 1457   5.762  13.825  10.748 -0.2271  0.1408  0.0464
   92loPI    C2 1458   6.023  13.578  10.924 -0.2426  0.0948  0.0051
   92loPI    C3 1459   5.641  13.584  11.044 -0.2868 -0.0426 -0.1252
   92loPI   PO4 1460   5.772  13.773  10.456 -0.0170  0.2934  0.1780
   92loPI   GL1 1461   5.672  13.677  10.154 -0.0202  0.1079  0.1174
   92loPI   GL2 1462   5.862  13.447  10.012 -0.1263 -0.1135 -0.1065
   92loPI   C1A 1463   5.558  13.859   9.845  0.1019  0.0507 -0.2281
   92loPI   C2A 1464   5.534  13.854   9.399 -0.0988 -0.2732 -0.1314
   92loPI   C3A 1465   5.461  13.955   9.068 -0.0006 -0.1109 -0.0431
   92loPI   C4A 1466   5.463  13.953   8.654  0.0826 -0.0178 -0.1365
   92loPI   C5A 1467   5.554  14.243   8.297 -0.0187  0.4605  0.3883
   92loPI   C6A 1468   5.603  14.429   7.883 -0.2154 -0.1363 -0.1040
   92loPI   C1B 1469   5.851  13.373   9.586 -0.3815 -0.1406  0.0004
   92loPI   C2B 1470   5.843  13.503   9.172 -0.0789 -0.1479  0.0699
   92loPI   C3B 1471   5.811  13.475   8.744  0.0253 -0.2975  0.3498
   92loPI   C4B 1472   5.783  13.502   8.334  0.0527  0.0306 -0.1799
   93loPI    C1 1473  16.401  12.970  11.275  0.2450 -0.0530  0.2266
   93loPI    C2 1474  16.347  13.223  11.580 -0.0098  0.0496  0.0992
   93loPI    C3 1475  16.203  12.851  11.602 -0.1548  0.1019  0.0477
   93loPI   PO4 1476  16.282  13.024  10.976  0.0707  0.0945 -0.1808
   93loPI   GL1 1477  16.437  13.227  10.672 -0.0557  0.1147  0.0524
   93loPI   GL2 1478  16.544  13.039  10.448  0.1337  0.0224 -0.0212
   93loPI   C1A 1479  16.184  13.479  10.373  0.2886 -0.2044  0.0871
   93loPI   C2A 1480  16.141  13.526   9.957  0.1977 -0.1094  0.0820
   93loPI   C3A 1481  16.166  13.520   9.512  0.1146 -0.2171 -0.0411
   93loPI   C4A 1482  16.175  13.523   8.986 -0.1164  0.3473 -0.1572
   93loPI   C5A 1483  15.995  13.526   8.575 -0.0569 -0.1882 -0.0091
   93loPI   C6A 1484  15.581  13.361   8.390 -0.0667  0.4028  0.1374
   93loPI   C1B 1485  16.496  13.108   9.974  0.0116  0.1185 -0.1336
   93loPI   C2B 1486  16.486  13.107   9.513  0.0089 -0.0054 -0.0574
   93loPI   C3B 1487  16.468  13.104   9.004 -0.1055  0.1657 -0.1656
   93loPI   C4B 1488  16.389  13.190   8.521 -0.1360 -0.0103 -0.1528
   94loPI    C1 1489  10.264  11.457  10.762  0.0571  0.0619  0.0323
   94loPI    C2 1490  10.445  11.142  10.929  0.0234 -0.0497 -0.1384
   94loPI    C3 1491  10.139  11.319  11.116 -0.0940 -0.2501 -0.1385
   94loPI   PO4 1492  10.412  11.519  10.524 -0.2728  0.1866 -0.1557
   94loPI   GL1 1493  10.573  11.469  10.089 -0.1108 -0.1686 -0.0478
   94loPI   GL2 1494  10.591  11.817  10.018 -0.0735  0.1382  0.3851
   94loPI   C1A 1495  10.736  11.381   9.751  0.4852 -0.0483  0.2419
   94loPI   C2A 1496  10.828  11.360   9.411  0.0154  0.2931 -0.0187
   94loPI   C3A 1497  10.880  11.283   8.893  0.1710 -0.4825 -0.3440
   94loPI   C4A 1498  10.984  11.184   8.508  0.2354 -0.1008  0.2515
   94loPI   C5A 1499  10.739  11.183   8.082  0.2026  0.0740 -0.1228
   94loPI   C6A 1500  10.450  11.277   7.921 -0.4142 -0.1353 -0.1075
   94loPI   C1B 1501  10.588  11.789   9.561  0.2229  0.0997 -0.1956
   94loPI   C2B 1502  10.601  11.754   9.133 -0.1199 -0.0171 -0.2623
   94loPI   C3B 1503  10.625  11.680   8.712  0.0435 -0.2044  0.3002
   94loPI   C4B 1504  10.495  11.533   8.329  0.0472 -0.1751  0.1629
   95loPI    C1 1505   6.041  16.070  10.982  0.0615 -0.0668 -0.2336
   95loPI    C2 1506   5.861  16.016  11.335 -0.0348  0.1234 -0.2525
   95loPI    C3 1507   5.941  15.701  11.101  0.1482 -0.0183 -0.0049
   95loPI   PO4 1508   5.897  16.195  10.779 -0.0909  0.0506  0.0564
   95loPI   GL1 1509   5.764  16.034  10.283  0.3985  0.4423 -0.1022
   95loPI   GL2 1510   6.063  16.055  10.136 -0.1157 -0.0356 -0.3799
   95loPI   C1A 1511   5.319  16.123  10.198 -0.0198 -0.2494 -0.1088
   95loPI   C2A 1512   5.024  16.052   9.915 -0.0425 -0.1902 -0.0538
   95loPI   C3A 1513   4.947  16.176   9.372  0.0456  0.0625 -0.0161
   95loPI   C4A 1514   5.045  16.132   9.022  0.2835  0.1432  0.1446
   95loPI   C5A 1515   4.838  16.027   8.693 -0.0286  0.3285 -0.1767
   95loPI   C6A 1516   4.823  15.792   8.233 -0.0193 -0.1260  0.5463
   95loPI   C1B 1517   6.105  16.291   9.788 -0.1746  0.3223 -0.1813
   95loPI   C2B 1518   6.134  16.279   9.292 -0.0983  0.1068 -0.1806
   95loPI   C3B 1519   6.033  16.184   8.946  0.3027 -0.2222 -0.0748
   95loPI   C4B 1520   5.901  16.298   8.477  0.0573 -0.4638 -0.0046
   96loPI    C1 1521  13.158   5.637  11.087  0.0828 -0.0867 -0.1170
   96loPI    C2 1522  13.128   5.533  11.472 -0.0302  0.0638 -0.0840
   96loPI    C3 1523  13.476   5.488  11.278  0.1118  0.2663  0.1186
   96loPI   PO4 1524  12.946   5.516  10.975  0.1146 -0.0021 -0.1372
   96loPI   GL1 1525  12.900   5.162  10.543  0.1347  0.0797  0.0061
   96loPI   GL2 1526  12.640   5.154  10.493  0.1585  0.0506 -0.0752
   96loPI   C1A 1527  12.918   5.010  10.048  0.3958  0.1376 -0.2219
   96loPI   C2A 1528  12.866   5.011   9.565 -0.1763  0.1503  0.2724
   96loPI   C3A 1529  12.932   5.125   9.190 -0.1856 -0.1950 -0.0521
   96loPI   C4A 1530  12.992   5.164   8.841  0.1900  0.2623 -0.0343
   96loPI   C5A 1531  12.782   4.936   8.463 -0.0474  0.1360 -0.2170
   96loPI   C6A 1532  12.805   4.565   8.321  0.0183 -0.2187  0.1653
   96loPI   C1B 1533  12.469   4.935  10.193 -0.1223  0.0611 -0.0918
   96loPI   C2B 1534  12.428   4.983   9.791  0.1050  0.3354 -0.1346
   96loPI   C3B 1535  12.448   5.001   9.358  0.1619  0.1847 -0.3753
   96loPI   C4B 1536  12.464   4.996   8.912  0.3371  0.0876  0.2852
   97loPI    C1 1537  15.603   7.694  10.696 -0.0594  0.1823 -0.0769
   97loPI    C2 1538  15.786   7.990  10.893  0.2077 -0.1575  0.1987
   97loPI    C3 1539  15.463   7.815  11.051  0.0521 -0.0190  0.0378
   97loPI   PO4 1540  15.609   7.799  10.507 -0.1072  0.1880  0.2156
   97loPI   GL1 1541  15.581   7.690  10.064  0.0683  0.0831 -0.0279
   97loPI   GL2 1542  15.670   7.333   9.946  0.0740 -0.0358  0.0207
   97loPI   C1A 1543  15.301   7.770   9.761  0.0382 -0.1923  0.5145
   97loPI   C2A 1544  15.481   7.755   9.296  0.2169 -0.0331 -0.0487
   97loPI   C3A 1545  15.530   7.781   8.917  0.0027 -0.3751  0.0542
   97loPI   C4A 1546  15.559   7.835   8.414 -0.0201 -0.0920 -0.1744
   97loPI   C5A 1547  15.321   7.845   7.992 -0.0584  0.0831  0.0007
   97loPI   C6A 1548  14.938   8.136   7.813 -0.2765  0.1135 -0.0169
   97loPI   C1B 1549  15.767   7.384   9.515  0.0407  0.2276 -0.1521
   97loPI   C2B 1550  15.878   7.479   9.070  0.2508  0.2697 -0.2368
   97loPI   C3B 1551  15.779   7.418   8.611  0.0318 -0.0309  0.2883
   97loPI   C4B 1552  15.862   7.422   8.222  0.0429 -0.0604 -0.1023
   98loPI    C1 1553  13.631   8.046  10.951  0.1421  0.1203 -0.1464
   98loPI    C2 1554  13.534   8.096  11.336  0.0147 -0.0035 -0.1617
   98loPI    C3 1555  13.897   8.202  11.206  0.0132  0.1609 -0.0354
   98loPI   PO4 1556  13.565   7.807  10.870 -0.1943  0.2225 -0.2085
   98loPI   GL1 1557  13.469   7.807  10.352 -0.2678 -0.2077 -0.2047
   98loPI   GL2 1558  13.693   7.581  10.175  0.0579 -0.1056  0.2028
   98loPI   C1A 1559  13.477   8.003   9.855 -0.0154 -0.0640 -0.0773
   98loPI   C2A 1560  13.541   7.943   9.432  0.1747  0.1788 -0.1200
   98loPI   C3A 1561  13.624   7.875   8.978 -0.1579  0.3805  0.1970
   98loPI   C4A 1562  13.589   7.904   8.573  0.3098  0.2405  0.0704
   98loPI   C5A 1563  13.819   8.129   8.223  0.2716  0.3383 -0.1599
   98loPI   C6A 1564  14.176   8.313   8.090 -0.0315 -0.0875 -0.3985
   98loPI   C1B 1565  13.814   7.688   9.795  0.3119 -0.0878  0.2397
   98loPI   C2B 1566  13.905   7.609   9.412  0.2031 -0.3304 -0.4992
   98loPI   C3B 1567  14.018   7.482   9.024 -0.2868 -0.2670 -0.0306
   98loPI   C4B 1568  13.875   7.487   8.560 -0.0192  0.2059 -0.3451
   99loPI    C1 1569  13.369   3.107  10.962  0.1467 -0.2253  0.1407
   99loPI    C2 1570  13.682   3.039  10.723  0.1110  0.1119 -0.0090
   99loPI    C3 1571  13.737   3.213  11.078  0.0759  0.3343 -0.1112
   99loPI   PO4 1572  13.240   2.839  10.910  0.1953  0.0834 -0.0928
   99loPI   GL1 1573  13.168   2.741  10.369 -0.1624 -0.1343 -0.1274
   99loPI   GL2 1574  13.243   3.130  10.452  0.2489  0.1027 -0.3967
   99loPI   C1A 1575  13.095   2.827   9.981  0.0772 -0.0689  0.2707
   99loPI   C2A 1576  13.021   2.821   9.469 -0.0459  0.0277 -0.1728
   99loPI   C3A 1577  13.157   2.747   9.049  0.0786 -0.2121 -0.0141
   99loPI   C4A 1578  13.086   2.832   8.667 -0.1120 -0.1094  0.1567
   99loPI   C5A 1579  13.222   3.119   8.328 -0.1359 -0.1138  0.0670
   99loPI   C6A 1580  13.378   2.999   7.994 -0.1320 -0.1448 -0.3277
   99loPI   C1B 1581  13.259   3.319  10.049 -0.3180 -0.0629 -0.2138
   99loPI   C2B 1582  13.224   3.270   9.537 -0.3604  0.0681  0.1223
   99loPI   C3B 1583  13.290   3.236   9.026 -0.2298 -0.0606  0.1305
   99loPI   C4B 1584  13.304   3.465   8.705 -0.2139  0.0831 -0.1347
  100loPI    C1 1585  12.726   7.533  10.853 -0.0485 -0.5263 -0.1476
  100loPI    C2 1586  12.385   7.567  11.060  0.1081  0.3437  0.0058
  100loPI    C3 1587  12.719   7.446  11.243 -0.0736 -0.4020 -0.1201
  100loPI   PO4 1588  12.648   7.471  10.663  0.1638  0.0038  0.2699
  100loPI   GL1 1589  13.004   7.384  10.391 -0.4289  0.1303 -0.2005
  100loPI   GL2 1590  12.994   7.705  10.215  0.3596  0.1666  0.2123
  100loPI   C1A 1591  12.831   7.299  10.030  0.0791  0.0886  0.2173
  100loPI   C2A 1592  12.866   7.368   9.581 -0.1814  0.1569 -0.2125
  100loPI   C3A 1593  12.822   7.294   9.191  0.1083  0.2379  0.0157
  100loPI   C4A 1594  12.896   7.325   8.847 -0.0637 -0.3508  0.0061
  100loPI   C5A 1595  12.829   7.200   8.384 -0.0844  0.0675  0.5050
  100loPI   C6A 1596  13.201   6.982   8.138  0.1526 -0.0290 -0.3222
  100loPI   C1B 1597  13.344   7.425   9.909 -0.2196 -0.1180  0.2191
  100loPI   C2B 1598  13.363   7.487   9.402  0.0116  0.2475 -0.1352
  100loPI   C3B 1599  13.380   7.440   9.011 -0.1443 -0.2272 -0.2932
  100loPI   C4B 1600  13.319   7.360   8.555 -0.0887 -0.2487  0.2809
  101loPI    C1 1601   9.969   7.787  10.725 -0.0966 -0.0036  0.2134
  101loPI    C2 1602  10.189   8.035  10.948  0.0376 -0.1209  0.2126
  101loPI    C3 1603  10.227   7.640  10.993  0.1665 -0.1491 -0.1124
  101loPI   PO4 1604  10.057   7.866  10.465 -0.1247 -0.0109  0.0427
  101loPI   GL1 1605  10.056   8.009  10.114  0.0690  0.1789  0.2356
  101loPI   GL2 1606  10.377   8.070  10.099 -0.1236  0.1475 -0.2646
  101loPI   C1A 1607  10.061   7.790   9.745 -0.2020  0.2334 -0.0624
  101loPI   C2A 1608  10.105   7.777   9.302 -0.0954 -0.0902 -0.0965
  101loPI   C3A 1609  10.095   7.722   8.889 -0.1398  0.1634 -0.1144
  101loPI   C4A 1610  10.231   7.776   8.460  0.0595  0.1556  0.1014
  101loPI   C5A 1611  10.503   7.887   8.109  0.0610  0.0808  0.0774
  101loPI   C6A 1612  10.574   8.207   7.809  0.2930 -0.0451 -0.1786
  101loPI   C1B 1613  10.591   7.857   9.703  0.2456 -0.3569 -0.0509
  101loPI   C2B 1614  10.646   7.856   9.277 -0.3402  0.1450  0.1514
  101loPI   C3B 1615  10.776   7.871   8.883  0.0530  0.2898 -0.1681
  101loPI   C4B 1616  10.826   7.820   8.518  0.0173  0.3347  0.0271
  102loPI    C1 1617   0.698   0.896  10.512 -0.0054 -0.1533 -0.2953
  102loPI    C2 1618   0.649   1.007  10.893  0.1976  0.1247 -0.3467
  102loPI    C3 1619   0.855   0.676  10.806 -0.0788 -0.0878 -0.2064
  102loPI   PO4 1620   0.650   1.059  10.385 -0.3192  0.0018 -0.2506
  102loPI   GL1 1621   0.721   1.399  10.216  0.0930 -0.0491 -0.0382
  102loPI   GL2 1622   0.621   1.696  10.132  0.2179 -0.0693 -0.0907
  102loPI   C1A 1623   0.976   1.527   9.864  0.1585 -0.0655  0.0871
  102loPI   C2A 1624   0.902   1.481   9.439  0.0099 -0.0335 -0.0887
  102loPI   C3A 1625   0.946   1.581   9.155  0.2570 -0.1285  0.0689
  102loPI   C4A 1626   0.885   1.643   8.738 -0.2555 -0.0318  0.0194
  102loPI   C5A 1627   0.860   1.636   8.276  0.1972  0.2808  0.2371
  102loPI   C6A 1628   0.798   1.896   7.955  0.1075  0.2080  0.3135
  102loPI   C1B 1629   0.619   1.924   9.756  0.1357  0.0668 -0.0989
  102loPI   C2B 1630   0.584   1.970   9.263  0.0013  0.3098  0.0937
  102loPI   C3B 1631   0.471   1.914   8.922 -0.1024  0.0655  0.0630
  102loPI   C4B 1632   0.570   2.001   8.480  0.3673 -0.0790 -0.1515
  103loPI    C1 1633   6.412   2.664  11.022 -0.1628  0.3854 -0.1742
  103loPI    C2 1634   6.145   2.860  11.246 -0.1026  0.3452 -0.0663
  103loPI    C3 1635   6.419   2.627  11.420 -0.1402  0.2065 -0.1906
  103loPI   PO4 1636   6.302   2.669  10.763 -0.1654  0.1088  0.1684
  103loPI   GL1 1637   6.033   2.767  10.377  0.2369  0.0434 -0.0590
  103loPI   GL2 1638   6.197   2.582  10.302 -0.1669  0.4061  0.1728
  103loPI   C1A 1639   5.850   2.897   9.957 -0.2402 -0.0480 -0.4255
  103loPI   C2A 1640   5.899   2.967   9.667 -0.3155  0.4123  0.1434
  103loPI   C3A 1641   5.924   2.956   9.129  0.3456 -0.0732 -0.1458
  103loPI   C4A 1642   5.833   2.833   8.706  0.0923  0.0141 -0.1873
  103loPI   C5A 1643   5.851   2.879   8.368 -0.0661 -0.1216  0.1531
  103loPI   C6A 1644   6.066   3.137   8.057 -0.4944  0.0604 -0.3092
  103loPI   C1B 1645   6.156   2.548   9.851 -0.0818  0.1729  0.2039
  103loPI   C2B 1646   6.189   2.590   9.365 -0.0261  0.0492 -0.1269
  103loPI   C3B 1647   6.141   2.498   8.907  0.3074 -0.1619 -0.0404
  103loPI   C4B 1648   6.174   2.482   8.528  0.4204 -0.1368  0.1840
  104loPI    C1 1649  12.400  17.594  10.720 -0.0115 -0.1236  0.1864
  104loPI    C2 1650  12.315  17.413  11.067  0.1670 -0.2105  0.1860
  104loPI    C3 1651  12.475  17.780  11.066 -0.1276 -0.0798  0.1882
  104loPI   PO4 1652  12.206  17.609  10.500  0.0275 -0.0807  0.0078
  104loPI   GL1 1653  11.934  17.507  10.143  0.0177 -0.1287  0.1086
  104loPI   GL2 1654  11.866  17.826  10.030  0.0369 -0.0047  0.0375
  104loPI   C1A 1655  11.916  17.407   9.741 -0.0895  0.1631 -0.1372
  104loPI   C2A 1656  11.944  17.454   9.343 -0.1446 -0.1551  0.1657
  104loPI   C3A 1657  11.903  17.512   8.964  0.0037 -0.1924  0.1825
  104loPI   C4A 1658  11.832  17.517   8.624  0.2948 -0.0497 -0.1346
  104loPI   C5A 1659  11.767  17.203   8.249 -0.2015 -0.2863  0.1366
  104loPI   C6A 1660  11.898  16.758   8.259 -0.1169 -0.1748  0.0379
  104loPI   C1B 1661  12.216  17.879   9.630 -0.1011  0.1314 -0.1106
  104loPI   C2B 1662  12.162  17.889   9.193 -0.0527 -0.1929 -0.1599
  104loPI   C3B 1663  12.052  17.969   8.788 -0.1638 -0.3569  0.0705
  104loPI   C4B 1664  12.022  17.986   8.362  0.1817  0.1684 -0.2249
  105loPI    C1 1665  16.261   3.936  10.629  0.0949  0.2360  0.1303
  105loPI    C2 1666  16.136   4.270  10.810  0.0630  0.1480  0.2721
  105loPI    C3 1667  16.265   3.960  11.028  0.0421  0.0478  0.1434
  105loPI   PO4 1668  16.363   4.009  10.422  0.0487  0.0433  0.3593
  105loPI   GL1 1669  16.526   4.059  10.095 -0.0410 -0.1567 -0.2478
  105loPI   GL2 1670  16.533   3.861   9.894 -0.0164 -0.2838 -0.1135
  105loPI   C1A 1671  16.603   4.362   9.693  0.1532 -0.2505 -0.1367
  105loPI   C2A 1672  16.577   4.287   9.227  0.0328  0.2489 -0.0042
  105loPI   C3A 1673  16.603   4.386   8.785 -0.0554  0.0817  0.0895
  105loPI   C4A 1674  16.507   4.347   8.241  0.0654 -0.0281 -0.1082
  105loPI   C5A 1675  16.448   4.062   7.808  0.1857 -0.0873  0.1798
  105loPI   C6A 1676  16.597   3.690   7.658  0.0088 -0.3053 -0.0651
  105loPI   C1B 1677  16.433   3.814   9.510  0.2873 -0.2315 -0.4238
  105loPI   C2B 1678  16.357   3.814   9.067  0.1007  0.0242 -0.1072
  105loPI   C3B 1679  16.399   3.845   8.672  0.4541 -0.0446  0.2651
  105loPI   C4B 1680  16.273   3.829   8.239 -0.3657  0.0322 -0.2075
  106loPI    C1 1681   3.772   6.687  10.634  0.1405 -0.0720 -0.0432
  106loPI    C2 1682   3.595   6.559  10.970  0.1649  0.0055 -0.0005
  106loPI    C3 1683   3.982   6.483  10.906  0.2143  0.1771  0.0893
  106loPI   PO4 1684   3.638   6.599  10.435 -0.0248  0.0498 -0.0975
  106loPI   GL1 1685   3.788   6.599  10.074 -0.1480 -0.1198 -0.0357
  106loPI   GL2 1686   3.880   6.638   9.829  0.2040  0.1323  0.1748
  106loPI   C1A 1687   3.455   6.388   9.777  0.2277 -0.3854 -0.0469
  106loPI   C2A 1688   3.454   6.398   9.376  0.0956 -0.0091  0.1867
  106loPI   C3A 1689   3.407   6.502   8.928 -0.0695  0.2670 -0.0550
  106loPI   C4A 1690   3.211   6.592   8.595  0.2761 -0.2037  0.0045
  106loPI   C5A 1691   3.054   6.709   8.321 -0.0929 -0.0661  0.0291
  106loPI   C6A 1692   2.775   7.100   8.155  0.1166 -0.0601  0.0510
  106loPI   C1B 1693   3.885   6.652   9.346  0.0431 -0.1592 -0.2499
  106loPI   C2B 1694   3.862   6.707   8.977 -0.1247 -0.0025 -0.1529
  106loPI   C3B 1695   3.770   6.729   8.599 -0.1601  0.2687  0.0483
  106loPI   C4B 1696   3.732   6.940   8.253  0.4172 -0.4060  0.0701
  107loPI    C1 1697   8.400  10.637  10.438  0.0983 -0.0070  0.0921
  107loPI    C2 1698   8.598  10.875  10.691 -0.0812 -0.0345  0.2608
  107loPI    C3 1699   8.682  10.484  10.676 -0.0656 -0.0317  0.2732
  107loPI   PO4 1700   8.430  10.704  10.240 -0.0126  0.2110  0.2623
  107loPI   GL1 1701   8.714  10.828   9.975  0.0837 -0.3337 -0.0469
  107loPI   GL2 1702   8.935  10.527  10.080 -0.0694 -0.0477 -0.1603
  107loPI   C1A 1703   8.696  10.855   9.513 -0.0220  0.1991 -0.1797
  107loPI   C2A 1704   8.731  10.803   9.030  0.2667 -0.1668  0.2885
  107loPI   C3A 1705   8.817  10.696   8.568 -0.0837  0.0910  0.1478
  107loPI   C4A 1706   8.927  10.601   8.112  0.1186  0.3136 -0.2174
  107loPI   C5A 1707   8.606  10.483   7.759  0.2306  0.0347 -0.2441
  107loPI   C6A 1708   8.295  10.355   7.420 -0.2960 -0.2894 -0.0150
  107loPI   C1B 1709   9.074  10.452   9.597  0.1255  0.4282 -0.2580
  107loPI   C2B 1710   9.109  10.435   9.162  0.1169  0.0938  0.0974
  107loPI   C3B 1711   9.168  10.345   8.751  0.1286 -0.2267 -0.1799
  107loPI   C4B 1712   9.271  10.315   8.324 -0.2279 -0.0079  0.0525
  108loPI    C1 1713   6.505   7.358  11.131 -0.1019 -0.0462 -0.2756
  108loPI    C2 1714   6.107   7.345  11.176 -0.0879  0.0017 -0.1327
  108loPI    C3 1715   6.315   7.654  11.322  0.0163 -0.0851 -0.0960
  108loPI   PO4 1716   6.617   7.367  10.823 -0.2508 -0.1691  0.2407
  108loPI   GL1 1717   6.694   7.406  10.380  0.0230  0.2233 -0.0141
  108loPI   GL2 1718   6.798   7.523  10.035  0.1374  0.0338 -0.1533
  108loPI   C1A 1719   6.539   7.077  10.035  0.3488  0.3556 -0.1662
  108loPI   C2A 1720   6.524   7.095   9.607  0.2608  0.1820  0.0745
  108loPI   C3A 1721   6.485   7.108   9.187 -0.1068  0.0299  0.2531
  108loPI   C4A 1722   6.462   7.164   8.807 -0.0127  0.1553 -0.2657
  108loPI   C5A 1723   6.362   7.154   8.293 -0.3217 -0.1159  0.1988
  108loPI   C6A 1724   6.236   7.121   7.882  0.1301  0.0301  0.2526
  108loPI   C1B 1725   6.698   7.623   9.671 -0.2146  0.3435  0.0745
  108loPI   C2B 1726   6.700   7.555   9.206 -0.3002  0.0879  0.0406
  108loPI   C3B 1727   6.688   7.638   8.864  0.0666 -0.0388 -0.1827
  108loPI   C4B 1728   6.670   7.521   8.462 -0.0764  0.1734 -0.3138
  109loPI    C1 1729  13.109   9.683  10.803  0.0189  0.0434 -0.1045
  109loPI    C2 1730  13.218  10.067  10.791  0.0114  0.0417 -0.2406
  109loPI    C3 1731  13.493   9.784  10.849 -0.0132  0.0815  0.0902
  109loPI   PO4 1732  12.981   9.646  10.653 -0.1015 -0.0168  0.1927
  109loPI   GL1 1733  12.910   9.557  10.310  0.1572  0.0021 -0.0657
  109loPI   GL2 1734  12.664   9.608  10.061 -0.1171 -0.1493  0.2499
  109loPI   C1A 1735  13.166   9.653   9.966  0.0671 -0.0049  0.0078
  109loPI   C2A 1736  13.297   9.709   9.639  0.0417  0.1100  0.0117
  109loPI   C3A 1737  13.395   9.738   9.279  0.0313  0.2050  0.1773
  109loPI   C4A 1738  13.510   9.701   8.911 -0.2706  0.2109  0.1472
  109loPI   C5A 1739  13.544   9.652   8.443  0.3277 -0.1016 -0.2718
  109loPI   C6A 1740  13.551   9.604   8.002 -0.0784 -0.0975  0.1128
  109loPI   C1B 1741  12.681   9.653   9.652  0.3597  0.3318 -0.2000
  109loPI   C2B 1742  12.846   9.626   9.143  0.1245  0.1842  0.0389
  109loPI   C3B 1743  13.033   9.577   8.795 -0.0657  0.0825 -0.1614
  109loPI   C4B 1744  13.007   9.586   8.407 -0.3414 -0.1699  0.0892
  110loPI    C1 1745   9.103  15.985  10.868  0.0528  0.2387  0.0456
  110loPI    C2 1746   9.199  16.158  11.216 -0.2715  0.4617  0.0284
  110loPI    C3 1747   8.976  15.826  11.213  0.2805  0.0769  0.0574
  110loPI   PO4 1748   9.127  16.242  10.731 -0.0669  0.2156  0.1277
  110loPI   GL1 1749   9.126  16.407  10.329  0.1214  0.0189 -0.1194
  110loPI   GL2 1750   8.890  16.137  10.252 -0.0464  0.0943  0.2250
  110loPI   C1A 1751   9.478  16.487  10.065  0.3617  0.4172 -0.0941
  110loPI   C2A 1752   9.443  16.509   9.620 -0.6858  0.4571 -0.1743
  110loPI   C3A 1753   9.491  16.510   9.180  0.0731  0.1052  0.2512
  110loPI   C4A 1754   9.619  16.593   8.794  0.0747 -0.1394  0.0593
  110loPI   C5A 1755   9.720  16.752   8.411  0.1192  0.0662 -0.0076
  110loPI   C6A 1756   9.551  17.133   8.200  0.0463 -0.1294 -0.3605
  110loPI   C1B 1757   8.981  16.399   9.863  0.2182 -0.2929 -0.2026
  110loPI   C2B 1758   9.017  16.430   9.384  0.1747  0.0013  0.0603
  110loPI   C3B 1759   9.067  16.423   8.929 -0.2267 -0.0699  0.2230
  110loPI   C4B 1760   9.133  16.479   8.454  0.0112 -0.2948 -0.2209
  111loPI    C1 1761  14.350   5.978  10.866  0.1312 -0.0150  0.0360
  111loPI    C2 1762  14.602   6.254  11.007  0.3495 -0.1763 -0.0324
  111loPI    C3 1763  14.275   6.157  11.216  0.2456  0.1644 -0.0300
  111loPI   PO4 1764  14.397   5.981  10.599 -0.1787  0.0439  0.0041
  111loPI   GL1 1765  14.572   5.807  10.248 -0.1714 -0.1554  0.0136
  111loPI   GL2 1766  14.505   5.445  10.344  0.2639 -0.1623 -0.0174
  111loPI   C1A 1767  14.680   5.844   9.829 -0.2468  0.1602 -0.0594
  111loPI   C2A 1768  14.773   5.877   9.409 -0.1155 -0.2176  0.2199
  111loPI   C3A 1769  14.742   5.923   9.027 -0.0557 -0.0018 -0.0962
  111loPI   C4A 1770  14.754   5.820   8.617  0.0563  0.0652  0.3724
  111loPI   C5A 1771  14.910   5.868   8.223 -0.0277  0.0411  0.0076
  111loPI   C6A 1772  14.997   6.085   7.820  0.0055 -0.1866 -0.0054
  111loPI   C1B 1773  14.544   5.387   9.880  0.1480 -0.1680 -0.0369
  111loPI   C2B 1774  14.567   5.445   9.447 -0.3863  0.0204 -0.1002
  111loPI   C3B 1775  14.636   5.415   9.016  0.1725  0.3120  0.2760
  111loPI   C4B 1776  14.554   5.235   8.531  0.2900 -0.3342 -0.1148
  112loPI    C1 1777  10.563  16.592  10.926 -0.0236  0.0495  0.0093
  112loPI    C2 1778  10.829  16.553  10.630 -0.1409  0.0378 -0.0956
  112loPI    C3 1779  10.952  16.652  10.997  0.0377 -0.2232 -0.0824
  112loPI   PO4 1780  10.342  16.673  10.747  0.2904 -0.0690  0.1332
  112loPI   GL1 1781  10.192  16.765  10.333 -0.0846 -0.3465  0.1012
  112loPI   GL2 1782  10.489  16.781  10.284 -0.2441 -0.0756 -0.2300
  112loPI   C1A 1783  10.318  16.544   9.945  0.0623  0.3832  0.3690
  112loPI   C2A 1784  10.314  16.763   9.468  0.2690  0.0097 -0.0540
  112loPI   C3A 1785  10.176  16.728   9.062  0.1328  0.0788  0.2295
  112loPI   C4A 1786  10.128  16.696   8.655  0.1186  0.3764  0.0448
  112loPI   C5A 1787  10.196  16.804   8.395  0.1949  0.2476  0.1700
  112loPI   C6A 1788  10.010  16.731   8.020  0.2775 -0.1218  0.2000
  112loPI   C1B 1789  10.383  17.015   9.913  0.3901 -0.0058  0.2500
  112loPI   C2B 1790  10.279  17.236   9.610 -0.3866 -0.2059  0.1038
  112loPI   C3B 1791  10.267  17.192   9.158 -0.0199 -0.0418  0.3981
  112loPI   C4B 1792  10.279  17.155   8.692 -0.0705 -0.2871  0.2048
  113loPI    C1 1793   5.253  13.957  10.936  0.1186  0.0921 -0.0051
  113loPI    C2 1794   5.130  14.207  11.223 -0.0881 -0.0215  0.0069
  113loPI    C3 1795   5.453  13.979  11.282 -0.0480  0.0573  0.0947
  113loPI   PO4 1796   5.304  14.069  10.728 -0.1388  0.1044 -0.1550
  113loPI   GL1 1797   5.334  14.030  10.354 -0.0591  0.1264 -0.3381
  113loPI   GL2 1798   5.311  14.295  10.202  0.2495  0.2283 -0.0241
  113loPI   C1A 1799   5.072  13.888  10.019 -0.0322 -0.0569  0.3690
  113loPI   C2A 1800   5.063  13.839   9.546  0.2483  0.1634 -0.2686
  113loPI   C3A 1801   5.016  13.746   9.207  0.3882 -0.0006 -0.0515
  113loPI   C4A 1802   5.028  13.748   8.728  0.0527  0.1613  0.2815
  113loPI   C5A 1803   5.221  13.768   8.255  0.0530  0.3681  0.0369
  113loPI   C6A 1804   5.582  13.739   7.919  0.2245  0.0706 -0.2519
  113loPI   C1B 1805   5.272  14.279   9.795  0.0840 -0.0882  0.0986
  113loPI   C2B 1806   5.245  14.293   9.312 -0.0517 -0.3651  0.1477
  113loPI   C3B 1807   5.213  14.354   8.859 -0.1966  0.0002 -0.0337
  113loPI   C4B 1808   5.082  14.198   8.471  0.3011 -0.0028 -0.1429
  114loPI    C1 1809   2.837  13.550  11.138 -0.1450 -0.0260  0.1004
  114loPI    C2 1810   2.883  13.840  11.410 -0.4167 -0.3212  0.4721
  114loPI    C3 1811   3.141  13.535  11.398  0.0043  0.0369 -0.0687
  114loPI   PO4 1812   2.825  13.646  10.940  0.0151  0.2048  0.0171
  114loPI   GL1 1813   2.626  13.834  10.702 -0.1317  0.1811  0.1440
  114loPI   GL2 1814   2.329  13.884  10.679  0.0492 -0.0412 -0.2853
  114loPI   C1A 1815   2.677  13.878  10.264  0.1134  0.1962 -0.0717
  114loPI   C2A 1816   2.672  13.851   9.765 -0.1134  0.1427 -0.1665
  114loPI   C3A 1817   2.634  13.849   9.374  0.2485 -0.2023 -0.1248
  114loPI   C4A 1818   2.603  13.891   8.864 -0.2226 -0.1029  0.0009
  114loPI   C5A 1819   2.688  13.594   8.536  0.0683  0.2467  0.2131
  114loPI   C6A 1820   2.960  13.367   8.470  0.1487  0.3877 -0.3031
  114loPI   C1B 1821   2.169  13.777  10.290 -0.0166 -0.1015 -0.1195
  114loPI   C2B 1822   2.181  13.756   9.890 -0.2173  0.1052 -0.2814
  114loPI   C3B 1823   2.086  13.689   9.488 -0.0662  0.1820  0.2443
  114loPI   C4B 1824   2.106  13.803   8.966 -0.3277  0.2048 -0.0933
  115loPI    C1 1825   4.130  16.222  10.664 -0.0996  0.1185  0.0172
  115loPI    C2 1826   4.133  16.109  10.280 -0.1402  0.0286  0.0432
  115loPI    C3 1827   3.901  16.413  10.397 -0.2567 -0.0531  0.0267
  115loPI   PO4 1828   4.492  16.207  10.684 -0.0721 -0.0687 -0.1379
  115loPI   GL1 1829   4.667  16.143  10.362 -0.3087  0.0060  0.1203
  115loPI   GL2 1830   4.968  16.393  10.370  0.4273 -0.0373  0.0343
  115loPI   C1A 1831   4.505  16.039   9.953  0.2980 -0.0386  0.1079
  115loPI   C2A 1832   4.455  16.092   9.585 -0.0996  0.0751  0.1134
  115loPI   C3A 1833   4.504  16.092   9.169  0.1050 -0.0720  0.1340
  115loPI   C4A 1834   4.322  15.970   8.817  0.0706 -0.0597  0.1019
  115loPI   C5A 1835   4.405  16.085   8.351 -0.2050 -0.0724 -0.0045
  115loPI   C6A 1836   4.655  16.388   8.047  0.2208  0.0479 -0.1435
  115loPI   C1B 1837   4.815  16.551  10.009 -0.0051  0.2464  0.0676
  115loPI   C2B 1838   4.701  16.550   9.600 -0.0351  0.0752  0.0431
  115loPI   C3B 1839   4.662  16.569   9.122  0.0814  0.1856 -0.1494
  115loPI   C4B 1840   4.574  16.445   8.715 -0.0951 -0.2663 -0.0467
  116loPI    C1 1841  14.683   7.910  10.791 -0.0101  0.3070  0.0812
  116loPI    C2 1842  15.001   7.727  10.951 -0.0789  0.0969 -0.0192
  116loPI    C3 1843  14.720   7.886  11.188 -0.1021 -0.0749  0.0704
  116loPI   PO4 1844  14.805   7.870  10.529  0.1960 -0.3094 -0.3300
  116loPI   GL1 1845  14.617   7.728  10.166 -0.4124 -0.0516 -0.0912
  116loPI   GL2 1846  14.646   8.061  10.079 -0.0451 -0.2571 -0.0939
  116loPI   C1A 1847  14.807   7.761   9.762  0.3485 -0.4467 -0.1044
  116loPI   C2A 1848  14.940   7.752   9.389  0.1278 -0.3573 -0.1456
  116loPI   C3A 1849  15.026   7.698   8.991  0.1438  0.1408  0.1204
  116loPI   C4A 1850  15.118   7.695   8.531  0.3200 -0.1499 -0.2083
  116loPI   C5A 1851  15.150   7.465   8.214  0.0232 -0.3157  0.2430
  116loPI   C6A 1852  15.450   7.177   8.069 -0.4104 -0.1146 -0.2070
  116loPI   C1B 1853  14.574   8.168   9.637  0.0104  0.1479  0.2012
  116loPI   C2B 1854  14.703   8.135   9.250  0.0216 -0.1123  0.0120
  116loPI   C3B 1855  14.671   8.057   8.814  0.0223 -0.0234  0.1484
  116loPI   C4B 1856  14.883   8.104   8.289  0.1876  0.2110  0.0846
  117loPI    C1 1857  10.440  13.235  10.529 -0.1000 -0.0758 -0.2884
  117loPI    C2 1858  10.088  13.103  10.393 -0.1378 -0.1441 -0.1261
  117loPI    C3 1859  10.332  12.855  10.591  0.0598 -0.1327 -0.3517
  117loPI   PO4 1860  10.535  13.348  10.312  0.2295 -0.1961  0.0411
  117loPI   GL1 1861  10.569  13.246   9.849 -0.3605 -0.0506  0.2392
  117loPI   GL2 1862  10.249  13.238   9.917 -0.1657  0.0483 -0.0098
  117loPI   C1A 1863  10.369  13.177   9.404 -0.0717  0.2080  0.0674
  117loPI   C2A 1864  10.465  13.290   9.056  0.1374  0.0132 -0.2901
  117loPI   C3A 1865  10.317  13.322   8.612 -0.2361  0.1891 -0.1898
  117loPI   C4A 1866  10.090  13.438   8.280  0.0875  0.2358 -0.0499
  117loPI   C5A 1867   9.754  13.392   7.945 -0.0103 -0.3330  0.0283
  117loPI   C6A 1868   9.530  13.826   7.730 -0.3081  0.1991  0.3024
  117loPI   C1B 1869   9.971  13.366   9.581  0.2306  0.0571 -0.2901
  117loPI   C2B 1870   9.952  13.325   9.184  0.2304 -0.2589 -0.2241
  117loPI   C3B 1871   9.791  13.266   8.748 -0.0664  0.1725  0.2379
  117loPI   C4B 1872   9.603  13.098   8.346 -0.2309  0.0515  0.0626
  118loPI    C1 1873   7.154   0.353  11.087  0.0481 -0.0656 -0.2518
  118loPI    C2 1874   7.059  -0.027  11.008 -0.0147 -0.0784 -0.1172
  118loPI    C3 1875   6.964   0.133  11.362 -0.1678  0.1229 -0.2473
  118loPI   PO4 1876   7.059   0.511  10.808 -0.2526 -0.3016 -0.0918
  118loPI   GL1 1877   7.155   0.618  10.386  0.2079  0.2778  0.2292
  118loPI   GL2 1878   7.048   0.924  10.249  0.0661 -0.1658  0.5238
  118loPI   C1A 1879   7.318   0.475   9.924 -0.3068 -0.3498 -0.0881
  118loPI   C2A 1880   7.256   0.416   9.536  0.1454 -0.0677 -0.3353
  118loPI   C3A 1881   7.361   0.433   9.173  0.0354 -0.0897  0.5224
  118loPI   C4A 1882   7.267   0.417   8.664  0.1966  0.3350 -0.0142
  118loPI   C5A 1883   7.191   0.447   8.254  0.2576 -0.2790 -0.2315
  118loPI   C6A 1884   7.133   0.447   7.820  0.1668  0.2737 -0.1525
  118loPI   C1B 1885   6.980   0.885   9.786  0.0072 -0.0141 -0.1270
  118loPI   C2B 1886   7.004   0.815   9.384  0.3858 -0.3304 -0.0629
  118loPI   C3B 1887   6.936   0.764   8.906  0.2411 -0.4748 -0.0821
  118loPI   C4B 1888   6.970   0.889   8.357 -0.0263  0.0304  0.1391
  119loPI    C1 1889   3.538  16.817  10.780  0.1463 -0.1041  0.1083
  119loPI    C2 1890   3.245  16.596  10.938  0.1317 -0.2072 -0.0606
  119loPI    C3 1891   3.560  16.699  11.161 -0.0277 -0.1026  0.1198
  119loPI   PO4 1892   3.541  16.740  10.567  0.0650  0.0396 -0.1104
  119loPI   GL1 1893   3.573  16.638  10.166 -0.0085 -0.1422  0.2625
  119loPI   GL2 1894   3.846  16.863  10.093 -0.0242 -0.2048  0.0991
  119loPI   C1A 1895   3.736  16.393   9.856 -0.2467  0.0163  0.0215
  119loPI   C2A 1896   3.719  16.344   9.406  0.1695  0.0427 -0.2936
  119loPI   C3A 1897   3.629  16.443   8.987  0.1004 -0.2730  0.0886
  119loPI   C4A 1898   3.455  16.300   8.663  0.0467 -0.0080  0.1012
  119loPI   C5A 1899   3.602  16.064   8.414 -0.0258 -0.1355  0.1809
  119loPI   C6A 1900   3.964  15.909   8.188 -0.0340  0.0601  0.1593
  119loPI   C1B 1901   3.880  16.855   9.677 -0.2662  0.3001  0.1582
  119loPI   C2B 1902   3.883  16.811   9.258  0.0424  0.0076 -0.0008
  119loPI   C3B 1903   3.788  16.829   8.764 -0.3665  0.0521  0.0236
  119loPI   C4B 1904   3.714  16.703   8.329 -0.0479 -0.0127  0.4193
  120loPI    C1 1905   6.803   0.656  11.313  0.0729 -0.0712 -0.0687
  120loPI    C2 1906   6.598   0.816  11.617  0.3223 -0.0280  0.0801
  120loPI    C3 1907   6.751   0.448  11.650  0.1460 -0.1182 -0.0862
  120loPI   PO4 1908   6.613   0.773  11.071  0.0396  0.0532  0.3694
  120loPI   GL1 1909   6.431   0.960  10.585  0.1974  0.1815  0.1133
  120loPI   GL2 1910   6.613   1.275  10.437 -0.3564  0.0898 -0.0215
  120loPI   C1A 1911   6.384   0.843  10.155  0.0879 -0.2238 -0.0002
  120loPI   C2A 1912   6.498   0.767   9.678 -0.0814  0.1401  0.0629
  120loPI   C3A 1913   6.491   0.734   9.266  0.1917  0.4675  0.0259
  120loPI   C4A 1914   6.427   0.654   8.792 -0.0844 -0.0937  0.0192
  120loPI   C5A 1915   6.342   0.635   8.418  0.1365 -0.2931 -0.0957
  120loPI   C6A 1916   6.651   0.488   8.149 -0.0349 -0.0979 -0.1454
  120loPI   C1B 1917   6.727   1.258  10.022 -0.0783 -0.1101 -0.1313
  120loPI   C2B 1918   6.730   1.270   9.583 -0.0793 -0.0078  0.0796
  120loPI   C3B 1919   6.628   1.212   9.086 -0.1495 -0.0880 -0.2426
  120loPI   C4B 1920   6.588   1.137   8.683 -0.4458 -0.1621 -0.1323
  121loPI    C1 1921  14.580  15.729  11.036  0.1125 -0.0940  0.3117
  121loPI    C2 1922  14.549  15.821  11.424  0.0813 -0.0244  0.2927
  121loPI    C3 1923  14.255  15.918  11.171  0.1071 -0.0589  0.2494
  121loPI   PO4 1924  14.667  15.751  10.745  0.0940 -0.1800 -0.0127
  121loPI   GL1 1925  14.372  15.484  10.440  0.0196  0.0465  0.1022
  121loPI   GL2 1926  14.303  15.171  10.372  0.2113 -0.0981  0.0405
  121loPI   C1A 1927  14.476  15.437   9.957  0.2395  0.1105  0.1544
  121loPI   C2A 1928  14.567  15.529   9.565  0.2110 -0.0356 -0.0526
  121loPI   C3A 1929  14.438  15.524   9.115 -0.2520 -0.0995  0.4591
  121loPI   C4A 1930  14.460  15.661   8.742 -0.0088 -0.1631  0.1150
  121loPI   C5A 1931  14.592  15.555   8.387  0.0262  0.1390  0.3347
  121loPI   C6A 1932  15.002  15.250   8.412 -0.2793  0.3251  0.1497
  121loPI   C1B 1933  14.284  14.979   9.912 -0.3682 -0.0963  0.1166
  121loPI   C2B 1934  14.315  15.108   9.487 -0.0017  0.0364 -0.0405
  121loPI   C3B 1935  14.211  15.064   9.142  0.2903 -0.0936 -0.0427
  121loPI   C4B 1936  14.350  15.192   8.743  0.1914 -0.1045 -0.1275
  122loPI    C1 1937   0.316  16.104  11.101 -0.0440 -0.0864 -0.2092
  122loPI    C2 1938  -0.031  16.289  11.032 -0.0577  0.0158  0.1183
  122loPI    C3 1939   0.004  16.040  11.343  0.1185 -0.1133 -0.0034
  122loPI   PO4 1940   0.310  15.982  10.859 -0.0765  0.0541  0.2673
  122loPI   GL1 1941   0.234  15.639  10.642  0.0639  0.1977  0.2674
  122loPI   GL2 1942   0.492  15.823  10.437 -0.1259 -0.1332 -0.1514
  122loPI   C1A 1943  -0.009  15.641  10.297  0.2792 -0.0807  0.0714
  122loPI   C2A 1944  -0.129  15.674   9.912 -0.0351 -0.0367  0.0153
  122loPI   C3A 1945  -0.113  15.601   9.481 -0.0357  0.0239 -0.0209
  122loPI   C4A 1946  -0.116  15.603   9.008  0.1732  0.1461 -0.1059
  122loPI   C5A 1947  -0.029  15.716   8.561 -0.0822  0.2508  0.0005
  122loPI   C6A 1948   0.356  15.559   8.373 -0.1706  0.1663 -0.2485
  122loPI   C1B 1949   0.490  15.734  10.132  0.1496  0.0474 -0.1115
  122loPI   C2B 1950   0.398  15.722   9.718 -0.0351 -0.2806 -0.3966
  122loPI   C3B 1951   0.466  15.750   9.279 -0.0302 -0.0396  0.1053
  122loPI   C4B 1952   0.416  15.794   8.858  0.0917  0.1317  0.0690
  123loPI    C1 1953   0.126  16.763  11.112 -0.1688  0.0445  0.0814
  123loPI    C2 1954   0.428  16.546  10.965 -0.3153 -0.0440 -0.0931
  123loPI    C3 1955   0.324  16.509  11.350  0.1231  0.2499  0.0613
  123loPI   PO4 1956  -0.004  16.829  10.863 -0.4460  0.2136  0.0606
  123loPI   GL1 1957  -0.105  16.720  10.462 -0.2706  0.0703 -0.1935
  123loPI   GL2 1958  -0.360  16.989  10.453 -0.0574  0.2069 -0.0535
  123loPI   C1A 1959  -0.261  16.480  10.104 -0.1639  0.2720  0.1725
  123loPI   C2A 1960  -0.269  16.562   9.677  0.1133  0.0955 -0.0423
  123loPI   C3A 1961  -0.264  16.600   9.197 -0.0116  0.0529  0.3506
  123loPI   C4A 1962  -0.205  16.648   8.874 -0.0003  0.2009 -0.1552
  123loPI   C5A 1963  -0.303  16.458   8.489 -0.1066  0.0105  0.0984
  123loPI   C6A 1964  -0.360  16.418   8.092  0.0855  0.0338 -0.0028
  123loPI   C1B 1965  -0.189  16.968  10.028  0.2888  0.0453 -0.1526
  123loPI   C2B 1966  -0.070  17.056   9.583 -0.0981 -0.2780 -0.1005
  123loPI   C3B 1967  -0.061  17.111   9.119 -0.3314 -0.0936  0.3202
  123loPI   C4B 1968   0.049  17.080   8.719  0.1215  0.0749 -0.0759
  124loPI    C1 1969  16.963  17.139  10.915 -0.0774  0.0550 -0.0301
  124loPI    C2 1970  17.314  17.234  11.081 -0.0773  0.0280 -0.0148
  124loPI    C3 1971  16.988  17.199  11.309 -0.0872  0.0393 -0.0271
  124loPI   PO4 1972  17.105  16.965  10.711 -0.3837  0.0757 -0.0621
  124loPI   GL1 1973  17.055  16.963  10.351  0.3251 -0.1866  0.0610
  124loPI   GL2 1974  16.818  16.829  10.281 -0.3197  0.0624  0.0455
  124loPI   C1A 1975  17.324  16.925   9.967  0.2537 -0.2518  0.0450
  124loPI   C2A 1976  17.432  16.990   9.531 -0.1278 -0.2668  0.2803
  124loPI   C3A 1977  17.439  16.985   9.051  0.1010  0.0700 -0.2367
  124loPI   C4A 1978  17.487  16.941   8.647  0.2232 -0.3521  0.2521
  124loPI   C5A 1979  17.699  16.951   8.270 -0.2031 -0.0073 -0.4909
  124loPI   C6A 1980  18.219  17.137   8.286 -0.1868 -0.0624 -0.0667
  124loPI   C1B 1981  16.848  16.826   9.889  0.2817 -0.0987  0.0654
  124loPI   C2B 1982  16.994  16.807   9.522  0.0146  0.0975  0.0703
  124loPI   C3B 1983  16.972  16.860   9.030  0.1845  0.1289  0.0801
  124loPI   C4B 1984  16.846  16.957   8.601  0.2014 -0.1863  0.0733
  125loPI    C1 1985   5.736   9.728  10.605  0.0834  0.1538 -0.1100
  125loPI    C2 1986   5.687   9.822  10.991  0.0922 -0.2312 -0.0105
  125loPI    C3 1987   5.869  10.079  10.744  0.0212  0.0497  0.2233
  125loPI   PO4 1988   5.504   9.690  10.508 -0.0415 -0.1295  0.1865
  125loPI   GL1 1989   5.356   9.696  10.151 -0.0998 -0.0113 -0.2643
  125loPI   GL2 1990   5.188   9.464  10.255 -0.2697 -0.0178  0.3307
  125loPI   C1A 1991   5.392   9.656   9.788 -0.0188 -0.3781 -0.0463
  125loPI   C2A 1992   5.525   9.728   9.301 -0.1510  0.1498 -0.3092
  125loPI   C3A 1993   5.478   9.772   8.858  0.0640  0.1386  0.1473
  125loPI   C4A 1994   5.535   9.709   8.473 -0.2270 -0.2080 -0.2907
  125loPI   C5A 1995   5.384   9.807   8.119  0.0135  0.1019  0.1002
  125loPI   C6A 1996   5.350  10.169   7.882  0.1913  0.1058 -0.4380
  125loPI   C1B 1997   5.203   9.190   9.894 -0.2101 -0.2004 -0.0296
  125loPI   C2B 1998   5.246   9.233   9.537 -0.0176 -0.0813  0.0066
  125loPI   C3B 1999   5.340   9.301   9.093  0.1048 -0.1435  0.3294
  125loPI   C4B 2000   5.373   9.326   8.695 -0.0010 -0.0229  0.0433
  126loPI    C1 2001  13.047  16.260  11.067 -0.0918 -0.0508 -0.1136
  126loPI    C2 2002  12.900  16.168  11.428  0.1337 -0.0596 -0.0224
  126loPI    C3 2003  13.290  16.120  11.353  0.0829 -0.0862 -0.2777
  126loPI   PO4 2004  12.977  16.060  10.846 -0.1460  0.1194 -0.0037
  126loPI   GL1 2005  13.130  15.890  10.507  0.0698  0.1946 -0.0354
  126loPI   GL2 2006  13.173  15.641  10.420 -0.2738  0.1363 -0.2034
  126loPI   C1A 2007  13.331  16.130  10.175 -0.4890  0.0997  0.0319
  126loPI   C2A 2008  13.367  16.223   9.744  0.0695 -0.0204  0.2261
  126loPI   C3A 2009  13.321  16.228   9.278 -0.1094 -0.0498  0.2759
  126loPI   C4A 2010  13.248  16.266   8.850  0.0320 -0.0534 -0.0413
  126loPI   C5A 2011  13.253  16.411   8.406  0.3662  0.1181  0.1176
  126loPI   C6A 2012  13.157  16.376   7.836 -0.0644  0.0750 -0.1770
  126loPI   C1B 2013  13.193  15.713   9.932 -0.1395  0.2139 -0.0139
  126loPI   C2B 2014  13.179  15.797   9.555 -0.3261  0.0723  0.0999
  126loPI   C3B 2015  13.049  15.768   9.101 -0.2171 -0.0238 -0.0225
  126loPI   C4B 2016  13.157  15.758   8.645 -0.0361 -0.4056 -0.1091
  127loPI    C1 2017   0.264  11.405  10.892 -0.0266 -0.0714  0.1528
  127loPI    C2 2018   0.077  11.358  11.242  0.0464 -0.0044  0.2013
  127loPI    C3 2019   0.422  11.169  11.174  0.0150 -0.0444  0.1522
  127loPI   PO4 2020   0.210  11.755  10.806  0.2325  0.1490  0.2765
  127loPI   GL1 2021   0.531  12.025  10.615 -0.3315 -0.2526  0.2521
  127loPI   GL2 2022   0.503  12.367  10.330 -0.0229  0.0698  0.1309
  127loPI   C1A 2023   0.729  11.940  10.214 -0.0734 -0.0261  0.2073
  127loPI   C2A 2024   0.738  11.782   9.831  0.0142  0.4050  0.1587
  127loPI   C3A 2025   0.905  11.668   9.429  0.0830 -0.1901 -0.0554
  127loPI   C4A 2026   0.853  11.774   8.976 -0.0480 -0.0318 -0.1077
  127loPI   C5A 2027   0.745  11.889   8.555 -0.1231 -0.0904 -0.1901
  127loPI   C6A 2028   0.832  12.113   8.170 -0.2600  0.2867 -0.0507
  127loPI   C1B 2029   0.417  12.341   9.904 -0.2215 -0.3265 -0.1944
  127loPI   C2B 2030   0.570  12.169   9.511  0.0104  0.2096  0.0065
  127loPI   C3B 2031   0.431  12.040   9.084 -0.3958  0.0336  0.2879
  127loPI   C4B 2032   0.318  12.161   8.575 -0.1031  0.0035 -0.1361
  128loPI    C1 2033   2.216   9.731  11.054  0.2408  0.0574  0.0930
  128loPI    C2 2034   2.084   9.644  11.422 -0.1704  0.3180  0.0134
  128loPI    C3 2035   1.908   9.933  11.209 -0.0657  0.0385 -0.4674
  128loPI   PO4 2036   2.234   9.558  10.835  0.0396  0.2094 -0.0402
  128loPI   GL1 2037   2.278   9.361  10.413  0.2983 -0.1729  0.0694
  128loPI   GL2 2038   2.051   9.614  10.257  0.2095 -0.3564 -0.0168
  128loPI   C1A 2039   2.290   9.109  10.024  0.1579 -0.1507  0.0361
  128loPI   C2A 2040   2.352   9.085   9.583  0.1149  0.0974 -0.2412
  128loPI   C3A 2041   2.420   9.114   9.091 -0.1737  0.2671  0.1182
  128loPI   C4A 2042   2.512   9.150   8.742 -0.2135  0.2717 -0.1599
  128loPI   C5A 2043   2.395   9.163   8.275 -0.0727  0.3647 -0.3285
  128loPI   C6A 2044   2.271   8.940   7.928  0.2076 -0.0280  0.0766
  128loPI   C1B 2045   2.066   9.500   9.785  0.2320 -0.1095  0.2528
  128loPI   C2B 2046   2.081   9.497   9.383 -0.3134  0.0296  0.0865
  128loPI   C3B 2047   2.116   9.595   9.028 -0.4480  0.1328  0.4339
  128loPI   C4B 2048   2.156   9.526   8.629 -0.3234 -0.0368  0.0840
  129loPI    C1 2049  10.206   3.114  11.226  0.2418  0.0566 -0.0073
  129loPI    C2 2050  10.065   3.411  11.454  0.1422  0.0059 -0.0025
  129loPI    C3 2051  10.302   3.131  11.614  0.3353  0.1495 -0.0342
  129loPI   PO4 2052   9.914   2.955  11.062  0.1995 -0.2293 -0.2391
  129loPI   GL1 2053  10.084   2.770  10.825  0.3887  0.1638  0.2047
  129loPI   GL2 2054   9.881   3.032  10.576 -0.0262  0.2486 -0.3818
  129loPI   C1A 2055  10.220   2.704  10.348  0.2694 -0.2483  0.1057
  129loPI   C2A 2056  10.117   2.685   9.994 -0.0336 -0.2924 -0.0534
  129loPI   C3A 2057  10.191   2.819   9.590 -0.3550  0.0061 -0.1660
  129loPI   C4A 2058  10.169   2.795   9.134  0.1366  0.1626  0.1504
  129loPI   C5A 2059  10.241   2.932   8.765 -0.0520 -0.1477  0.2801
  129loPI   C6A 2060  10.520   3.240   8.678  0.1850  0.0948  0.1301
  129loPI   C1B 2061   9.830   3.035  10.140  0.4576  0.1921  0.1427
  129loPI   C2B 2062   9.853   3.125   9.697  0.3046 -0.1822  0.1105
  129loPI   C3B 2063   9.798   3.175   9.237  0.2671  0.0519 -0.0615
  129loPI   C4B 2064   9.882   3.267   8.851 -0.0812 -0.2195  0.1700
  130loPI    C1 2065  12.761   5.966  10.992 -0.1094 -0.0219  0.1677
  130loPI    C2 2066  13.060   6.208  11.102 -0.1090  0.1099 -0.1159
  130loPI    C3 2067  12.875   5.982  11.375  0.2466  0.0286  0.0634
  130loPI   PO4 2068  12.685   6.090  10.714  0.0780 -0.1861 -0.0940
  130loPI   GL1 2069  12.650   5.938  10.339 -0.2192  0.0620  0.0349
  130loPI   GL2 2070  12.803   5.635  10.340  0.1344 -0.2552  0.2554
  130loPI   C1A 2071  12.790   5.979   9.849  0.3416  0.1767  0.2266
  130loPI   C2A 2072  12.930   5.909   9.467  0.2692  0.3587 -0.0056
  130loPI   C3A 2073  12.803   5.954   9.069 -0.0541 -0.0240  0.1441
  130loPI   C4A 2074  12.875   5.976   8.647  0.2619  0.1020  0.2286
  130loPI   C5A 2075  12.823   6.302   8.304  0.1135 -0.1402  0.0556
  130loPI   C6A 2076  12.807   6.680   8.210  0.2629 -0.0968  0.3021
  130loPI   C1B 2077  12.596   5.425  10.076 -0.0362 -0.0088  0.2050
  130loPI   C2B 2078  12.563   5.499   9.639  0.1560  0.0348 -0.1156
  130loPI   C3B 2079  12.649   5.547   9.245 -0.0533  0.0322 -0.0117
  130loPI   C4B 2080  12.640   5.548   8.899 -0.1408 -0.0447  0.3096
  131loPI    C1 2081  12.893   8.288  10.656  0.1153 -0.1731 -0.3097
  131loPI    C2 2082  13.045   7.918  10.666  0.1695 -0.1457  0.0080
  131loPI    C3 2083  13.105   8.166  10.973 -0.1583  0.0111 -0.0506
  131loPI   PO4 2084  12.925   8.426  10.441 -0.0372  0.1966 -0.1313
  131loPI   GL1 2085  13.001   8.127  10.022 -0.6793 -0.3409 -0.2102
  131loPI   GL2 2086  12.977   8.368   9.894  0.0276  0.0968 -0.0562
  131loPI   C1A 2087  13.037   7.789   9.712  0.0848  0.0833 -0.1170
  131loPI   C2A 2088  13.119   7.850   9.186  0.0392  0.2926 -0.2449
  131loPI   C3A 2089  13.111   7.820   8.717 -0.3725 -0.1406 -0.0199
  131loPI   C4A 2090  13.258   7.917   8.174 -0.0561  0.2212  0.0964
  131loPI   C5A 2091  13.677   7.641   8.041 -0.1618  0.1567  0.2041
  131loPI   C6A 2092  13.516   7.215   7.860  0.0006  0.1359 -0.1813
  131loPI   C1B 2093  13.239   8.322   9.507  0.0008 -0.1506 -0.2766
  131loPI   C2B 2094  13.285   8.277   9.039  0.2716  0.0540  0.3030
  131loPI   C3B 2095  13.382   8.371   8.607 -0.1101 -0.1521  0.1912
  131loPI   C4B 2096  13.384   8.389   8.118 -0.3609 -0.0291  0.4400
  132loPI    C1 2097   4.523  14.870  11.131  0.0849  0.0910 -0.1686
  132loPI    C2 2098   4.850  14.691  11.275 -0.0537 -0.0940 -0.0791
  132loPI    C3 2099   4.675  14.984  11.483  0.0586  0.0111 -0.1310
  132loPI   PO4 2100   4.575  14.988  10.863  0.0239  0.1715 -0.1385
  132loPI   GL1 2101   4.436  14.908  10.497  0.1164  0.2949  0.0474
  132loPI   GL2 2102   4.430  14.682  10.322  0.1441 -0.2059 -0.3720
  132loPI   C1A 2103   4.153  15.021  10.122  0.0217 -0.0583 -0.2365
  132loPI   C2A 2104   4.050  15.008   9.710  0.1285 -0.0410 -0.1202
  132loPI   C3A 2105   4.002  15.035   9.201  0.0995 -0.2458 -0.2497
  132loPI   C4A 2106   3.997  14.929   8.744  0.1156  0.0705 -0.1665
  132loPI   C5A 2107   3.790  14.666   8.348  0.0980  0.0051 -0.2732
  132loPI   C6A 2108   3.742  14.447   8.013  0.2430  0.1004 -0.0313
  132loPI   C1B 2109   4.425  14.639   9.875 -0.2765 -0.2723 -0.1698
  132loPI   C2B 2110   4.499  14.543   9.437 -0.1691 -0.3220  0.0391
  132loPI   C3B 2111   4.426  14.707   9.088 -0.0863  0.0934  0.1089
  132loPI   C4B 2112   4.380  14.563   8.704  0.1835  0.0764 -0.1735
  133loPI    C1 2113  11.621   4.626  11.157 -0.2207  0.2059  0.1941
  133loPI    C2 2114  11.494   4.956  11.344  0.0956  0.2901  0.2660
  133loPI    C3 2115  11.885   4.878  11.320  0.0377  0.0683 -0.0055
  133loPI   PO4 2116  11.499   4.671  10.939 -0.1389  0.1996  0.0045
  133loPI   GL1 2117  11.651   4.674  10.584 -0.1436  0.1624 -0.0762
  133loPI   GL2 2118  11.874   4.811  10.410  0.1241  0.0153 -0.0339
  133loPI   C1A 2119  11.550   4.415  10.244  0.0944 -0.3293 -0.0654
  133loPI   C2A 2120  11.615   4.374   9.807 -0.0164 -0.0835 -0.1346
  133loPI   C3A 2121  11.662   4.396   9.417 -0.0546 -0.0045  0.0419
  133loPI   C4A 2122  11.722   4.403   9.046 -0.1945 -0.0123  0.1356
  133loPI   C5A 2123  11.701   4.598   8.586  0.0778  0.0756 -0.0933
  133loPI   C6A 2124  12.005   4.691   8.269  0.1408 -0.0088  0.2243
  133loPI   C1B 2125  11.804   4.874   9.960 -0.3544 -0.2270  0.0656
  133loPI   C2B 2126  11.869   4.821   9.600  0.0783 -0.3194 -0.0815
  133loPI   C3B 2127  11.873   4.919   9.203 -0.0467  0.2301  0.4170
  133loPI   C4B 2128  11.900   5.056   8.736  0.0313 -0.1311 -0.0287
  134loPI    C1 2129  15.707   4.054  10.808  0.0424 -0.1058  0.0031
  134loPI    C2 2130  15.726   4.183  11.186 -0.0403 -0.1797  0.0326
  134loPI    C3 2131  15.812   3.802  11.100 -0.1218 -0.1890 -0.0089
  134loPI   PO4 2132  15.551   4.204  10.712 -0.0992 -0.0706 -0.2296
  134loPI   GL1 2133  15.151   4.417  10.389 -0.0034 -0.0713  0.2057
  134loPI   GL2 2134  15.464   4.386  10.264  0.3351  0.0905 -0.1108
  134loPI   C1A 2135  14.837   4.511  10.065 -0.0305 -0.2538 -0.1144
  134loPI   C2A 2136  14.694   4.539   9.661  0.0296 -0.2423  0.1200
  134loPI   C3A 2137  14.591   4.491   9.194  0.1135 -0.2002  0.0056
  134loPI   C4A 2138  14.783   4.514   8.876  0.1680 -0.1072  0.2346
  134loPI   C5A 2139  14.797   4.568   8.467 -0.0364 -0.0481  0.1138
  134loPI   C6A 2140  14.687   4.278   8.088 -0.1148 -0.0503  0.2242
  134loPI   C1B 2141  15.362   4.654   9.911 -0.0778  0.3282  0.0406
  134loPI   C2B 2142  15.207   4.591   9.473 -0.0596  0.4375  0.0397
  134loPI   C3B 2143  15.212   4.641   9.004 -0.1105  0.1955  0.0180
  134loPI   C4B 2144  15.274   4.582   8.501 -0.1095  0.2724  0.4336
  135loPI    C1 2145   2.812   5.776  10.941  0.2275  0.0600  0.1609
  135loPI    C2 2146   2.493   5.887  11.155  0.1260 -0.0394  0.0626
  135loPI    C3 2147   2.734   5.599  11.291  0.1976  0.0644  0.1565
  135loPI   PO4 2148   2.678   5.748  10.695 -0.0506  0.3629  0.2393
  135loPI   GL1 2149   2.714   5.548  10.353  0.0312 -0.1568  0.0375
  135loPI   GL2 2150   3.030   5.549  10.121  0.0583 -0.2898  0.2567
  135loPI   C1A 2151   2.517   5.413   9.977  0.1519 -0.3189 -0.6599
  135loPI   C2A 2152   2.536   5.423   9.555  0.1636 -0.0173  0.1875
  135loPI   C3A 2153   2.417   5.508   9.100 -0.0757  0.1280 -0.3145
  135loPI   C4A 2154   2.387   5.497   8.629 -0.0203  0.2811 -0.3018
  135loPI   C5A 2155   2.578   5.651   8.287 -0.1086  0.1505 -0.1897
  135loPI   C6A 2156   2.806   5.774   7.874  0.2308 -0.2024 -0.1517
  135loPI   C1B 2157   3.023   5.558   9.633  0.0979 -0.0306  0.0608
  135loPI   C2B 2158   2.859   5.614   9.201 -0.3567  0.0499  0.0673
  135loPI   C3B 2159   2.963   5.635   8.772 -0.1430 -0.0027  0.2710
  135loPI   C4B 2160   3.108   5.618   8.310 -0.0328 -0.0229 -0.0030
  136loPI    C1 2161   9.941  15.898  10.897 -0.1546 -0.1176 -0.1047
  136loPI    C2 2162   9.620  16.133  10.937 -0.0547 -0.0082  0.0654
  136loPI    C3 2163   9.643  15.790  11.141 -0.0959 -0.0517 -0.0030
  136loPI   PO4 2164   9.971  15.885  10.601  0.0652  0.0696 -0.0013
  136loPI   GL1 2165   9.870  15.809  10.203 -0.0258  0.0704 -0.0220
  136loPI   GL2 2166   9.967  16.095  10.179  0.2000 -0.2472  0.0176
  136loPI   C1A 2167   9.950  15.764   9.755 -0.0951  0.1221 -0.0834
  136loPI   C2A 2168  10.025  15.817   9.327  0.0057  0.0668  0.1510
  136loPI   C3A 2169  10.255  15.797   8.990  0.1017  0.0457 -0.1705
  136loPI   C4A 2170  10.283  15.789   8.579  0.3185 -0.0464  0.0571
  136loPI   C5A 2171  10.375  15.526   8.110 -0.3837  0.1319 -0.2693
  136loPI   C6A 2172  10.505  15.121   8.161  0.1610  0.0849 -0.0030
  136loPI   C1B 2173   9.909  16.295   9.865  0.2488  0.2647 -0.0454
  136loPI   C2B 2174   9.897  16.298   9.499  0.0363  0.0052 -0.1398
  136loPI   C3B 2175   9.936  16.199   9.037  0.2290 -0.2842 -0.3193
  136loPI   C4B 2176   9.936  16.167   8.645  0.0382  0.1376  0.2125
  137loPI    C1 2177   7.444   0.921  10.911  0.1251  0.0405  0.0752
  137loPI    C2 2178   7.528   0.911  11.302  0.0672  0.2570  0.0948
  137loPI    C3 2179   7.148   0.931  11.179  0.0757  0.0123  0.0219
  137loPI   PO4 2180   7.511   0.803  10.764 -0.0013 -0.0494  0.0209
  137loPI   GL1 2181   7.611   0.876  10.332  0.1391 -0.2034  0.1956
  137loPI   GL2 2182   7.715   0.633  10.220 -0.0040 -0.0028 -0.4096
  137loPI   C1A 2183   7.532   0.914   9.847  0.0240  0.2150  0.0982
  137loPI   C2A 2184   7.499   0.912   9.416  0.1340 -0.1474  0.3411
  137loPI   C3A 2185   7.482   0.963   8.954  0.2554  0.0945 -0.2525
  137loPI   C4A 2186   7.425   0.829   8.507  0.1287 -0.0134  0.1014
  137loPI   C5A 2187   7.425   0.909   8.007  0.0218  0.1421  0.1102
  137loPI   C6A 2188   7.414   0.763   7.594 -0.3221 -0.1444 -0.0728
  137loPI   C1B 2189   7.853   0.530   9.795  0.0162  0.0880 -0.2171
  137loPI   C2B 2190   7.780   0.534   9.408  0.0845 -0.3056 -0.1067
  137loPI   C3B 2191   7.785   0.524   8.949  0.0598  0.0102  0.1086
  137loPI   C4B 2192   7.757   0.515   8.486 -0.0122 -0.0126 -0.1183
  138loPI    C1 2193   4.600  15.484  10.822  0.1585 -0.2183 -0.3440
  138loPI    C2 2194   4.864  15.347  11.090  0.0746 -0.0746 -0.1857
  138loPI    C3 2195   4.475  15.364  11.183  0.0930  0.3541 -0.1658
  138loPI   PO4 2196   4.629  15.422  10.579 -0.0380 -0.0344 -0.1921
  138loPI   GL1 2197   4.633  15.666  10.232  0.1038  0.0017 -0.3824
  138loPI   GL2 2198   4.375  15.552  10.114 -0.1249 -0.2075  0.0852
  138loPI   C1A 2199   4.813  15.598   9.844  0.0398  0.2152 -0.0600
  138loPI   C2A 2200   4.779  15.714   9.433 -0.1403 -0.4136  0.3333
  138loPI   C3A 2201   4.806  15.657   9.087  0.0888 -0.2197  0.1364
  138loPI   C4A 2202   4.684  15.568   8.670 -0.2462  0.0662  0.1957
  138loPI   C5A 2203   4.354  15.591   8.430  0.1218  0.1524  0.4252
  138loPI   C6A 2204   4.309  15.599   8.029 -0.2288 -0.3074  0.0256
  138loPI   C1B 2205   4.339  15.622   9.678 -0.1947 -0.1029  0.1013
  138loPI   C2B 2206   4.267  15.626   9.236 -0.4788 -0.1127  0.3187
  138loPI   C3B 2207   4.185  15.356   8.876  0.1246  0.0643 -0.0618
  138loPI   C4B 2208   3.924  15.327   8.473 -0.3660 -0.2459 -0.1258
  139loPI    C1 2209   7.371  17.778  10.666 -0.0514 -0.3400 -0.0359
  139loPI    C2 2210   7.710  17.903  10.838 -0.1480 -0.0488 -0.0515
  139loPI    C3 2211   7.537  17.563  10.960  0.0005 -0.0549  0.1471
  139loPI   PO4 2212   7.432  17.846  10.371  0.0180 -0.0335 -0.1067
  139loPI   GL1 2213   7.617  18.082   9.985  0.0330  0.0026 -0.0562
  139loPI   GL2 2214   7.701  17.786   9.980 -0.2380 -0.2035  0.1341
  139loPI   C1A 2215   7.649  18.052   9.575  0.0707  0.2207  0.3067
  139loPI   C2A 2216   7.726  17.927   9.125 -0.0291  0.0514 -0.4853
  139loPI   C3A 2217   7.680  17.882   8.720  0.1062  0.1746 -0.0947
  139loPI   C4A 2218   7.626  18.049   8.292 -0.5123  0.1061  0.1259
  139loPI   C5A 2219   7.394  18.001   8.013 -0.2358  0.2135 -0.0953
  139loPI   C6A 2220   7.202  17.884   7.690 -0.0143  0.1174 -0.2696
  139loPI   C1B 2221   7.564  17.445   9.645  0.2558 -0.2722 -0.0971
  139loPI   C2B 2222   7.487  17.370   9.185  0.1029  0.0108  0.0608
  139loPI   C3B 2223   7.357  17.456   8.787 -0.0098  0.1491 -0.2839
  139loPI   C4B 2224   7.482  17.482   8.372 -0.1509 -0.1756  0.0085
  140loPI    C1 2225   7.039   8.085  10.889  0.2279  0.0646 -0.1818
  140loPI    C2 2226   6.753   7.862  10.721  0.0483  0.1445  0.0125
  140loPI    C3 2227   6.792   7.869  11.119  0.2287  0.2477 -0.0060
  140loPI   PO4 2228   7.263   8.146  10.692 -0.0925 -0.0727  0.0098
  140loPI   GL1 2229   7.326   8.145  10.271  0.1527 -0.1167  0.0476
  140loPI   GL2 2230   7.353   8.353   9.990 -0.0116 -0.0424  0.0994
  140loPI   C1A 2231   7.153   7.901   9.897  0.0824 -0.0123  0.1390
  140loPI   C2A 2232   7.142   7.635   9.458  0.0169 -0.0523  0.1528
  140loPI   C3A 2233   7.182   7.715   9.054  0.1624  0.1501  0.4014
  140loPI   C4A 2234   7.182   7.682   8.663 -0.3087  0.0046  0.2882
  140loPI   C5A 2235   7.276   7.522   8.144 -0.0702 -0.1830 -0.0467
  140loPI   C6A 2236   7.751   7.444   7.972 -0.1004 -0.0141 -0.2267
  140loPI   C1B 2237   7.365   8.378   9.579  0.1872 -0.0419  0.0376
  140loPI   C2B 2238   7.314   8.244   9.115 -0.2218  0.1031  0.3499
  140loPI   C3B 2239   7.362   8.174   8.693 -0.1108 -0.0442 -0.0802
  140loPI   C4B 2240   7.201   8.023   8.231 -0.0777 -0.1099  0.1974
  141loPI    C1 2241   2.160   0.457  10.844  0.0683  0.0611  0.1266
  141loPI    C2 2242   1.828   0.390  11.056  0.0722  0.1509  0.1615
  141loPI    C3 2243   2.164   0.500  11.242  0.1120  0.0954  0.1226
  141loPI   PO4 2244   2.065   0.728  10.541 -0.0097  0.1995  0.0548
  141loPI   GL1 2245   2.277   0.844  10.130  0.2787  0.1942 -0.0176
  141loPI   GL2 2246   2.631   0.960  10.042 -0.0176  0.0250  0.1681
  141loPI   C1A 2247   2.137   0.966   9.693  0.0610 -0.1636  0.3431
  141loPI   C2A 2248   2.185   0.836   9.349 -0.2323 -0.1349  0.0669
  141loPI   C3A 2249   2.095   0.824   9.000 -0.2343  0.1899  0.0906
  141loPI   C4A 2250   2.038   0.840   8.592  0.1501 -0.1566 -0.0012
  141loPI   C5A 2251   2.037   0.642   8.151  0.1110  0.0444 -0.1125
  141loPI   C6A 2252   1.960   0.292   7.951 -0.1265 -0.0472  0.1915
  141loPI   C1B 2253   2.676   1.013   9.610 -0.1646 -0.1867 -0.1857
  141loPI   C2B 2254   2.731   0.947   9.240  0.1635  0.0501  0.1255
  141loPI   C3B 2255   2.582   0.875   8.808 -0.1065  0.0332  0.0272
  141loPI   C4B 2256   2.464   0.905   8.360  0.2594  0.2234  0.1011
  142loPI    C1 2257   1.110   1.109  10.771 -0.1186 -0.0550  0.0872
  142loPI    C2 2258   1.438   1.076  10.998 -0.0163 -0.1527 -0.0733
  142loPI    C3 2259   1.081   0.973  11.146  0.0464 -0.1919  0.0518
  142loPI   PO4 2260   1.158   1.191  10.469  0.1650  0.1957 -0.0556
  142loPI   GL1 2261   1.091   0.986  10.055  0.0097 -0.0229 -0.2449
  142loPI   GL2 2262   0.733   0.973   9.878 -0.1607 -0.0789 -0.2094
  142loPI   C1A 2263   1.243   1.166   9.659 -0.3063 -0.0652  0.0761
  142loPI   C2A 2264   1.250   1.167   9.198  0.2115 -0.0016  0.0685
  142loPI   C3A 2265   1.170   1.252   8.850 -0.0816  0.1964  0.1083
  142loPI   C4A 2266   1.223   1.276   8.437 -0.1215 -0.1875 -0.0798
  142loPI   C5A 2267   1.206   1.080   7.977 -0.1055  0.3749 -0.0075
  142loPI   C6A 2268   1.242   0.860   7.560  0.4811  0.0436 -0.0653
  142loPI   C1B 2269   0.745   1.026   9.425 -0.0124  0.0397  0.3050
  142loPI   C2B 2270   0.766   1.082   9.050  0.1290  0.2616  0.2727
  142loPI   C3B 2271   0.674   1.197   8.553  0.0071 -0.3226  0.0596
  142loPI   C4B 2272   0.730   1.197   8.110 -0.0587  0.0700  0.0523
  143loPI    C1 2273  17.391  14.039  11.225  0.1327  0.1137  0.0906
  143loPI    C2 2274  17.252  13.689  11.360 -0.1777  0.0862 -0.2821
  143loPI    C3 2275  17.268  14.005  11.604 -0.1921 -0.1043 -0.0299
  143loPI   PO4 2276  17.251  14.079  11.088 -0.1963 -0.3286 -0.2064
  143loPI   GL1 2277  17.003  14.129  10.771 -0.2048 -0.0517 -0.0084
  143loPI   GL2 2278  17.300  14.090  10.603 -0.0933  0.2255  0.0892
  143loPI   C1A 2279  16.932  14.103  10.319  0.0904 -0.0707 -0.0631
  143loPI   C2A 2280  16.818  14.038   9.959  0.0047 -0.1279 -0.2410
  143loPI   C3A 2281  16.850  14.114   9.504 -0.0589  0.2064 -0.0143
  143loPI   C4A 2282  16.732  14.141   9.087  0.0096 -0.0724  0.1328
  143loPI   C5A 2283  16.738  14.007   8.631  0.1536  0.0214 -0.2072
  143loPI   C6A 2284  16.750  13.600   8.472  0.1916 -0.0826  0.0219
  143loPI   C1B 2285  17.406  14.239  10.214  0.3805  0.0867  0.1154
  143loPI   C2B 2286  17.285  14.169   9.770  0.1768 -0.2264 -0.1326
  143loPI   C3B 2287  17.321  14.159   9.346  0.0162  0.1106  0.3650
  143loPI   C4B 2288  17.255  14.188   8.971 -0.2580  0.1429  0.0472
  144loPI    C1 2289  13.318   6.918  10.849  0.0917 -0.1083 -0.0161
  144loPI    C2 2290  13.199   7.146  11.156  0.2751 -0.0318 -0.0005
  144loPI    C3 2291  13.102   6.758  11.146 -0.2690  0.1001 -0.1600
  144loPI   PO4 2292  13.304   6.992  10.648  0.1125 -0.4011  0.0202
  144loPI   GL1 2293  13.292   6.919  10.277  0.2581 -0.3674  0.0911
  144loPI   GL2 2294  13.401   6.580  10.294  0.2890  0.1148 -0.0917
  144loPI   C1A 2295  13.247   6.913   9.848  0.2439 -0.0704  0.2881
  144loPI   C2A 2296  13.194   6.980   9.405  0.2656  0.0743 -0.1077
  144loPI   C3A 2297  13.196   6.913   9.009  0.0905 -0.1024 -0.2477
  144loPI   C4A 2298  13.205   6.816   8.621 -0.1066 -0.1252 -0.0775
  144loPI   C5A 2299  13.329   6.427   8.308 -0.0127 -0.0716  0.3216
  144loPI   C6A 2300  13.540   6.169   8.009  0.2175 -0.0623  0.1320
  144loPI   C1B 2301  13.652   6.616   9.891 -0.3143 -0.2221 -0.1578
  144loPI   C2B 2302  13.658   6.645   9.482 -0.2565 -0.2620  0.0364
  144loPI   C3B 2303  13.538   6.451   9.080  0.2092 -0.0963  0.3518
  144loPI   C4B 2304  13.587   6.567   8.736  0.1058  0.0505  0.1816
  145loPI    C1 2305   4.056  12.444  11.206  0.0524  0.0348 -0.0559
  145loPI    C2 2306   3.725  12.224  11.249  0.1180 -0.0479  0.0273
  145loPI    C3 2307   4.085  12.055  11.293  0.1724  0.0327 -0.1027
  145loPI   PO4 2308   4.086  12.628  10.937 -0.1795 -0.3141 -0.0458
  145loPI   GL1 2309   4.061  12.842  10.558  0.1396  0.2336 -0.0487
  145loPI   GL2 2310   4.170  13.106  10.405  0.1426 -0.0818  0.2071
  145loPI   C1A 2311   4.090  12.718  10.081  0.0270 -0.1734 -0.0042
  145loPI   C2A 2312   4.088  12.796   9.662  0.2457 -0.0914 -0.3308
  145loPI   C3A 2313   4.094  12.708   9.227 -0.4271 -0.1249  0.0375
  145loPI   C4A 2314   4.088  12.743   8.710 -0.1846 -0.0276  0.0555
  145loPI   C5A 2315   4.113  12.649   8.277  0.0142 -0.5186  0.0605
  145loPI   C6A 2316   4.353  12.325   8.147  0.0091  0.0740 -0.0035
  145loPI   C1B 2317   4.225  13.198   9.929 -0.0660  0.1354  0.0419
  145loPI   C2B 2318   4.349  13.175   9.442  0.1229 -0.0045 -0.3325
  145loPI   C3B 2319   4.284  13.187   9.113  0.0839 -0.0961  0.2683
  145loPI   C4B 2320   4.260  13.230   8.664 -0.0481 -0.0978 -0.1738
  146loPI    C1 2321   1.984  15.904  10.663  0.0494  0.1751 -0.0618
  146loPI    C2 2322   2.312  15.761  10.484 -0.0481  0.0615 -0.1519
  146loPI    C3 2323   2.333  16.094  10.704  0.2022 -0.1401  0.1388
  146loPI   PO4 2324   1.810  15.839  10.477  0.0347 -0.0618 -0.1220
  146loPI   GL1 2325   1.828  15.511  10.154 -0.1450 -0.0251 -0.0943
  146loPI   GL2 2326   1.540  15.620  10.053 -0.0403 -0.0192  0.0698
  146loPI   C1A 2327   2.219  15.647   9.939 -0.0274  0.0855 -0.0774
  146loPI   C2A 2328   2.423  15.695   9.494  0.0290  0.1288 -0.1283
  146loPI   C3A 2329   2.345  15.624   9.106  0.0813 -0.1246 -0.1709
  146loPI   C4A 2330   2.161  15.621   8.746  0.2757  0.2423 -0.0199
  146loPI   C5A 2331   2.276  15.756   8.325 -0.2054  0.2460 -0.1775
  146loPI   C6A 2332   2.588  15.951   7.966 -0.0780 -0.1296 -0.0937
  146loPI   C1B 2333   1.639  15.482   9.643  0.1727  0.1624  0.1758
  146loPI   C2B 2334   1.667  15.445   9.251  0.1101  0.2171 -0.1983
  146loPI   C3B 2335   1.718  15.458   8.826  0.3566  0.0060  0.0455
  146loPI   C4B 2336   1.832  15.439   8.448 -0.0503  0.0091  0.3308
  147loPI    C1 2337   9.292   6.268  11.010  0.0823  0.3317  0.1567
  147loPI    C2 2338   9.676   6.307  11.115  0.0588  0.1195  0.3285
  147loPI    C3 2339   9.431   6.077  11.333 -0.0684 -0.0765 -0.0124
  147loPI   PO4 2340   9.377   6.203  10.727  0.1507  0.3704 -0.0379
  147loPI   GL1 2341   9.519   6.006  10.436 -0.0886  0.0332  0.0994
  147loPI   GL2 2342   9.507   6.335  10.226  0.3599 -0.0331 -0.4607
  147loPI   C1A 2343   9.410   5.878  10.065 -0.1237 -0.4828  0.1167
  147loPI   C2A 2344   9.359   5.823   9.629 -0.1599  0.0450 -0.3877
  147loPI   C3A 2345   9.215   5.839   9.242  0.0656  0.0203 -0.1092
  147loPI   C4A 2346   9.224   5.838   8.847 -0.3534 -0.0103  0.0789
  147loPI   C5A 2347   9.255   6.081   8.442  0.1354 -0.1573 -0.2169
  147loPI   C6A 2348   9.612   6.136   8.180  0.0004 -0.0805 -0.1508
  147loPI   C1B 2349   9.635   6.290   9.801 -0.0385 -0.1839  0.1499
  147loPI   C2B 2350   9.528   6.333   9.373 -0.1020  0.2050 -0.1869
  147loPI   C3B 2351   9.402   6.423   8.848  0.1690  0.0182 -0.1594
  147loPI   C4B 2352   9.613   6.516   8.510 -0.1752 -0.1008  0.1140
  148loPI    C1 2353  12.082  15.945  10.986  0.2280 -0.0496  0.4254
  148loPI    C2 2354  11.687  15.887  10.990  0.2290 -0.0770  0.2213
  148loPI    C3 2355  11.848  16.177  11.213  0.0547  0.1681  0.0343
  148loPI   PO4 2356  12.150  15.889  10.859  0.3500  0.0332  0.2263
  148loPI   GL1 2357  12.142  16.004  10.436 -0.1771 -0.1265 -0.0201
  148loPI   GL2 2358  11.861  15.924  10.380 -0.3077 -0.0372 -0.3188
  148loPI   C1A 2359  12.323  15.963  10.036 -0.1869  0.0906 -0.0500
  148loPI   C2A 2360  12.422  16.000   9.575  0.1032 -0.1720  0.3407
  148loPI   C3A 2361  12.281  16.100   9.152 -0.0835  0.1293 -0.0724
  148loPI   C4A 2362  12.308  16.016   8.692 -0.0765 -0.0503  0.1061
  148loPI   C5A 2363  12.153  16.340   8.312  0.0099  0.0983  0.1315
  148loPI   C6A 2364  12.248  16.341   7.860 -0.0884  0.0081 -0.1682
  148loPI   C1B 2365  11.802  15.999   9.952  0.0179  0.2022 -0.4208
  148loPI   C2B 2366  11.883  16.007   9.563 -0.3170  0.3635 -0.0320
  148loPI   C3B 2367  11.790  15.974   9.060  0.1525  0.0095 -0.0645
  148loPI   C4B 2368  11.769  15.972   8.646  0.3829 -0.3877  0.2443
  149loPI    C1 2369  13.616   5.662  10.813 -0.2490  0.2464 -0.2140
  149loPI    C2 2370  13.531   5.961  11.065 -0.0277  0.1670 -0.0410
  149loPI    C3 2371  13.899   5.804  11.058 -0.1772 -0.1923 -0.0326
  149loPI   PO4 2372  13.606   5.689  10.632  0.2216 -0.0357  0.1268
  149loPI   GL1 2373  13.808   5.669  10.305  0.2640  0.0088  0.0870
  149loPI   GL2 2374  14.120   5.848  10.209  0.0620  0.0381  0.0228
  149loPI   C1A 2375  13.743   5.556   9.906  0.1808  0.0423 -0.0770
  149loPI   C2A 2376  13.693   5.584   9.507 -0.2783  0.0328  0.0993
  149loPI   C3A 2377  13.707   5.690   9.093 -0.2245  0.1486 -0.0953
  149loPI   C4A 2378  13.783   5.706   8.729  0.0387  0.0542  0.0467
  149loPI   C5A 2379  13.760   5.703   8.316  0.1016  0.1399  0.4047
  149loPI   C6A 2380  13.938   5.838   7.936  0.0009 -0.3055  0.2558
  149loPI   C1B 2381  14.158   5.781   9.745 -0.0001  0.0841  0.1333
  149loPI   C2B 2382  14.223   5.842   9.329 -0.0869 -0.2162  0.0025
  149loPI   C3B 2383  14.275   5.765   8.827 -0.0279 -0.1355  0.2129
  149loPI   C4B 2384  14.406   5.639   8.301  0.1251 -0.1197 -0.0426
  150loPI    C1 2385  13.502   4.837  11.009 -0.2229 -0.1214 -0.3422
  150loPI    C2 2386  13.651   4.541  11.233 -0.2476  0.2343  0.1607
  150loPI    C3 2387  13.268   4.649  11.273 -0.2733  0.2535 -0.1135
  150loPI   PO4 2388  13.600   4.819  10.835  0.1222  0.2347 -0.1673
  150loPI   GL1 2389  13.547   4.793  10.512 -0.3229  0.0108  0.1196
  150loPI   GL2 2390  13.263   4.924  10.365  0.1479 -0.1367 -0.3014
  150loPI   C1A 2391  13.896   4.654  10.291 -0.2434  0.1305  0.4863
  150loPI   C2A 2392  13.965   4.753   9.914  0.0512 -0.1096  0.2268
  150loPI   C3A 2393  13.974   4.805   9.522  0.0383 -0.2633 -0.1376
  150loPI   C4A 2394  13.951   4.781   9.093  0.0416 -0.3370  0.1559
  150loPI   C5A 2395  13.870   4.878   8.703  0.1486 -0.1125 -0.1469
  150loPI   C6A 2396  13.694   4.728   8.284  0.1135  0.1881 -0.3028
  150loPI   C1B 2397  13.336   4.672   9.994  0.2821 -0.0247  0.0785
  150loPI   C2B 2398  13.268   4.734   9.523  0.2950 -0.0335 -0.0963
  150loPI   C3B 2399  13.309   4.821   9.141  0.1055  0.0764  0.0286
  150loPI   C4B 2400  13.288   4.786   8.663  0.1490  0.2036 -0.2588
  151loPI    C1 2401  10.041  12.466  10.282 -0.3233 -0.0868 -0.0430
  151loPI    C2 2402   9.807  12.679  10.527 -0.0975 -0.0158  0.1148
  151loPI    C3 2403  10.007  12.362  10.667  0.1403  0.1068  0.0565
  151loPI   PO4 2404  10.206  12.608  10.163  0.3464  0.0306  0.0383
  151loPI   GL1 2405  10.234  12.803   9.730  0.1389  0.0769 -0.1404
  151loPI   GL2 2406  10.528  12.786   9.630  0.1235  0.4633  0.2957
  151loPI   C1A 2407  10.084  12.805   9.294  0.0710  0.0118 -0.0228
  151loPI   C2A 2408  10.199  12.814   8.884 -0.1319 -0.0608  0.1979
  151loPI   C3A 2409  10.517  12.594   8.690  0.2548 -0.2083 -0.1096
  151loPI   C4A 2410  10.577  12.385   8.295  0.1414  0.0410 -0.0676
  151loPI   C5A 2411  10.716  12.225   7.988 -0.3143  0.0110  0.1315
  151loPI   C6A 2412  10.541  12.144   7.662  0.1025  0.1608  0.0962
  151loPI   C1B 2413  10.555  12.789   9.191 -0.1684  0.0983  0.4024
  151loPI   C2B 2414  10.703  13.014   8.752 -0.2646  0.0767  0.1446
  151loPI   C3B 2415  10.692  13.082   8.353 -0.0388  0.1793  0.3808
  151loPI   C4B 2416  10.673  13.197   7.968 -0.1612 -0.1276 -0.5842
  152loPI    C1 2417   4.355  11.535  11.298 -0.1511 -0.1879  0.2814
  152loPI    C2 2418   4.744  11.582  11.376 -0.0822 -0.4250  0.0931
  152loPI    C3 2419   4.474  11.636  11.667  0.0464  0.2478  0.1054
  152loPI   PO4 2420   4.379  11.736  11.093 -0.2338  0.0064 -0.1843
  152loPI   GL1 2421   4.496  11.688  10.613 -0.0091  0.0250  0.4944
  152loPI   GL2 2422   4.545  11.406  10.554  0.0429  0.1130  0.1619
  152loPI   C1A 2423   4.172  11.861  10.324 -0.0629 -0.2709  0.1485
  152loPI   C2A 2424   4.115  11.860   9.868  0.2473  0.1123 -0.0211
  152loPI   C3A 2425   4.185  11.817   9.463 -0.2408 -0.1172 -0.0718
  152loPI   C4A 2426   4.230  11.819   9.027 -0.0864 -0.0791  0.1103
  152loPI   C5A 2427   4.204  11.804   8.588 -0.1852 -0.0885 -0.2120
  152loPI   C6A 2428   3.934  11.683   8.303  0.0066  0.1659 -0.0034
  152loPI   C1B 2429   4.496  11.494  10.158 -0.1870 -0.0851 -0.2911
  152loPI   C2B 2430   4.490  11.409   9.745 -0.2010  0.0794 -0.1073
  152loPI   C3B 2431   4.520  11.419   9.424 -0.1017  0.0341  0.1208
  152loPI   C4B 2432   4.503  11.428   8.926  0.2289  0.3763  0.0722
  153loPI    C1 2433  10.113  14.849  10.714 -0.1878  0.1121  0.0104
  153loPI    C2 2434  10.429  15.094  10.703  0.1571 -0.3241 -0.0636
  153loPI    C3 2435  10.428  14.779  10.950 -0.3688 -0.1422  0.1823
  153loPI   PO4 2436  10.085  14.660  10.480  0.2591 -0.1867  0.0862
  153loPI   GL1 2437  10.205  14.536   9.972  0.4365 -0.2577  0.0502
  153loPI   GL2 2438  10.124  14.334   9.814  0.1855  0.0017 -0.3548
  153loPI   C1A 2439  10.313  14.896   9.846 -0.0800  0.1571  0.3286
  153loPI   C2A 2440  10.372  14.873   9.371 -0.1971 -0.1066  0.1243
  153loPI   C3A 2441  10.399  14.997   8.941  0.1576  0.2610  0.0486
  153loPI   C4A 2442  10.440  14.827   8.529 -0.1941 -0.1585  0.3399
  153loPI   C5A 2443  10.524  14.604   8.245  0.0372 -0.2222 -0.1632
  153loPI   C6A 2444  10.425  14.117   8.123  0.3207 -0.4118  0.2079
  153loPI   C1B 2445  10.233  14.444   9.457 -0.2219  0.2654  0.2820
  153loPI   C2B 2446  10.338  14.493   9.060 -0.2679  0.1523  0.1823
  153loPI   C3B 2447  10.270  14.314   8.608 -0.2308  0.2323 -0.0344
  153loPI   C4B 2448  10.054  14.542   8.218 -0.2327 -0.1031 -0.0172
  154loPI    C1 2449  14.879  11.643  11.169 -0.1073 -0.0693 -0.0386
  154loPI    C2 2450  15.220  11.521  11.339 -0.0611  0.0130 -0.0715
  154loPI    C3 2451  14.920  11.261  11.283 -0.0361 -0.0399  0.0352
  154loPI   PO4 2452  14.923  11.676  10.920 -0.2256  0.3639  0.0392
  154loPI   GL1 2453  14.960  11.764  10.540 -0.0143 -0.2066  0.2210
  154loPI   GL2 2454  14.887  11.488  10.378  0.2113 -0.2440  0.3281
  154loPI   C1A 2455  15.012  11.927  10.166  0.0955  0.3038  0.0322
  154loPI   C2A 2456  15.028  11.949   9.706 -0.0336  0.1457 -0.0390
  154loPI   C3A 2457  15.037  11.873   9.335  0.1284 -0.0830 -0.0678
  154loPI   C4A 2458  15.130  11.976   8.865 -0.1649  0.1266  0.3216
  154loPI   C5A 2459  15.053  11.837   8.516  0.1040  0.2834 -0.2557
  154loPI   C6A 2460  15.126  12.088   8.118 -0.0656  0.1876 -0.1258
  154loPI   C1B 2461  14.833  11.481   9.915  0.1320 -0.1152 -0.2981
  154loPI   C2B 2462  14.864  11.369   9.479  0.0575  0.0939  0.1216
  154loPI   C3B 2463  14.864  11.421   9.000  0.2690  0.3022 -0.0197
  154loPI   C4B 2464  14.770  11.287   8.558 -0.0874  0.0667 -0.0103
  155loPI    C1 2465   2.009   7.748  10.748  0.1993 -0.2665 -0.0700
  155loPI    C2 2466   2.296   7.852  11.006 -0.0685  0.1204  0.0830
  155loPI    C3 2467   1.978   8.089  10.955 -0.3430 -0.2785 -0.1152
  155loPI   PO4 2468   1.998   7.508  10.716 -0.0581 -0.1692 -0.2751
  155loPI   GL1 2469   2.169   7.338  10.358  0.3477  0.0063  0.2183
  155loPI   GL2 2470   1.995   7.611  10.209 -0.2431 -0.0332  0.0989
  155loPI   C1A 2471   2.111   7.218   9.930  0.1029 -0.1978  0.0802
  155loPI   C2A 2472   2.053   7.203   9.503  0.2749 -0.0205 -0.0859
  155loPI   C3A 2473   2.183   7.397   9.173 -0.0258  0.1321  0.0473
  155loPI   C4A 2474   2.241   7.357   8.707 -0.2214 -0.1744  0.0522
  155loPI   C5A 2475   2.271   7.454   8.289 -0.0037 -0.3009  0.0555
  155loPI   C6A 2476   2.230   7.239   7.963 -0.2056  0.2081 -0.0723
  155loPI   C1B 2477   1.799   7.706   9.809  0.1172  0.0290  0.1810
  155loPI   C2B 2478   1.760   7.737   9.402  0.2468 -0.1211  0.0414
  155loPI   C3B 2479   1.895   7.717   8.970  0.3051 -0.0984 -0.0495
  155loPI   C4B 2480   1.835   7.748   8.549  0.0593 -0.2463 -0.0289
  156loPI    C1 2481  13.485   1.874  10.901  0.0498  0.3543 -0.2752
  156loPI    C2 2482  13.613   2.172  11.134 -0.1261 -0.0059  0.3050
  156loPI    C3 2483  13.685   1.792  11.238 -0.3193 -0.1799 -0.1709
  156loPI   PO4 2484  13.537   1.894  10.705 -0.0925  0.1369 -0.1274
  156loPI   GL1 2485  13.367   1.992  10.371  0.1633  0.2428  0.1616
  156loPI   GL2 2486  13.378   2.266  10.364 -0.0836 -0.1832 -0.0950
  156loPI   C1A 2487  13.229   1.888   9.958  0.0030 -0.2786  0.3145
  156loPI   C2A 2488  13.258   2.020   9.485 -0.1578 -0.0522  0.2029
  156loPI   C3A 2489  13.325   1.974   9.016  0.0377  0.0084  0.1188
  156loPI   C4A 2490  13.404   1.976   8.545 -0.3342  0.1702 -0.0112
  156loPI   C5A 2491  13.718   1.774   8.270 -0.0623  0.0489 -0.1089
  156loPI   C6A 2492  14.149   1.707   8.094  0.0761  0.0365  0.1048
  156loPI   C1B 2493  13.449   2.423   9.969  0.2272 -0.1279 -0.1669
  156loPI   C2B 2494  13.443   2.497   9.520  0.3394 -0.3572 -0.0191
  156loPI   C3B 2495  13.469   2.378   9.175  0.0641  0.2236 -0.1790
  156loPI   C4B 2496  13.667   2.413   8.830  0.0885  0.2117 -0.1907
  157loPI    C1 2497  10.756   5.221  11.355 -0.0171 -0.1630  0.1164
  157loPI    C2 2498  10.674   5.105  11.729 -0.0792 -0.1846  0.0963
  157loPI    C3 2499  11.041   5.051  11.579  0.0147  0.0448  0.2370
  157loPI   PO4 2500  10.658   5.041  11.167  0.3479  0.0684 -0.0167
  157loPI   GL1 2501  10.768   4.929  10.729 -0.2458  0.1262  0.0616
  157loPI   GL2 2502  10.505   5.144  10.672 -0.2171  0.0216 -0.0828
  157loPI   C1A 2503  10.797   4.711  10.320 -0.3018 -0.5148  0.1006
  157loPI   C2A 2504  10.741   4.727   9.878  0.2658  0.0168 -0.0688
  157loPI   C3A 2505  10.863   4.624   9.343 -0.2268 -0.2042  0.0914
  157loPI   C4A 2506  10.780   4.670   8.932  0.2406 -0.0619 -0.2603
  157loPI   C5A 2507  10.573   4.826   8.522 -0.0079  0.0208 -0.1507
  157loPI   C6A 2508  10.381   4.887   8.135 -0.0185 -0.0506 -0.0197
  157loPI   C1B 2509  10.431   5.107  10.261 -0.3266 -0.1102 -0.1849
  157loPI   C2B 2510  10.462   5.137   9.798 -0.1624 -0.1718  0.1938
  157loPI   C3B 2511  10.496   5.070   9.399 -0.1136  0.0407  0.3225
  157loPI   C4B 2512  10.461   5.070   8.949 -0.2096  0.2861 -0.0227
  158loPI    C1 2513   6.114  11.548  10.691 -0.1244 -0.3494 -0.2194
  158loPI    C2 2514   6.207  11.250  10.941 -0.2379 -0.1272  0.0942
  158loPI    C3 2515   6.482  11.392  10.687  0.0090 -0.0775  0.3843
  158loPI   PO4 2516   5.911  11.499  10.578  0.1803  0.1898 -0.0208
  158loPI   GL1 2517   5.781  11.244  10.294  0.0257 -0.0039 -0.1319
  158loPI   GL2 2518   5.538  11.579  10.226  0.2059  0.0777  0.2037
  158loPI   C1A 2519   5.864  11.271   9.963  0.0583  0.2989  0.3894
  158loPI   C2A 2520   5.847  11.352   9.582  0.1223 -0.4653 -0.1209
  158loPI   C3A 2521   5.931  11.448   9.175 -0.2723 -0.0101 -0.1252
  158loPI   C4A 2522   5.815  11.140   8.901  0.1194  0.0365  0.0859
  158loPI   C5A 2523   5.888  11.087   8.440  0.1550 -0.0971  0.1407
  158loPI   C6A 2524   5.666  11.290   8.094  0.0151  0.0073  0.0049
  158loPI   C1B 2525   5.436  11.544   9.786  0.0713  0.0449  0.1175
  158loPI   C2B 2526   5.448  11.553   9.377 -0.1605  0.0256 -0.0121
  158loPI   C3B 2527   5.502  11.559   8.971  0.0305 -0.2424  0.0140
  158loPI   C4B 2528   5.795  11.613   8.627 -0.2863  0.1534  0.0904
  159loPI    C1 2529  16.834  11.614  11.122  0.1450  0.1100  0.0595
  159loPI    C2 2530  16.800  12.008  11.180  0.1832  0.1537 -0.2039
  159loPI    C3 2531  16.631  11.753  11.437 -0.0422  0.3439 -0.1600
  159loPI   PO4 2532  16.768  11.588  10.909 -0.0715  0.0787  0.0810
  159loPI   GL1 2533  16.616  11.495  10.639  0.0509 -0.3971  0.2607
  159loPI   GL2 2534  16.691  11.282  10.505 -0.1675 -0.0430  0.1112
  159loPI   C1A 2535  16.406  11.733  10.329 -0.1025  0.2590  0.1006
  159loPI   C2A 2536  16.320  11.691   9.967  0.1446  0.0035 -0.0388
  159loPI   C3A 2537  16.403  11.770   9.524  0.0411  0.0774  0.1031
  159loPI   C4A 2538  16.488  11.693   9.083 -0.0297  0.2030 -0.1963
  159loPI   C5A 2539  16.443  11.815   8.671  0.1679 -0.2014  0.0953
  159loPI   C6A 2540  16.371  11.925   8.177 -0.2347 -0.2046  0.0785
  159loPI   C1B 2541  16.713  11.268  10.044 -0.1789 -0.0443  0.0076
  159loPI   C2B 2542  16.731  11.349   9.592 -0.0641  0.0905 -0.0663
  159loPI   C3B 2543  16.778  11.374   9.238 -0.3294  0.0938  0.2625
  159loPI   C4B 2544  16.797  11.335   8.825 -0.0165 -0.0847  0.1303
  160loPI    C1 2545  10.383   1.979  11.245 -0.0248  0.1539  0.1311
  160loPI    C2 2546  10.635   2.250  11.396  0.2167  0.0265 -0.0375
  160loPI    C3 2547  10.640   1.874  11.533  0.1138  0.0251 -0.0377
  160loPI   PO4 2548  10.504   1.999  10.991  0.1825  0.2666 -0.0314
  160loPI   GL1 2549  10.244   2.062  10.702 -0.0188 -0.1236 -0.0273
  160loPI   GL2 2550  10.251   2.320  10.623 -0.2558 -0.0369  0.1966
  160loPI   C1A 2551  10.445   1.893  10.319 -0.3187 -0.0807 -0.0741
  160loPI   C2A 2552  10.405   1.952   9.834  0.1668 -0.0607 -0.3096
  160loPI   C3A 2553  10.328   1.922   9.354  0.0299  0.0811 -0.1094
  160loPI   C4A 2554  10.186   1.948   8.885 -0.0948 -0.1368  0.1151
  160loPI   C5A 2555  10.070   1.734   8.494 -0.0264  0.0456  0.3153
  160loPI   C6A 2556   9.778   1.594   8.129  0.5855  0.2555  0.0539
  160loPI   C1B 2557  10.462   2.360  10.114  0.0786 -0.1561 -0.0532
  160loPI   C2B 2558  10.518   2.405   9.670 -0.3161  0.2447  0.2078
  160loPI   C3B 2559  10.520   2.426   9.220  0.0757  0.1680  0.2496
  160loPI   C4B 2560  10.380   2.385   8.753 -0.3224  0.0096  0.1008
  161loPI    C1 2561  13.788  12.507  11.218 -0.0207  0.0607  0.1589
  161loPI    C2 2562  14.170  12.417  11.293  0.0102  0.2270  0.2049
  161loPI    C3 2563  13.879  12.245  11.506  0.0459 -0.0720  0.0187
  161loPI   PO4 2564  13.796  12.457  10.915 -0.0795  0.0999  0.3198
  161loPI   GL1 2565  13.965  12.388  10.465 -0.2843 -0.0801  0.1127
  161loPI   GL2 2566  13.777  12.642  10.414 -0.1666  0.1135  0.4337
  161loPI   C1A 2567  14.189  12.300  10.017  0.2245 -0.0142  0.1020
  161loPI   C2A 2568  14.091  12.222   9.677 -0.0036 -0.2944  0.0598
  161loPI   C3A 2569  14.253  12.294   9.310  0.4085  0.1728  0.1030
  161loPI   C4A 2570  14.327  12.159   8.862  0.1646  0.0858  0.1320
  161loPI   C5A 2571  14.236  12.100   8.529 -0.1018  0.1157 -0.0996
  161loPI   C6A 2572  14.167  11.908   8.156 -0.0404 -0.0908  0.0738
  161loPI   C1B 2573  13.817  12.735   9.913 -0.2393  0.4383  0.0501
  161loPI   C2B 2574  13.870  12.701   9.480  0.0579 -0.1395 -0.0821
  161loPI   C3B 2575  13.882  12.678   9.068  0.1712  0.1247  0.2159
  161loPI   C4B 2576  13.828  12.730   8.597  0.1794 -0.1202  0.0059
  162loPI    C1 2577   0.263   6.810  11.041  0.0096  0.1886  0.1620
  162loPI    C2 2578   0.476   6.535  11.238 -0.1539  0.0518  0.1496
  162loPI    C3 2579   0.365   6.872  11.423  0.1251  0.1531  0.1374
  162loPI   PO4 2580   0.392   6.756  10.724  0.0073  0.0423  0.0443
  162loPI   GL1 2581   0.386   6.487  10.375  0.1017  0.1701 -0.0842
  162loPI   GL2 2582   0.457   6.205  10.302  0.1759  0.1249 -0.4101
  162loPI   C1A 2583   0.408   6.581   9.918 -0.0162 -0.1959 -0.0093
  162loPI   C2A 2584   0.438   6.496   9.446 -0.0027  0.0184  0.1567
  162loPI   C3A 2585   0.399   6.475   8.932  0.0058  0.0801 -0.2784
  162loPI   C4A 2586   0.419   6.572   8.483  0.0106 -0.3580  0.1539
  162loPI   C5A 2587   0.544   6.791   8.082  0.1730  0.0469  0.1158
  162loPI   C6A 2588   0.689   6.919   7.727 -0.0853 -0.0093  0.1043
  162loPI   C1B 2589   0.278   6.058   9.952  0.0501  0.0215  0.2241
  162loPI   C2B 2590   0.334   6.033   9.581  0.1435 -0.2141  0.0098
  162loPI   C3B 2591   0.276   5.982   9.180 -0.3321 -0.1236 -0.0108
  162loPI   C4B 2592   0.207   5.987   8.813  0.1449  0.0157 -0.0504
  163loPI    C1 2593   6.425  10.041  10.781 -0.1844 -0.0267 -0.1572
  163loPI    C2 2594   6.234  10.278  11.040 -0.1002 -0.0531 -0.0703
  163loPI    C3 2595   6.248   9.883  11.103  0.0960 -0.0368 -0.0042
  163loPI   PO4 2596   6.330  10.062  10.563 -0.1673 -0.0313 -0.0094
  163loPI   GL1 2597   6.096   9.981  10.189 -0.1541  0.0007  0.0206
  163loPI   GL2 2598   5.839  10.050  10.237  0.2007  0.2094  0.0076
  163loPI   C1A 2599   6.019   9.900   9.800 -0.2529 -0.1319 -0.1459
  163loPI   C2A 2600   6.018   9.807   9.381  0.2763  0.1534  0.1612
  163loPI   C3A 2601   6.036   9.767   8.891  0.4283 -0.0447  0.1264
  163loPI   C4A 2602   6.058   9.749   8.497 -0.2874 -0.2332 -0.0541
  163loPI   C5A 2603   6.313   9.810   8.176 -0.1875  0.2234  0.1085
  163loPI   C6A 2604   6.544   9.632   7.810  0.1665 -0.1133  0.0677
  163loPI   C1B 2605   5.579  10.257   9.913  0.0031  0.2816 -0.0012
  163loPI   C2B 2606   5.624  10.198   9.501  0.0342  0.1878  0.1724
  163loPI   C3B 2607   5.678  10.189   9.041 -0.0509  0.0511 -0.0964
  163loPI   C4B 2608   5.751  10.161   8.618 -0.0209  0.0208 -0.1436
  164loPI    C1 2609   2.343   3.558  10.891  0.0326 -0.1330 -0.0909
  164loPI    C2 2610   2.031   3.800  10.955  0.1780  0.0365 -0.0181
  164loPI    C3 2611   2.284   3.716  11.254  0.3259  0.0760 -0.1311
  164loPI   PO4 2612   2.459   3.670  10.664  0.1769  0.1679 -0.0596
  164loPI   GL1 2613   2.689   3.678  10.233  0.3528 -0.2632 -0.1747
  164loPI   GL2 2614   2.396   3.577  10.104  0.0617 -0.2565  0.3855
  164loPI   C1A 2615   2.784   3.675   9.717  0.0293  0.3103  0.1923
  164loPI   C2A 2616   2.741   3.769   9.326  0.1285 -0.0499  0.1037
  164loPI   C3A 2617   2.801   3.684   8.919 -0.1607 -0.1199  0.1352
  164loPI   C4A 2618   2.758   3.708   8.519  0.0813  0.1358 -0.2055
  164loPI   C5A 2619   3.080   3.705   8.220  0.0716  0.0299 -0.0548
  164loPI   C6A 2620   3.422   3.501   7.906 -0.1158 -0.0223 -0.1324
  164loPI   C1B 2621   2.314   3.562   9.656  0.1260 -0.0682 -0.4300
  164loPI   C2B 2622   2.271   3.597   9.235  0.0848 -0.1459 -0.0343
  164loPI   C3B 2623   2.342   3.667   8.863 -0.1931 -0.0407 -0.0007
  164loPI   C4B 2624   2.275   3.698   8.518 -0.1804  0.1216 -0.2520
  165loPI    C1 2625   9.346   3.187  11.077  0.1946  0.1436  0.0698
  165loPI    C2 2626   9.471   2.883  11.304 -0.0797 -0.0809 -0.0742
  165loPI    C3 2627   9.603   3.253  11.377 -0.0507 -0.1706  0.3574
  165loPI   PO4 2628   9.395   3.150  10.876 -0.0648 -0.0025 -0.0312
  165loPI   GL1 2629   9.377   3.103  10.475  0.0902 -0.2622 -0.0990
  165loPI   GL2 2630   9.561   3.361  10.451 -0.1469 -0.0638  0.4430
  165loPI   C1A 2631   9.299   2.986  10.142 -0.1596  0.0308  0.0475
  165loPI   C2A 2632   9.363   2.999   9.661  0.0927  0.2229 -0.0302
  165loPI   C3A 2633   9.329   3.107   9.304  0.4001  0.1373  0.0585
  165loPI   C4A 2634   9.271   3.237   8.814  0.0612  0.1044  0.0493
  165loPI   C5A 2635   9.461   3.232   8.472  0.2524 -0.2428  0.1139
  165loPI   C6A 2636   9.631   3.030   8.138 -0.0361 -0.1974 -0.0373
  165loPI   C1B 2637   9.536   3.443  10.109 -0.0320 -0.0359 -0.4110
  165loPI   C2B 2638   9.476   3.527   9.656  0.2017 -0.0744 -0.1947
  165loPI   C3B 2639   9.471   3.624   9.203  0.3455 -0.1452  0.2331
  165loPI   C4B 2640   9.526   3.768   8.734 -0.2597  0.1278 -0.1293
  166loPI    C1 2641   4.619   1.594  10.840 -0.1979  0.0843 -0.0103
  166loPI    C2 2642   4.627   1.327  11.138 -0.1821  0.0737 -0.0201
  166loPI    C3 2643   4.285   1.401  10.944 -0.1663 -0.0087 -0.0798
  166loPI   PO4 2644   4.820   1.652  10.765 -0.0242  0.0523  0.1159
  166loPI   GL1 2645   5.057   1.910  10.597 -0.0874  0.2967 -0.0457
  166loPI   GL2 2646   5.392   2.009  10.496  0.0726  0.2579 -0.0944
  166loPI   C1A 2647   5.035   1.957  10.121  0.0346  0.0601 -0.3532
  166loPI   C2A 2648   5.042   1.948   9.716 -0.0981 -0.0752  0.2478
  166loPI   C3A 2649   5.006   1.926   9.321  0.2870  0.1106 -0.1383
  166loPI   C4A 2650   4.951   1.853   8.848 -0.1107  0.0642  0.3852
  166loPI   C5A 2651   4.796   1.791   8.462  0.1928  0.0215 -0.0306
  166loPI   C6A 2652   4.619   1.582   8.139 -0.3155 -0.2016 -0.0748
  166loPI   C1B 2653   5.503   1.880  10.107  0.0260  0.3847  0.1887
  166loPI   C2B 2654   5.547   2.000   9.661  0.1193 -0.0320 -0.1227
  166loPI   C3B 2655   5.540   2.007   9.266  0.1247  0.1789  0.0809
  166loPI   C4B 2656   5.448   1.865   8.813  0.4096  0.1184 -0.2878
  167loPI    C1 2657   8.222   2.557  11.363  0.0607  0.0559 -0.0921
  167loPI    C2 2658   8.073   2.841  11.601  0.0591 -0.1109  0.1086
  167loPI    C3 2659   8.060   2.458  11.715 -0.1409 -0.2177 -0.2568
  167loPI   PO4 2660   8.092   2.623  11.137 -0.2287 -0.0257 -0.2232
  167loPI   GL1 2661   8.167   2.760  10.670 -0.0385  0.1441  0.0373
  167loPI   GL2 2662   7.979   2.570  10.583  0.2021  0.2770  0.1034
  167loPI   C1A 2663   8.260   2.960  10.254 -0.1166 -0.2815  0.2570
  167loPI   C2A 2664   8.298   2.888   9.828  0.2027  0.1142 -0.0018
  167loPI   C3A 2665   8.162   2.865   9.437  0.0733  0.0558 -0.0599
  167loPI   C4A 2666   8.278   2.791   8.982  0.2503  0.0735  0.1978
  167loPI   C5A 2667   8.187   2.856   8.554  0.1191  0.0507 -0.0905
  167loPI   C6A 2668   8.520   2.972   8.220 -0.0355  0.1699  0.0233
  167loPI   C1B 2669   8.034   2.532  10.137 -0.0152 -0.2781  0.2856
  167loPI   C2B 2670   8.048   2.472   9.747 -0.0579  0.1877  0.1144
  167loPI   C3B 2671   8.059   2.383   9.318 -0.0569  0.1832  0.1705
  167loPI   C4B 2672   8.038   2.347   8.904 -0.2015 -0.2648 -0.1167
  168loPI    C1 2673  11.874  10.046  10.592 -0.1015  0.2473  0.0237
  168loPI    C2 2674  11.816  10.208  10.954 -0.1914  0.1487  0.0541
  168loPI    C3 2675  11.624   9.872  10.852 -0.0410  0.0854 -0.0253
  168loPI   PO4 2676  12.047  10.149  10.510 -0.0376  0.3670 -0.1537
  168loPI   GL1 2677  12.025  10.320  10.126 -0.0382 -0.1065  0.1446
  168loPI   GL2 2678  11.866  10.108  10.022 -0.0856  0.0791 -0.0181
  168loPI   C1A 2679  12.027  10.540   9.784 -0.0818  0.1153 -0.0087
  168loPI   C2A 2680  12.173  10.557   9.336  0.0577 -0.1908 -0.0209
  168loPI   C3A 2681  12.164  10.458   8.905  0.0189 -0.1206  0.0485
  168loPI   C4A 2682  12.370  10.310   8.447  0.2317 -0.0665  0.1238
  168loPI   C5A 2683  12.569  10.276   8.132 -0.1979 -0.2640 -0.0586
  168loPI   C6A 2684  12.595  10.539   7.770  0.2414 -0.0819  0.2356
  168loPI   C1B 2685  11.886  10.073   9.499 -0.0062  0.0560  0.1395
  168loPI   C2B 2686  11.936  10.022   9.064  0.1583  0.4035  0.0815
  168loPI   C3B 2687  12.079   9.956   8.651  0.0445  0.0990 -0.0916
  168loPI   C4B 2688  12.042   9.939   8.139 -0.1319  0.0080 -0.2036
  169loPI    C1 2689   7.093   9.617  10.796 -0.2724  0.2477 -0.0064
  169loPI    C2 2690   6.767   9.649  11.026 -0.3659  0.4788 -0.1674
  169loPI    C3 2691   7.118   9.787  11.157 -0.2624 -0.0404  0.1316
  169loPI   PO4 2692   7.088   9.391  10.746  0.1033 -0.0900  0.0698
  169loPI   GL1 2693   6.979   9.332  10.278  0.0437 -0.1973  0.0045
  169loPI   GL2 2694   7.304   9.374  10.125  0.3732 -0.2245  0.0251
  169loPI   C1A 2695   6.968   9.644   9.913 -0.1022  0.1989  0.4249
  169loPI   C2A 2696   6.862   9.549   9.510  0.2772 -0.2015  0.1619
  169loPI   C3A 2697   6.910   9.550   9.078  0.1606 -0.0642  0.0285
  169loPI   C4A 2698   7.007   9.385   8.721 -0.0917 -0.1212 -0.0632
  169loPI   C5A 2699   7.110   9.409   8.283 -0.1427  0.1637  0.0364
  169loPI   C6A 2700   7.028   9.732   7.952 -0.0210 -0.0539  0.4332
  169loPI   C1B 2701   7.208   9.240   9.711 -0.0497  0.1289  0.2550
  169loPI   C2B 2702   7.291   9.138   9.274  0.2841 -0.3412 -0.1216
  169loPI   C3B 2703   7.297   9.011   8.867  0.1980 -0.0141  0.1506
  169loPI   C4B 2704   7.233   8.943   8.549  0.1424  0.2318 -0.1413
  170loPI    C1 2705   5.363  10.159  10.367  0.0243  0.1939 -0.0167
  170loPI    C2 2706   5.326  10.172  10.765 -0.3184  0.1139 -0.0429
  170loPI    C3 2707   5.567  10.431  10.578 -0.1622  0.1578  0.2136
  170loPI   PO4 2708   4.999  10.073  10.370 -0.1482  0.0329 -0.2552
  170loPI   GL1 2709   4.669  10.163  10.079  0.1583  0.1158 -0.0396
  170loPI   GL2 2710   4.757  10.459  10.074 -0.0964  0.1073 -0.0059
  170loPI   C1A 2711   4.581  10.032   9.703 -0.0357 -0.1685  0.1738
  170loPI   C2A 2712   4.539  10.093   9.257 -0.1788 -0.0076  0.1377
  170loPI   C3A 2713   4.606  10.112   8.802 -0.0370 -0.2870 -0.0444
  170loPI   C4A 2714   4.593  10.143   8.323  0.2609 -0.2781 -0.1680
  170loPI   C5A 2715   4.801  10.212   7.935 -0.2692 -0.4439 -0.0111
  170loPI   C6A 2716   4.961  10.145   7.524 -0.0531 -0.3031 -0.0393
  170loPI   C1B 2717   4.695  10.496   9.666  0.2162 -0.0723 -0.0143
  170loPI   C2B 2718   4.697  10.536   9.232 -0.0475  0.1785 -0.1962
  170loPI   C3B 2719   4.732  10.618   8.844 -0.0489  0.1785  0.0500
  170loPI   C4B 2720   4.876  10.536   8.479 -0.1402 -0.4171 -0.0920
  171loPI    C1 2721  16.663   8.343  10.615 -0.2685 -0.0666  0.0306
  171loPI    C2 2722  16.493   8.445  10.963  0.0010 -0.0170  0.1501
  171loPI    C3 2723  16.882   8.516  10.901 -0.0249 -0.1050 -0.1296
  171loPI   PO4 2724  16.471   8.333  10.435  0.0385  0.0774  0.0764
  171loPI   GL1 2725  16.285   8.038  10.069 -0.1034  0.0905  0.1907
  171loPI   GL2 2726  16.016   7.940  10.063 -0.0060  0.2637 -0.0056
  171loPI   C1A 2727  16.376   8.049   9.637 -0.0000 -0.2087  0.2060
  171loPI   C2A 2728  16.471   7.983   9.266  0.0515  0.2776  0.0878
  171loPI   C3A 2729  16.571   8.009   8.859 -0.2352  0.0110  0.3236
  171loPI   C4A 2730  16.503   7.935   8.436  0.2163  0.4006 -0.1281
  171loPI   C5A 2731  16.443   8.217   8.098  0.0335 -0.0368  0.0604
  171loPI   C6A 2732  16.097   8.338   7.852  0.1070 -0.0418  0.0651
  171loPI   C1B 2733  15.917   7.819   9.694 -0.0428 -0.1535  0.0720
  171loPI   C2B 2734  15.988   7.920   9.254 -0.1751 -0.3485 -0.2051
  171loPI   C3B 2735  16.036   7.894   8.842  0.1996 -0.2579  0.0229
  171loPI   C4B 2736  16.045   7.952   8.296  0.2440 -0.1270 -0.2873
  172loPI    C1 2737  10.435   8.670  10.438 -0.0812  0.1716  0.0679
  172loPI    C2 2738  10.359   8.287  10.528  0.0532  0.1276 -0.0030
  172loPI    C3 2739  10.420   8.554  10.820 -0.0675  0.1007  0.0471
  172loPI   PO4 2740  10.513   8.647  10.172  0.1438  0.1776  0.0215
  172loPI   GL1 2741  10.576   8.847   9.737 -0.0240 -0.0470  0.3299
  172loPI   GL2 2742  10.892   8.814   9.599  0.0663 -0.1178  0.1390
  172loPI   C1A 2743  10.514   8.730   9.275  0.0449 -0.1344  0.2000
  172loPI   C2A 2744  10.575   8.790   8.876  0.0554 -0.2407  0.3421
  172loPI   C3A 2745  10.696   8.742   8.419 -0.2203  0.0640 -0.0297
  172loPI   C4A 2746  10.653   8.730   7.988  0.0531  0.1090 -0.0880
  172loPI   C5A 2747  10.951   8.536   7.679 -0.2124  0.1045 -0.0097
  172loPI   C6A 2748  11.334   8.376   7.985  0.1770 -0.3197 -0.2185
  172loPI   C1B 2749  10.895   8.977   9.198 -0.2525  0.1192  0.2910
  172loPI   C2B 2750  11.033   8.860   8.759  0.0300 -0.1900  0.0263
  172loPI   C3B 2751  11.248   8.799   8.349 -0.0895 -0.0492 -0.0728
  172loPI   C4B 2752  11.070   8.948   8.061 -0.1320  0.1274 -0.1386
  173loPI    C1 2753   8.272   9.401  10.644  0.2565  0.0729 -0.1874
  173loPI    C2 2754   8.265   9.050  10.834 -0.1524  0.0089 -0.3101
  173loPI    C3 2755   8.587   9.156  10.623  0.1258 -0.1190  0.0396
  173loPI   PO4 2756   8.037   9.407  10.533 -0.1586  0.0316  0.0233
  173loPI   GL1 2757   7.810   9.422  10.174 -0.2437  0.3711 -0.1594
  173loPI   GL2 2758   8.030   9.607  10.062  0.1286  0.0396  0.0604
  173loPI   C1A 2759   7.733   9.278   9.832  0.1031  0.3593  0.1454
  173loPI   C2A 2760   7.803   9.215   9.381  0.1285 -0.2591 -0.2054
  173loPI   C3A 2761   7.750   9.244   8.977  0.1129 -0.1708  0.0809
  173loPI   C4A 2762   7.687   9.327   8.551  0.1976 -0.0518  0.0419
  173loPI   C5A 2763   7.958   9.191   8.177 -0.0255  0.0178  0.3296
  173loPI   C6A 2764   8.314   9.065   8.065 -0.0838 -0.1866  0.3034
  173loPI   C1B 2765   7.900   9.698   9.592 -0.1893  0.0838  0.0852
  173loPI   C2B 2766   7.878   9.688   9.197 -0.1493  0.0088  0.0916
  173loPI   C3B 2767   7.927   9.726   8.733  0.0315  0.2211  0.1843
  173loPI   C4B 2768   7.810  10.032   8.315 -0.2620  0.3358 -0.1296
  174loPI    C1 2769  14.793   7.311  10.887  0.1707  0.2498 -0.1923
  174loPI    C2 2770  14.772   7.142  11.249  0.3485  0.1349 -0.2342
  174loPI    C3 2771  14.524   7.440  11.152  0.1701  0.0361 -0.0869
  174loPI   PO4 2772  14.741   7.115  10.624  0.0322  0.1474 -0.1231
  174loPI   GL1 2773  14.419   6.901  10.344 -0.1697  0.0917 -0.1171
  174loPI   GL2 2774  14.640   6.924  10.202  0.0764 -0.3007  0.2367
  174loPI   C1A 2775  14.173   6.801  10.014  0.1164  0.3154  0.1244
  174loPI   C2A 2776  14.121   6.812   9.610  0.4342 -0.2145 -0.3315
  174loPI   C3A 2777  14.050   6.695   9.135  0.2639 -0.1619 -0.3463
  174loPI   C4A 2778  14.095   6.671   8.714  0.0494  0.1545  0.3244
  174loPI   C5A 2779  14.095   6.579   8.348 -0.1369  0.0499  0.1518
  174loPI   C6A 2780  14.010   6.271   8.109 -0.0169 -0.1768 -0.0087
  174loPI   C1B 2781  14.655   6.804   9.821  0.3549 -0.3286 -0.2316
  174loPI   C2B 2782  14.641   6.780   9.359 -0.0437  0.0890 -0.3871
  174loPI   C3B 2783  14.678   6.726   8.960 -0.0306  0.1178 -0.1208
  174loPI   C4B 2784  14.581   6.767   8.443 -0.2166 -0.1121 -0.0782
  175loPI    C1 2785  14.477  11.995  11.252  0.2000 -0.2017 -0.0801
  175loPI    C2 2786  14.201  11.864  11.510  0.1159 -0.1592 -0.1481
  175loPI    C3 2787  14.583  11.891  11.623  0.0765 -0.1249 -0.0227
  175loPI   PO4 2788  14.426  11.832  11.049 -0.0271  0.0085  0.0198
  175loPI   GL1 2789  14.124  11.812  10.715  0.0412  0.2517  0.1327
  175loPI   GL2 2790  14.411  11.811  10.529 -0.2728 -0.2114  0.0171
  175loPI   C1A 2791  13.999  11.893  10.304  0.0538  0.0739  0.1631
  175loPI   C2A 2792  13.936  11.780   9.896 -0.3858 -0.0538  0.1089
  175loPI   C3A 2793  14.081  11.764   9.493 -0.1099  0.1989  0.0315
  175loPI   C4A 2794  14.032  11.744   9.094 -0.0535 -0.0321  0.2008
  175loPI   C5A 2795  14.048  11.550   8.789  0.2312  0.0931 -0.2415
  175loPI   C6A 2796  14.243  11.391   8.381 -0.0254  0.0517 -0.1155
  175loPI   C1B 2797  14.525  11.891  10.019  0.4258  0.0693 -0.3569
  175loPI   C2B 2798  14.522  11.986   9.590 -0.3139 -0.1787 -0.1130
  175loPI   C3B 2799  14.615  11.880   9.135 -0.2026 -0.3868 -0.0917
  175loPI   C4B 2800  14.597  11.741   8.736  0.1315 -0.1307 -0.0092
  176loPI    C1 2801   0.185  14.305  11.428 -0.0802  0.0227  0.1685
  176loPI    C2 2802  -0.195  14.190  11.482 -0.1274 -0.0009 -0.1862
  176loPI    C3 2803   0.096  14.032  11.706 -0.3473  0.1697  0.2317
  176loPI   PO4 2804   0.130  14.392  11.114 -0.2183  0.0628  0.1728
  176loPI   GL1 2805   0.344  14.521  10.812 -0.0715 -0.1023 -0.0277
  176loPI   GL2 2806   0.101  14.766  10.731  0.2425  0.4093  0.1243
  176loPI   C1A 2807   0.483  14.437  10.388 -0.0518  0.1745 -0.1333
  176loPI   C2A 2808   0.445  14.390   9.905 -0.0761  0.2629 -0.0151
  176loPI   C3A 2809   0.348  14.358   9.533 -0.0113  0.0904  0.0338
  176loPI   C4A 2810   0.336  14.260   9.149  0.1332 -0.1026 -0.0383
  176loPI   C5A 2811   0.234  14.419   8.717  0.0054  0.0640  0.0108
  176loPI   C6A 2812   0.113  14.606   8.362  0.0782  0.1155 -0.0642
  176loPI   C1B 2813   0.201  14.814  10.353  0.0887  0.0059 -0.2507
  176loPI   C2B 2814   0.068  14.800   9.879 -0.1284 -0.1539  0.0523
  176loPI   C3B 2815   0.005  14.716   9.532  0.0611  0.2848 -0.3609
  176loPI   C4B 2816   0.098  14.698   9.115 -0.0875  0.1421  0.0206
  177loPI    C1 2817   1.270   5.430  10.624 -0.0419 -0.3358 -0.1193
  177loPI    C2 2818   1.206   5.351  11.011  0.2004 -0.1413 -0.0372
  177loPI    C3 2819   1.475   5.138  10.805  0.1797 -0.1454 -0.0600
  177loPI   PO4 2820   0.974   5.509  10.480  0.0061  0.0831  0.0050
  177loPI   GL1 2821   1.038   5.803  10.139  0.3146 -0.2234 -0.3432
  177loPI   GL2 2822   0.876   5.966  10.359 -0.0038  0.1547 -0.1643
  177loPI   C1A 2823   1.105   5.778   9.741  0.2755 -0.0504  0.1524
  177loPI   C2A 2824   1.086   5.697   9.260 -0.1995  0.1404 -0.1834
  177loPI   C3A 2825   1.077   5.678   8.890 -0.1764  0.1422  0.2315
  177loPI   C4A 2826   0.937   5.711   8.509 -0.0809  0.0974  0.1472
  177loPI   C5A 2827   0.701   5.839   8.173 -0.0031 -0.0427 -0.1571
  177loPI   C6A 2828   0.371   6.097   8.283  0.1753  0.1496  0.1110
  177loPI   C1B 2829   0.789   6.181   9.877  0.2379 -0.2987  0.2228
  177loPI   C2B 2830   0.763   6.142   9.480  0.1446  0.1211 -0.1730
  177loPI   C3B 2831   0.858   6.068   9.103 -0.2767 -0.3446 -0.0759
  177loPI   C4B 2832   0.689   6.102   8.692 -0.3539  0.2654  0.2451
  178loPI    C1 2833  10.814   3.810  11.313 -0.0909  0.1772 -0.1716
  178loPI    C2 2834  10.606   3.508  11.472  0.1619  0.0154 -0.1424
  178loPI    C3 2835  10.776   3.781  11.710  0.0698  0.0906 -0.1620
  178loPI   PO4 2836  11.052   3.723  11.177  0.0547  0.0787 -0.1490
  178loPI   GL1 2837  11.091   3.812  10.782  0.1428  0.2500  0.1273
  178loPI   GL2 2838  11.210   3.455  10.764 -0.1897 -0.0005 -0.1810
  178loPI   C1A 2839  11.029   3.780  10.324  0.1752  0.0945 -0.4369
  178loPI   C2A 2840  10.994   3.784   9.955  0.2226  0.3158 -0.1348
  178loPI   C3A 2841  10.963   3.837   9.518 -0.1477  0.1670  0.1542
  178loPI   C4A 2842  11.111   3.828   9.117 -0.1622 -0.0744 -0.0827
  178loPI   C5A 2843  11.172   3.872   8.686  0.2310  0.1181  0.1138
  178loPI   C6A 2844  11.457   3.904   8.372 -0.2561 -0.0106 -0.2775
  178loPI   C1B 2845  11.393   3.385  10.338  0.2308 -0.2686  0.0665
  178loPI   C2B 2846  11.334   3.456   9.914 -0.1753 -0.1366  0.1521
  178loPI   C3B 2847  11.331   3.401   9.489  0.2662 -0.1580 -0.1435
  178loPI   C4B 2848  11.442   3.437   9.090 -0.1592  0.0993  0.1290
  179loPI    C1 2849  17.275  11.331  11.243  0.0364  0.0455  0.0001
  179loPI    C2 2850  17.182  11.659  11.452  0.2808 -0.0786  0.3117
  179loPI    C3 2851  17.202  11.304  11.635 -0.1365 -0.2998 -0.0525
  179loPI   PO4 2852  17.322  11.442  10.988 -0.3953 -0.1081  0.0237
  179loPI   GL1 2853  17.156  11.452  10.661 -0.3104  0.0973  0.1738
  179loPI   GL2 2854  17.090  11.727  10.574 -0.0851 -0.1855  0.0748
  179loPI   C1A 2855  17.285  11.271  10.256  0.0269  0.1673 -0.0205
  179loPI   C2A 2856  17.212  11.297   9.870  0.1033  0.0039  0.1243
  179loPI   C3A 2857  17.224  11.351   9.435 -0.1130  0.0556 -0.2104
  179loPI   C4A 2858  17.362  11.407   8.987  0.1504  0.0793 -0.0506
  179loPI   C5A 2859  17.500  11.487   8.556  0.0090 -0.0198 -0.2899
  179loPI   C6A 2860  17.875  11.772   8.431  0.2331  0.0407 -0.0344
  179loPI   C1B 2861  16.954  11.724  10.251  0.1697  0.3250 -0.0524
  179loPI   C2B 2862  16.848  11.742   9.828  0.0647  0.3222 -0.1666
  179loPI   C3B 2863  16.924  11.838   9.396 -0.0671  0.1233  0.0232
  179loPI   C4B 2864  16.972  11.790   8.991  0.3713  0.1284  0.2531
  180loPI    C1 2865   0.875   2.344  10.599 -0.0650 -0.1259  0.1811
  180loPI    C2 2866   0.844   1.947  10.552 -0.2780 -0.0951  0.0496
  180loPI    C3 2867   1.142   2.100  10.772  0.0811 -0.3042 -0.2791
  180loPI   PO4 2868   0.702   2.417  10.375  0.0262 -0.3740 -0.2574
  180loPI   GL1 2869   0.803   2.380   9.967 -0.1081 -0.0657 -0.0250
  180loPI   GL2 2870   0.989   2.082  10.115  0.1839  0.0962  0.3692
  180loPI   C1A 2871   0.793   2.330   9.519  0.0335 -0.1467  0.2002
  180loPI   C2A 2872   0.725   2.376   9.018 -0.1505 -0.1305  0.3068
  180loPI   C3A 2873   0.804   2.446   8.683  0.0217 -0.0427  0.0508
  180loPI   C4A 2874   0.792   2.572   8.273 -0.1188  0.1450  0.3920
  180loPI   C5A 2875   0.729   2.411   7.841 -0.0057 -0.0935  0.2617
  180loPI   C6A 2876   0.555   2.684   7.576  0.5944 -0.3039  0.2560
  180loPI   C1B 2877   1.134   1.995   9.559 -0.2044 -0.0936 -0.1601
  180loPI   C2B 2878   1.077   2.031   9.149  0.2214 -0.0352 -0.2215
  180loPI   C3B 2879   1.104   2.103   8.785 -0.1565  0.4924  0.1185
  180loPI   C4B 2880   1.093   2.160   8.305 -0.0333  0.4306  0.3294
  181loPI    C1 2881   3.245   8.583  10.945  0.2733  0.1390 -0.0132
  181loPI    C2 2882   3.274   8.294  11.220  0.0344  0.1066 -0.0201
  181loPI    C3 2883   3.174   8.666  11.330  0.0635  0.1224 -0.0470
  181loPI   PO4 2884   3.127   8.398  10.710  0.2672 -0.1947  0.1806
  181loPI   GL1 2885   2.809   8.280  10.477  0.1607 -0.1872  0.0213
  181loPI   GL2 2886   3.032   8.224  10.248  0.2117  0.2345  0.3607
  181loPI   C1A 2887   2.551   8.268  10.040 -0.0033  0.1211  0.0707
  181loPI   C2A 2888   2.487   8.294   9.587  0.0985 -0.1010 -0.1586
  181loPI   C3A 2889   2.548   8.321   9.097 -0.2121  0.0618 -0.0537
  181loPI   C4A 2890   2.485   8.351   8.665  0.0645 -0.2384 -0.0911
  181loPI   C5A 2891   2.216   8.532   8.245  0.0932 -0.0438  0.1834
  181loPI   C6A 2892   2.163   8.327   7.817 -0.2552  0.0685 -0.0251
  181loPI   C1B 2893   2.949   8.322   9.755  0.1946  0.0150  0.0480
  181loPI   C2B 2894   3.087   8.364   9.312  0.4792 -0.0959  0.0702
  181loPI   C3B 2895   3.070   8.349   8.986 -0.0436  0.0190  0.1853
  181loPI   C4B 2896   3.052   8.439   8.560  0.0927 -0.0032 -0.1038
  182loPI    C1 2897  12.004   5.753  11.358  0.0927 -0.2848 -0.0086
  182loPI    C2 2898  11.754   5.443  11.394 -0.2838 -0.0027 -0.1315
  182loPI    C3 2899  11.640   5.807  11.514  0.0722  0.1314 -0.1870
  182loPI   PO4 2900  12.070   5.676  11.101  0.0073 -0.1137 -0.1135
  182loPI   GL1 2901  11.906   5.698  10.724  0.1510 -0.1602  0.0944
  182loPI   GL2 2902  11.702   5.735  10.505  0.2304  0.3410  0.2100
  182loPI   C1A 2903  12.150   5.908  10.386 -0.0562  0.1015  0.3005
  182loPI   C2A 2904  12.303   5.863   9.971 -0.0846  0.1899 -0.2266
  182loPI   C3A 2905  12.351   5.919   9.472 -0.3109  0.0173  0.2199
  182loPI   C4A 2906  12.307   5.884   9.037 -0.3104 -0.1645  0.0812
  182loPI   C5A 2907  12.318   5.965   8.542  0.1709  0.4539 -0.3278
  182loPI   C6A 2908  12.473   5.930   8.141 -0.2123 -0.1305  0.2031
  182loPI   C1B 2909  11.695   5.755  10.109  0.1905  0.0198  0.4625
  182loPI   C2B 2910  11.676   5.828   9.665  0.1485 -0.0196  0.0977
  182loPI   C3B 2911  11.724   5.784   9.205  0.0657  0.1738 -0.0750
  182loPI   C4B 2912  11.880   5.856   8.737 -0.1474 -0.0038  0.1968
  183loPI    C1 2913   7.592   1.845  11.118 -0.1175  0.0193 -0.0554
  183loPI    C2 2914   7.291   1.979  11.346 -0.1690 -0.0654 -0.0735
  183loPI    C3 2915   7.590   1.770  11.511 -0.1455 -0.0240 -0.0637
  183loPI   PO4 2916   7.605   2.050  10.863  0.0794 -0.3523 -0.0161
  183loPI   GL1 2917   7.825   2.043  10.472  0.0362 -0.1168 -0.2358
  183loPI   GL2 2918   8.184   2.081  10.320 -0.1203  0.1897 -0.2460
  183loPI   C1A 2919   7.810   1.984  10.068 -0.1242 -0.0285 -0.0795
  183loPI   C2A 2920   7.846   1.944   9.614 -0.1923 -0.0312  0.1561
  183loPI   C3A 2921   7.978   1.889   9.201  0.1181 -0.1142  0.3474
  183loPI   C4A 2922   7.824   1.907   8.695 -0.5098  0.0170 -0.2008
  183loPI   C5A 2923   7.892   2.242   8.422  0.1370  0.0425 -0.1774
  183loPI   C6A 2924   7.872   2.503   8.008  0.1619 -0.0195 -0.0311
  183loPI   C1B 2925   8.352   2.058   9.942  0.0261 -0.0680  0.0829
  183loPI   C2B 2926   8.373   2.022   9.465  0.0111  0.0469  0.0160
  183loPI   C3B 2927   8.396   1.976   8.949  0.0922  0.3629  0.0736
  183loPI   C4B 2928   8.387   1.830   8.532  0.1260  0.3098  0.0155
  184loPI    C1 2929  11.647  15.013  11.077 -0.0089  0.2346 -0.2029
  184loPI    C2 2930  11.565  15.159  11.441  0.0498 -0.0216 -0.0841
  184loPI    C3 2931  11.274  14.997  11.220  0.0553 -0.0629 -0.0611
  184loPI   PO4 2932  11.820  15.059  10.878  0.0883  0.0199 -0.0105
  184loPI   GL1 2933  11.809  15.077  10.448  0.1692 -0.0612 -0.0637
  184loPI   GL2 2934  11.810  14.733  10.438  0.2806  0.0749 -0.1374
  184loPI   C1A 2935  11.932  15.106  10.010  0.0930 -0.1535  0.1792
  184loPI   C2A 2936  11.931  15.042   9.574  0.2011 -0.1251 -0.1928
  184loPI   C3A 2937  11.907  15.087   9.117  0.1125  0.1520 -0.1767
  184loPI   C4A 2938  11.847  14.966   8.718  0.3304  0.1576 -0.4609
  184loPI   C5A 2939  11.772  14.818   8.299 -0.1304  0.2735 -0.1324
  184loPI   C6A 2940  11.718  14.929   7.934 -0.0766  0.1077  0.1769
  184loPI   C1B 2941  11.789  14.619   9.976  0.1307 -0.0307 -0.3863
  184loPI   C2B 2942  11.753  14.566   9.563 -0.0317  0.1968 -0.1241
  184loPI   C3B 2943  11.856  14.552   9.073  0.0796  0.0248 -0.1677
  184loPI   C4B 2944  11.827  14.467   8.716 -0.2233  0.0021  0.0694
  185loPI    C1 2945   0.338  17.183  10.881 -0.0702 -0.0284 -0.0764
  185loPI    C2 2946   0.518  17.475  11.086  0.0327 -0.2541  0.1613
  185loPI    C3 2947   0.210  17.278  11.248  0.0522 -0.3693  0.0596
  185loPI   PO4 2948   0.263  17.297  10.632 -0.3302  0.1134 -0.0927
  185loPI   GL1 2949   0.111  17.252  10.255 -0.0508  0.0319 -0.2647
  185loPI   GL2 2950   0.193  17.576  10.182 -0.3007  0.2209 -0.2695
  185loPI   C1A 2951  -0.272  17.480  10.012  0.1316  0.0384 -0.2036
  185loPI   C2A 2952  -0.410  17.429   9.774 -0.1938  0.1729 -0.1109
  185loPI   C3A 2953  -0.365  17.416   9.395  0.0531  0.1042 -0.0026
  185loPI   C4A 2954  -0.381  17.541   8.960 -0.1761 -0.0789 -0.1224
  185loPI   C5A 2955  -0.281  17.409   8.571 -0.3421  0.0061  0.2169
  185loPI   C6A 2956  -0.207  17.494   8.202  0.1409 -0.2175  0.0855
  185loPI   C1B 2957   0.179  17.465   9.800  0.0103  0.0229 -0.0882
  185loPI   C2B 2958   0.140  17.502   9.388 -0.1555  0.1915  0.1088
  185loPI   C3B 2959   0.133  17.556   8.901 -0.1221 -0.2896  0.4826
  185loPI   C4B 2960   0.233  17.631   8.423  0.0839  0.2170  0.3407
  186loPI    C1 2961  14.330   6.888  10.842 -0.3888  0.1889  0.1565
  186loPI    C2 2962  14.172   6.535  10.740 -0.0175  0.0891 -0.0941
  186loPI    C3 2963  14.253   6.615  11.123  0.0885 -0.1818 -0.0578
  186loPI   PO4 2964  14.162   7.085  10.725  0.1295 -0.0921 -0.1752
  186loPI   GL1 2965  14.084   7.235  10.328 -0.0853  0.0025  0.0404
  186loPI   GL2 2966  14.247   7.328  10.103  0.2032  0.2138  0.1339
  186loPI   C1A 2967  13.733   7.113  10.012 -0.1979  0.0228 -0.0436
  186loPI   C2A 2968  13.654   7.114   9.621  0.0181  0.1372 -0.1737
  186loPI   C3A 2969  13.706   7.061   9.262 -0.0114 -0.2208 -0.1494
  186loPI   C4A 2970  13.684   7.069   8.798  0.4206 -0.2549 -0.1912
  186loPI   C5A 2971  13.721   7.004   8.448 -0.2118 -0.3328 -0.1274
  186loPI   C6A 2972  13.924   6.946   7.982  0.0167 -0.0080  0.2722
  186loPI   C1B 2973  14.152   7.299   9.715 -0.0725 -0.2204  0.0150
  186loPI   C2B 2974  14.280   7.145   9.269 -0.0005  0.1316 -0.0318
  186loPI   C3B 2975  14.297   7.085   8.851  0.2463  0.1564  0.2203
  186loPI   C4B 2976  14.250   7.229   8.488 -0.1200 -0.0522 -0.0282
  187loPI    C1 2977  12.406   8.044  10.832  0.1083 -0.1102  0.0021
  187loPI    C2 2978  12.683   7.966  11.109  0.1500  0.0199 -0.0021
  187loPI    C3 2979  12.528   8.333  11.080 -0.1947 -0.1090  0.1543
  187loPI   PO4 2980  12.508   7.941  10.645  0.0357  0.0931  0.0836
  187loPI   GL1 2981  12.547   7.981  10.255 -0.1397 -0.0279  0.3804
  187loPI   GL2 2982  12.549   8.249  10.177  0.1507  0.1412  0.1486
  187loPI   C1A 2983  12.535   7.678   9.929 -0.1646 -0.1993  0.0614
  187loPI   C2A 2984  12.530   7.693   9.391 -0.0998 -0.0364  0.1771
  187loPI   C3A 2985  12.626   7.733   8.938 -0.1820 -0.0404  0.0235
  187loPI   C4A 2986  12.705   7.671   8.523  0.2902 -0.0623 -0.0105
  187loPI   C5A 2987  12.559   7.560   8.109  0.0111 -0.4224  0.3584
  187loPI   C6A 2988  12.536   7.433   7.765  0.2088  0.0638 -0.1047
  187loPI   C1B 2989  12.533   8.122   9.689 -0.1848 -0.2239 -0.1648
  187loPI   C2B 2990  12.769   8.206   9.250 -0.2420 -0.5068 -0.0712
  187loPI   C3B 2991  12.853   8.252   8.803 -0.0403 -0.0771 -0.0616
  187loPI   C4B 2992  12.845   8.285   8.432  0.1144  0.0710  0.1172
  188loPI    C1 2993   1.550   2.009  10.550 -0.0412 -0.2688  0.1894
  188loPI    C2 2994   1.652   2.316  10.786  0.4595 -0.1352 -0.1826
  188loPI    C3 2995   1.661   1.943  10.929  0.0541 -0.0044  0.2102
  188loPI   PO4 2996   1.411   2.186  10.368  0.0884  0.2337 -0.1784
  188loPI   GL1 2997   1.392   2.256   9.899 -0.1878 -0.0319 -0.1871
  188loPI   GL2 2998   1.362   2.471   9.722  0.2642 -0.0233  0.0147
  188loPI   C1A 2999   1.643   2.109   9.509  0.0518  0.1423  0.0642
  188loPI   C2A 3000   1.602   2.095   9.089 -0.1544 -0.3104 -0.0837
  188loPI   C3A 3001   1.584   2.182   8.623 -0.2127 -0.2052 -0.0207
  188loPI   C4A 3002   1.559   2.286   8.199  0.1602 -0.1020 -0.0437
  188loPI   C5A 3003   1.707   2.571   7.886 -0.0515 -0.3048  0.1989
  188loPI   C6A 3004   1.549   2.760   7.551 -0.1619  0.1495  0.3458
  188loPI   C1B 3005   1.273   2.457   9.324  0.0285  0.1547 -0.0956
  188loPI   C2B 3006   1.396   2.499   8.945 -0.1568 -0.1539 -0.1551
  188loPI   C3B 3007   1.286   2.586   8.537 -0.3802 -0.2840 -0.0023
  188loPI   C4B 3008   1.303   2.662   8.134  0.0216 -0.1868 -0.0535
  189loPI    C1 3009   5.056  12.909  11.066  0.0143  0.0751 -0.1887
  189loPI    C2 3010   4.778  13.113  11.270  0.0015 -0.0578 -0.0719
  189loPI    C3 3011   5.041  12.883  11.465  0.0866 -0.0654 -0.1946
  189loPI   PO4 3012   4.962  12.992  10.763  0.0165  0.0254 -0.0433
  189loPI   GL1 3013   5.210  12.922  10.372 -0.2899  0.0317 -0.1529
  189loPI   GL2 3014   5.381  13.271  10.254 -0.1924  0.0224  0.3213
  189loPI   C1A 3015   5.186  12.915   9.940 -0.1350  0.0963  0.0416
  189loPI   C2A 3016   5.127  12.827   9.445 -0.0915 -0.0034 -0.2335
  189loPI   C3A 3017   5.161  12.855   8.959  0.0328 -0.2915 -0.1343
  189loPI   C4A 3018   5.023  12.925   8.505  0.2301 -0.1983 -0.1276
  189loPI   C5A 3019   4.702  12.841   8.253  0.1198  0.1026  0.1888
  189loPI   C6A 3020   4.510  12.826   7.883 -0.1390  0.0362 -0.3051
  189loPI   C1B 3021   5.408  13.386   9.827  0.1199  0.0515  0.0559
  189loPI   C2B 3022   5.321  13.372   9.382 -0.4088 -0.2504  0.0570
  189loPI   C3B 3023   5.348  13.390   8.958  0.2414  0.3037 -0.0839
  189loPI   C4B 3024   5.352  13.366   8.544  0.2997  0.0613  0.0902
  190loPI    C1 3025  15.691  16.896  11.135  0.1145  0.0838 -0.1823
  190loPI    C2 3026  15.710  17.279  11.248  0.2739  0.0195  0.0138
  190loPI    C3 3027  15.658  16.992  11.522  0.3129 -0.1114 -0.1146
  190loPI   PO4 3028  15.718  16.925  10.870  0.0051 -0.1614  0.0411
  190loPI   GL1 3029  15.651  17.248  10.543 -0.0086 -0.0775  0.1032
  190loPI   GL2 3030  15.864  17.560  10.426  0.1961  0.2444  0.2823
  190loPI   C1A 3031  15.451  17.086  10.188  0.3735  0.0030 -0.2813
  190loPI   C2A 3032  15.522  16.980   9.908 -0.0207  0.0564  0.1407
  190loPI   C3A 3033  15.562  17.049   9.559  0.0858  0.0330  0.0538
  190loPI   C4A 3034  15.592  17.075   9.226 -0.1590 -0.2226 -0.0611
  190loPI   C5A 3035  15.590  17.125   8.716 -0.2311 -0.3801 -0.0116
  190loPI   C6A 3036  15.808  17.315   8.381  0.0989  0.2283 -0.1266
  190loPI   C1B 3037  15.761  17.586  10.040 -0.2359  0.0696 -0.0590
  190loPI   C2B 3038  15.735  17.539   9.624  0.0715  0.1950  0.0272
  190loPI   C3B 3039  15.780  17.504   9.215 -0.1518 -0.0704  0.1807
  190loPI   C4B 3040  15.788  17.657   8.784  0.0765  0.3674  0.0634
  191loPI    C1 3041  14.618  16.267  10.970  0.1853 -0.0871  0.0686
  191loPI    C2 3042  14.508  16.637  11.076 -0.2358 -0.1923  0.0162
  191loPI    C3 3043  14.597  16.367  11.357 -0.0057 -0.0762  0.0568
  191loPI   PO4 3044  14.418  16.203  10.827  0.3109  0.1282 -0.1756
  191loPI   GL1 3045  14.436  16.049  10.357 -0.0906 -0.3916  0.3050
  191loPI   GL2 3046  14.685  15.902  10.255 -0.2413 -0.1379 -0.1245
  191loPI   C1A 3047  14.183  15.883  10.035  0.0749 -0.2264 -0.0351
  191loPI   C2A 3048  14.171  15.958   9.615  0.0789 -0.0997 -0.0257
  191loPI   C3A 3049  14.143  16.005   9.187 -0.2954  0.1291 -0.2420
  191loPI   C4A 3050  14.091  16.027   8.774 -0.3390  0.1473 -0.0009
  191loPI   C5A 3051  14.146  15.881   8.354 -0.0673  0.1718  0.1892
  191loPI   C6A 3052  13.835  15.735   8.130  0.0468  0.1359  0.1168
  191loPI   C1B 3053  14.731  15.946   9.803  0.2375 -0.0963 -0.0097
  191loPI   C2B 3054  14.589  16.030   9.399  0.1573  0.0240 -0.1726
  191loPI   C3B 3055  14.620  16.049   8.989  0.0959 -0.2172  0.0165
  191loPI   C4B 3056  14.557  16.147   8.586  0.1236  0.1192 -0.1926
  192loPI    C1 3057  13.920  16.235  11.010  0.0436 -0.0452  0.1451
  192loPI    C2 3058  13.953  16.628  11.077  0.0134  0.0196 -0.2055
  192loPI    C3 3059  14.112  16.368  11.335 -0.0221  0.2591  0.0629
  192loPI   PO4 3060  13.783  16.275  10.681 -0.0095 -0.2008 -0.0361
  192loPI   GL1 3061  13.896  16.349  10.311  0.0484 -0.1529  0.0527
  192loPI   GL2 3062  13.619  16.562  10.184 -0.0948  0.1390  0.1354
  192loPI   C1A 3063  13.942  16.317   9.916 -0.3915 -0.1496 -0.0679
  192loPI   C2A 3064  13.847  16.332   9.446 -0.2435 -0.0073  0.0226
  192loPI   C3A 3065  13.722  16.349   9.010 -0.2878  0.0029  0.0424
  192loPI   C4A 3066  13.799  16.460   8.504 -0.0423 -0.1452 -0.1159
  192loPI   C5A 3067  13.640  16.664   8.128 -0.0142  0.0861 -0.1243
  192loPI   C6A 3068  13.497  16.945   7.857 -0.0846 -0.1292  0.1227
  192loPI   C1B 3069  13.608  16.691   9.800  0.2304  0.0033 -0.1894
  192loPI   C2B 3070  13.507  16.684   9.368  0.0817 -0.2484  0.2805
  192loPI   C3B 3071  13.459  16.764   8.965 -0.0233  0.2138  0.1413
  192loPI   C4B 3072  13.426  16.898   8.573  0.4702  0.3778 -0.0087
  193loPI    C1 3073   4.784   0.277  10.764 -0.0064  0.0840  0.2033
  193loPI    C2 3074   4.689   0.001  11.038  0.0410 -0.0454  0.0905
  193loPI    C3 3075   4.769   0.376  11.151 -0.0121 -0.0803  0.2461
  193loPI   PO4 3076   4.625   0.235  10.578  0.0429 -0.1317  0.3106
  193loPI   GL1 3077   4.435   0.237  10.218  0.1428 -0.3415 -0.0491
  193loPI   GL2 3078   4.358  -0.086  10.153 -0.1129  0.1687  0.2172
  193loPI   C1A 3079   4.324   0.396   9.779 -0.0021  0.2420  0.2506
  193loPI   C2A 3080   4.434   0.394   9.310 -0.0878  0.2159 -0.5093
  193loPI   C3A 3081   4.313   0.295   8.887  0.0889  0.0436 -0.0233
  193loPI   C4A 3082   4.290   0.311   8.436 -0.3800 -0.0875 -0.0814
  193loPI   C5A 3083   4.234   0.092   8.039  0.2777  0.1868  0.1184
  193loPI   C6A 3084   4.020   0.198   7.579  0.2076 -0.0521 -0.0215
  193loPI   C1B 3085   4.325  -0.109   9.809 -0.2117 -0.0542 -0.0856
  193loPI   C2B 3086   4.267  -0.049   9.311 -0.0223  0.2732 -0.1231
  193loPI   C3B 3087   4.146  -0.200   8.906  0.2609  0.3327 -0.3643
  193loPI   C4B 3088   4.152  -0.170   8.515 -0.1084  0.0239 -0.0373
  194loPI    C1 3089  10.865  17.889  10.707  0.0364  0.0178  0.0156
  194loPI    C2 3090  10.752  17.540  10.867 -0.2655  0.0626 -0.0945
  194loPI    C3 3091  10.613  17.884  11.018 -0.2380  0.1205 -0.2007
  194loPI   PO4 3092  10.866  17.943  10.392 -0.2732 -0.1487 -0.2422
  194loPI   GL1 3093  10.960  17.729  10.067 -0.0455 -0.2575 -0.0203
  194loPI   GL2 3094  11.312  17.665  10.031 -0.1136 -0.1586 -0.0407
  194loPI   C1A 3095  10.969  17.808   9.629  0.2536  0.0262 -0.1568
  194loPI   C2A 3096  11.100  17.703   9.229 -0.4898 -0.1174 -0.1876
  194loPI   C3A 3097  10.929  17.743   8.828 -0.2701  0.0028  0.0686
  194loPI   C4A 3098  10.757  17.599   8.433 -0.1407 -0.1838 -0.1354
  194loPI   C5A 3099  10.492  17.315   8.122  0.2857  0.3418  0.0792
  194loPI   C6A 3100  10.128  17.186   8.101 -0.1696 -0.0432  0.0321
  194loPI   C1B 3101  11.499  17.776   9.667  0.0140 -0.0565  0.1081
  194loPI   C2B 3102  11.582  17.820   9.242  0.0935  0.3111 -0.2244
  194loPI   C3B 3103  11.437  17.858   8.776 -0.0565  0.1626  0.0748
  194loPI   C4B 3104  11.354  17.866   8.371  0.1601 -0.1721  0.3975
  195loPI    C1 3105   4.490  13.504  11.044  0.1807  0.0274 -0.1185
  195loPI    C2 3106   4.498  13.774  11.339  0.0503 -0.1816  0.0796
  195loPI    C3 3107   4.147  13.649  11.191  0.1158 -0.0161 -0.2252
  195loPI   PO4 3108   4.566  13.481  10.756  0.1743 -0.0884 -0.2976
  195loPI   GL1 3109   4.874  13.341  10.437  0.1128 -0.0644  0.1630
  195loPI   GL2 3110   4.655  13.121  10.418  0.2844  0.1502 -0.1543
  195loPI   C1A 3111   4.922  13.370  10.036 -0.0111  0.2731  0.0604
  195loPI   C2A 3112   4.918  13.239   9.694  0.1967 -0.1950  0.0533
  195loPI   C3A 3113   4.856  13.264   9.223  0.2041  0.0471  0.2865
  195loPI   C4A 3114   4.818  13.291   8.814 -0.0420  0.1721  0.0254
  195loPI   C5A 3115   4.794  13.382   8.425  0.0065  0.3015  0.1102
  195loPI   C6A 3116   5.085  13.340   8.085 -0.0123  0.2335  0.1076
  195loPI   C1B 3117   4.633  12.978  10.124  0.1440 -0.2004  0.3994
  195loPI   C2B 3118   4.600  12.802   9.665 -0.2225  0.1819  0.0615
  195loPI   C3B 3119   4.656  12.805   9.132  0.0167  0.0468  0.1650
  195loPI   C4B 3120   4.577  12.789   8.746 -0.0847 -0.0875 -0.1162
  196loPI    C1 3121   3.515  12.979  11.082 -0.0551 -0.1739 -0.0103
  196loPI    C2 3122   3.799  12.835  11.323 -0.0360 -0.3051 -0.1098
  196loPI    C3 3123   3.452  12.639  11.283 -0.0703 -0.2409 -0.1274
  196loPI   PO4 3124   3.681  13.036  10.824 -0.1092 -0.0538 -0.0928
  196loPI   GL1 3125   3.625  13.106  10.504  0.1474  0.2529 -0.1097
  196loPI   GL2 3126   3.344  13.082  10.349 -0.0649 -0.3243  0.1940
  196loPI   C1A 3127   3.782  13.219  10.114  0.0503 -0.0625  0.0923
  196loPI   C2A 3128   3.815  13.187   9.625  0.2562  0.0764 -0.0700
  196loPI   C3A 3129   3.730  13.080   9.217  0.1828 -0.0270 -0.2029
  196loPI   C4A 3130   3.698  13.137   8.750 -0.0611  0.0669 -0.1109
  196loPI   C5A 3131   3.896  13.148   8.384  0.2805 -0.1895 -0.0018
  196loPI   C6A 3132   4.243  13.155   8.088 -0.0773 -0.0654  0.1602
  196loPI   C1B 3133   3.301  13.106   9.944 -0.0308 -0.0394  0.2574
  196loPI   C2B 3134   3.309  13.041   9.545 -0.3841 -0.1376  0.0681
  196loPI   C3B 3135   3.217  13.116   9.126 -0.2134  0.0749 -0.0647
  196loPI   C4B 3136   3.179  13.015   8.780 -0.0040  0.0391  0.0366
  197loPI    C1 3137  15.858   6.807  10.643  0.0016  0.2011 -0.1624
  197loPI    C2 3138  15.695   7.013  10.944 -0.2081 -0.3167  0.0912
  197loPI    C3 3139  16.043   6.824  10.997 -0.0113 -0.0295 -0.1427
  197loPI   PO4 3140  15.553   6.716  10.532 -0.3675  0.0700 -0.3502
  197loPI   GL1 3141  15.530   6.841  10.155  0.1930  0.2677 -0.0716
  197loPI   GL2 3142  15.148   6.864   9.975 -0.1218  0.1210 -0.4936
  197loPI   C1A 3143  15.566   6.955   9.731  0.1050 -0.0032 -0.0824
  197loPI   C2A 3144  15.699   6.939   9.309 -0.3817 -0.1904  0.0256
  197loPI   C3A 3145  15.614   6.906   8.886 -0.2623 -0.1198 -0.2280
  197loPI   C4A 3146  15.719   6.831   8.409 -0.1492 -0.0155 -0.1234
  197loPI   C5A 3147  15.741   6.767   7.938  0.0591  0.2565  0.3446
  197loPI   C6A 3148  15.480   6.966   7.607  0.1775  0.1980 -0.2225
  197loPI   C1B 3149  15.127   6.816   9.533 -0.0700  0.1559 -0.1172
  197loPI   C2B 3150  15.144   6.842   9.143  0.3899 -0.1736 -0.1440
  197loPI   C3B 3151  15.058   6.744   8.655 -0.3431  0.0652 -0.2106
  197loPI   C4B 3152  15.350   6.638   8.230  0.1581 -0.1756 -0.0334
  198loPI    C1 3153   3.230   7.414  10.970  0.0973  0.0845 -0.0078
  198loPI    C2 3154   3.309   7.664  11.272 -0.2098  0.3437 -0.1367
  198loPI    C3 3155   3.159   7.302  11.348  0.4130  0.1150  0.0630
  198loPI   PO4 3156   3.126   7.458  10.795  0.4006  0.0580 -0.1910
  198loPI   GL1 3157   2.923   7.716  10.449 -0.2226  0.0360 -0.0927
  198loPI   GL2 3158   3.238   7.769  10.368 -0.0514 -0.2952  0.0655
  198loPI   C1A 3159   2.771   7.794  10.063  0.0617  0.0576  0.0096
  198loPI   C2A 3160   2.878   7.835   9.653  0.1178 -0.0339 -0.0472
  198loPI   C3A 3161   2.873   7.934   9.243 -0.0130  0.0301 -0.3255
  198loPI   C4A 3162   2.819   7.860   8.822 -0.1383  0.0935 -0.0349
  198loPI   C5A 3163   2.799   8.049   8.377  0.0356  0.0008  0.3168
  198loPI   C6A 3164   2.669   8.339   8.148  0.1608 -0.0546 -0.0311
  198loPI   C1B 3165   3.324   8.016   9.918 -0.1430 -0.0408 -0.2770
  198loPI   C2B 3166   3.410   8.009   9.525  0.1220  0.0173 -0.0341
  198loPI   C3B 3167   3.345   7.995   9.040 -0.1230  0.0780 -0.1398
  198loPI   C4B 3168   3.347   8.053   8.663 -0.0755  0.0448  0.0299
  199loPI    C1 3169   0.449   3.156  10.826 -0.3730  0.1492  0.2977
  199loPI    C2 3170   0.582   3.528  10.886  0.0003  0.0566  0.0813
  199loPI    C3 3171   0.711   3.230  11.119 -0.1526  0.0301  0.1336
  199loPI   PO4 3172   0.470   3.200  10.562 -0.2617  0.2552 -0.3480
  199loPI   GL1 3173   0.498   3.178  10.094 -0.1038  0.0937  0.0178
  199loPI   GL2 3174   0.412   2.878  10.041 -0.2520  0.2805  0.1216
  199loPI   C1A 3175   0.235   3.274   9.770  0.2863 -0.1523 -0.0300
  199loPI   C2A 3176   0.180   3.089   9.332 -0.0220  0.1451 -0.0183
  199loPI   C3A 3177   0.092   3.261   8.897 -0.1263  0.1655  0.1338
  199loPI   C4A 3178   0.174   3.282   8.480 -0.3638  0.1767  0.0522
  199loPI   C5A 3179   0.077   3.421   8.157 -0.3714  0.1016 -0.2277
  199loPI   C6A 3180   0.082   3.521   7.743  0.0500 -0.2146 -0.0757
  199loPI   C1B 3181   0.486   2.743   9.593  0.0480  0.0736 -0.0464
  199loPI   C2B 3182   0.409   2.697   9.183  0.1868 -0.1177  0.1681
  199loPI   C3B 3183   0.480   2.914   8.892 -0.1084 -0.2627 -0.2758
  199loPI   C4B 3184   0.513   2.911   8.546  0.0912 -0.0788  0.0491
  200loPI    C1 3185   2.361  13.402  11.135  0.1109 -0.1491  0.1109
  200loPI    C2 3186   2.035  13.500  11.345  0.1743  0.1327  0.0814
  200loPI    C3 3187   2.392  13.488  11.524  0.1808  0.0450  0.0632
  200loPI   PO4 3188   2.346  13.468  10.933 -0.3106 -0.0299 -0.2014
  200loPI   GL1 3189   2.149  13.327  10.569  0.1721  0.1769 -0.1226
  200loPI   GL2 3190   2.481  13.444  10.453 -0.2261  0.1115  0.1289
  200loPI   C1A 3191   2.009  13.308  10.156  0.2126  0.0587 -0.0534
  200loPI   C2A 3192   1.925  13.267   9.669  0.1193  0.1110 -0.3116
  200loPI   C3A 3193   1.913  13.269   9.249  0.2577  0.1326 -0.2676
  200loPI   C4A 3194   1.799  13.135   8.804  0.0199 -0.2189 -0.1144
  200loPI   C5A 3195   1.897  13.447   8.570  0.1758 -0.1939  0.0650
  200loPI   C6A 3196   1.846  13.726   8.167  0.1802  0.0565  0.1318
  200loPI   C1B 3197   2.481  13.395  10.009 -0.1171 -0.0074  0.2093
  200loPI   C2B 3198   2.456  13.366   9.607 -0.1810  0.1639  0.2846
  200loPI   C3B 3199   2.383  13.425   9.127 -0.1411  0.1727  0.2518
  200loPI   C4B 3200   2.353  13.253   8.682 -0.1490  0.2118  0.1561
  201loPI    C1 3201  10.893   1.618  11.080 -0.1022 -0.0679 -0.0025
  201loPI    C2 3202  10.969   2.003  11.158 -0.4821  0.0141 -0.0176
  201loPI    C3 3203  11.138   1.718  11.381  0.0074  0.1754 -0.1691
  201loPI   PO4 3204  10.908   1.649  10.810  0.0654 -0.0141  0.0308
  201loPI   GL1 3205  10.926   1.959  10.551 -0.1136  0.1145 -0.0946
  201loPI   GL2 3206  10.825   2.286  10.686  0.0034  0.1301 -0.0461
  201loPI   C1A 3207  10.919   1.882  10.171 -0.2001  0.2357 -0.1680
  201loPI   C2A 3208  10.908   2.020   9.762 -0.0198  0.0732 -0.0284
  201loPI   C3A 3209  10.905   2.015   9.262  0.0998  0.1974  0.0792
  201loPI   C4A 3210  10.678   1.977   8.882 -0.0262  0.3470  0.3233
  201loPI   C5A 3211  10.490   2.007   8.468 -0.2533  0.0138 -0.2610
  201loPI   C6A 3212  10.536   2.151   8.065  0.0498  0.3118  0.0132
  201loPI   C1B 3213  11.028   2.355  10.251 -0.0643 -0.0232  0.4039
  201loPI   C2B 3214  11.054   2.486   9.787  0.0654 -0.1075 -0.1413
  201loPI   C3B 3215  10.976   2.513   9.342 -0.2549  0.0899 -0.1434
  201loPI   C4B 3216  11.093   2.513   8.930 -0.4669  0.0235 -0.1750
  202loPI    C1 3217  17.682   2.854  10.543 -0.1294  0.0339 -0.0508
  202loPI    C2 3218  17.994   3.075  10.423  0.0794 -0.0443  0.3334
  202loPI    C3 3219  17.942   2.995  10.812 -0.3764 -0.1034  0.2662
  202loPI   PO4 3220  17.666   2.692  10.457 -0.3010 -0.2700  0.1432
  202loPI   GL1 3221  17.846   2.747  10.060 -0.1283 -0.0061  0.1540
  202loPI   GL2 3222  17.463   2.734   9.912 -0.0537  0.3187  0.0982
  202loPI   C1A 3223  17.982   2.720   9.707 -0.0062  0.3057  0.2110
  202loPI   C2A 3224  17.895   2.663   9.309  0.2531  0.1011  0.2555
  202loPI   C3A 3225  17.975   2.778   8.897  0.0078 -0.1109 -0.0414
  202loPI   C4A 3226  17.985   2.825   8.449  0.1549  0.0490 -0.0350
  202loPI   C5A 3227  18.146   2.853   8.078  0.0955  0.3361  0.0667
  202loPI   C6A 3228  18.311   3.130   7.822  0.1929  0.0366  0.1932
  202loPI   C1B 3229  17.419   2.692   9.501  0.0491 -0.2207  0.0562
  202loPI   C2B 3230  17.404   2.551   9.136 -0.1332 -0.1125 -0.1822
  202loPI   C3B 3231  17.428   2.685   8.714  0.1027  0.1787 -0.3455
  202loPI   C4B 3232  17.290   2.486   8.338  0.1158  0.2141  0.4401
  203loPI    C1 3233  12.674  10.757  10.916 -0.2384  0.1705 -0.3044
  203loPI    C2 3234  12.359  10.606  11.110  0.1734 -0.1131  0.1682
  203loPI    C3 3235  12.613  10.849  11.301  0.2074  0.1725 -0.2289
  203loPI   PO4 3236  12.511  10.811  10.672  0.2353 -0.1393  0.1526
  203loPI   GL1 3237  12.633  10.892  10.245  0.2455  0.0638 -0.0239
  203loPI   GL2 3238  12.814  11.047  10.085  0.2255  0.3121 -0.0260
  203loPI   C1A 3239  12.532  10.662   9.785  0.1249 -0.0172  0.2282
  203loPI   C2A 3240  12.616  10.697   9.377  0.0615 -0.0649 -0.2364
  203loPI   C3A 3241  12.735  10.557   8.964 -0.2322 -0.1691  0.0588
  203loPI   C4A 3242  12.854  10.396   8.571 -0.1541 -0.1832 -0.2297
  203loPI   C5A 3243  13.099  10.536   8.205 -0.2559 -0.0676 -0.1212
  203loPI   C6A 3244  13.441  10.816   7.972 -0.1762 -0.3425 -0.1016
  203loPI   C1B 3245  12.709  11.169   9.620  0.0169  0.1134 -0.1162
  203loPI   C2B 3246  12.858  11.078   9.137  0.2953  0.0397  0.1247
  203loPI   C3B 3247  12.814  10.934   8.643  0.0325 -0.0308 -0.0070
  203loPI   C4B 3248  12.715  10.795   8.234 -0.0421 -0.0059  0.1407
  204loPI    C1 3249   8.241   7.953  10.969  0.1107  0.1919  0.2426
  204loPI    C2 3250   8.161   7.618  11.173  0.2515  0.0337  0.0417
  204loPI    C3 3251   8.404   7.894  11.330  0.2146 -0.0035  0.1654
  204loPI   PO4 3252   8.194   7.783  10.657  0.1457  0.1325 -0.0761
  204loPI   GL1 3253   8.093   7.576  10.258  0.1211 -0.0324  0.2775
  204loPI   GL2 3254   8.140   7.385  10.343  0.0712  0.0604 -0.0689
  204loPI   C1A 3255   8.015   7.417   9.767 -0.3097  0.0396 -0.4051
  204loPI   C2A 3256   8.100   7.440   9.396  0.0731 -0.0371  0.2275
  204loPI   C3A 3257   7.992   7.294   9.046  0.0278  0.2040  0.0592
  204loPI   C4A 3258   8.054   7.423   8.607  0.3412 -0.3320 -0.0517
  204loPI   C5A 3259   8.262   7.466   8.212 -0.0479 -0.1333 -0.0057
  204loPI   C6A 3260   8.281   7.235   7.875  0.3881 -0.3517  0.1752
  204loPI   C1B 3261   8.362   7.180   9.994 -0.0521  0.0203  0.1739
  204loPI   C2B 3262   8.385   7.104   9.580  0.0048  0.1607  0.1968
  204loPI   C3B 3263   8.304   6.945   9.111 -0.0955  0.3829 -0.1321
  204loPI   C4B 3264   8.316   7.038   8.676  0.0422  0.0883 -0.1733
  205loPI    C1 3265  15.104  13.873  11.373 -0.0225 -0.0442 -0.1017
  205loPI    C2 3266  15.342  13.800  11.686 -0.0218 -0.0249 -0.0977
  205loPI    C3 3267  15.003  14.006  11.736  0.1348  0.2539 -0.1638
  205loPI   PO4 3268  15.222  14.024  11.152 -0.1150 -0.3140 -0.3496
  205loPI   GL1 3269  15.377  13.939  10.825 -0.1285  0.0318 -0.0902
  205loPI   GL2 3270  15.552  14.269  10.675  0.0836 -0.1310 -0.0523
  205loPI   C1A 3271  15.253  13.825  10.452  0.2265 -0.0729 -0.0192
  205loPI   C2A 3272  15.211  13.806   9.972  0.0145  0.0216 -0.0969
  205loPI   C3A 3273  15.293  13.808   9.603 -0.3252 -0.0517  0.0832
  205loPI   C4A 3274  15.307  13.830   9.195 -0.1721 -0.0238 -0.1537
  205loPI   C5A 3275  15.173  13.938   8.759  0.0381  0.0994  0.0986
  205loPI   C6A 3276  15.257  13.733   8.402  0.2159  0.1618  0.0294
  205loPI   C1B 3277  15.399  14.267  10.309 -0.0966 -0.1676 -0.0538
  205loPI   C2B 3278  15.440  14.296   9.895  0.2436 -0.2056 -0.0835
  205loPI   C3B 3279  15.446  14.325   9.465  0.2120 -0.1263 -0.0150
  205loPI   C4B 3280  15.389  14.272   9.016 -0.1231 -0.1550 -0.0280
  206loPI    C1 3281   3.559   3.133  10.782  0.2111 -0.0883 -0.0008
  206loPI    C2 3282   3.270   2.912  10.949  0.1009 -0.0429 -0.1297
  206loPI    C3 3283   3.177   3.249  10.754  0.2688  0.1261  0.0769
  206loPI   PO4 3284   3.698   2.987  10.621  0.0979 -0.2782 -0.0585
  206loPI   GL1 3285   3.595   3.039  10.186 -0.0324  0.0677  0.0869
  206loPI   GL2 3286   3.376   2.833  10.044  0.0277  0.0722  0.0074
  206loPI   C1A 3287   3.941   3.029   9.808 -0.2759  0.2154  0.1135
  206loPI   C2A 3288   3.963   2.983   9.368  0.3803 -0.2567  0.2373
  206loPI   C3A 3289   3.914   2.977   8.899 -0.2583  0.1266  0.1975
  206loPI   C4A 3290   3.932   2.891   8.490 -0.1770 -0.0961 -0.3876
  206loPI   C5A 3291   3.744   2.655   8.180 -0.0910 -0.1664 -0.3456
  206loPI   C6A 3292   3.266   2.739   8.088 -0.1898  0.0732  0.1163
  206loPI   C1B 3293   3.450   2.927   9.553 -0.0459  0.6214  0.0453
  206loPI   C2B 3294   3.413   2.826   9.135  0.1281  0.1369  0.2060
  206loPI   C3B 3295   3.224   2.814   8.765  0.0302  0.0085  0.1443
  206loPI   C4B 3296   3.409   3.005   8.435  0.4608 -0.0087 -0.0877
  207loPI    C1 3297   3.971   5.756  10.644  0.0457  0.0641  0.1275
  207loPI    C2 3298   4.228   6.012  10.812 -0.2007  0.5015 -0.1432
  207loPI    C3 3299   3.906   5.891  11.014 -0.0345  0.3259  0.0203
  207loPI   PO4 3300   3.844   5.769  10.481  0.2921  0.0506  0.1404
  207loPI   GL1 3301   3.701   6.087  10.163 -0.1708 -0.0012  0.0986
  207loPI   GL2 3302   3.382   6.247  10.240  0.0453 -0.1688  0.7503
  207loPI   C1A 3303   3.963   6.200   9.732  0.1076  0.1561 -0.1745
  207loPI   C2A 3304   3.966   6.136   9.364 -0.0801  0.3634 -0.0013
  207loPI   C3A 3305   3.765   6.194   9.031  0.1050  0.0419  0.0880
  207loPI   C4A 3306   3.606   6.258   8.581 -0.0698  0.2685  0.3230
  207loPI   C5A 3307   3.440   6.064   8.272  0.1134  0.0109 -0.2684
  207loPI   C6A 3308   3.265   5.836   7.937 -0.0696  0.0547 -0.0772
  207loPI   C1B 3309   3.180   6.015   9.931  0.0682 -0.1435 -0.1649
  207loPI   C2B 3310   3.120   6.035   9.447  0.1074 -0.3303 -0.1749
  207loPI   C3B 3311   3.192   6.079   9.027 -0.2432  0.2077  0.1774
  207loPI   C4B 3312   3.057   6.124   8.607  0.0759 -0.0583  0.1080
  208loPI    C1 3313  17.483   1.056  10.866  0.1969  0.1390  0.0550
  208loPI    C2 3314  17.835   1.245  10.875  0.0764  0.3759 -0.1079
  208loPI    C3 3315  17.521   1.398  11.069  0.0256  0.2418 -0.0836
  208loPI   PO4 3316  17.413   0.992  10.590  0.2938 -0.0424  0.1254
  208loPI   GL1 3317  17.352   0.953  10.189  0.1248  0.0520  0.2945
  208loPI   GL2 3318  17.131   0.729  10.062 -0.2999  0.0490  0.3403
  208loPI   C1A 3319  17.396   1.346   9.927  0.1836 -0.0498 -0.0383
  208loPI   C2A 3320  17.415   1.314   9.507  0.0211 -0.1695 -0.1120
  208loPI   C3A 3321  17.393   1.307   9.128  0.0561  0.1187 -0.2723
  208loPI   C4A 3322  17.328   1.273   8.658  0.1113  0.1625  0.0819
  208loPI   C5A 3323  17.262   1.273   8.198 -0.0754  0.1401 -0.0155
  208loPI   C6A 3324  17.393   1.204   7.816  0.1199 -0.1948  0.1469
  208loPI   C1B 3325  17.205   0.756   9.600  0.0283 -0.0402 -0.1639
  208loPI   C2B 3326  17.216   0.827   9.247 -0.1371  0.2186 -0.3009
  208loPI   C3B 3327  17.090   0.787   8.788 -0.0500  0.2588 -0.0525
  208loPI   C4B 3328  17.212   0.777   8.406  0.2746  0.1586  0.2284
  209loPI    C1 3329  17.116   3.494  10.767  0.0170 -0.0706 -0.0955
  209loPI    C2 3330  16.937   3.250  11.029  0.0058 -0.0699 -0.1025
  209loPI    C3 3331  17.190   3.531  11.158  0.1991 -0.2366 -0.1125
  209loPI   PO4 3332  17.004   3.435  10.530 -0.0716  0.3861 -0.0760
  209loPI   GL1 3333  17.080   3.591  10.101 -0.1028 -0.0499 -0.0867
  209loPI   GL2 3334  17.339   3.664   9.846 -0.0631  0.2544 -0.1019
  209loPI   C1A 3335  16.838   3.477   9.707  0.3804 -0.3541  0.0381
  209loPI   C2A 3336  16.773   3.379   9.283 -0.0835 -0.0262  0.1756
  209loPI   C3A 3337  16.698   3.435   8.863  0.0009 -0.0138 -0.0055
  209loPI   C4A 3338  16.711   3.432   8.418 -0.3011 -0.0629 -0.0091
  209loPI   C5A 3339  16.554   3.333   7.983  0.0755  0.1322  0.2851
  209loPI   C6A 3340  16.503   3.209   7.533  0.2229 -0.2610 -0.1439
  209loPI   C1B 3341  17.269   3.538   9.417  0.2276 -0.1107 -0.1087
  209loPI   C2B 3342  17.213   3.520   8.995 -0.2742 -0.1862  0.2825
  209loPI   C3B 3343  17.335   3.513   8.546 -0.0945  0.4300 -0.0671
  209loPI   C4B 3344  17.178   3.325   8.103  0.0600 -0.1486 -0.2569
  210loPI    C1 3345  11.125   9.715  10.428 -0.1686 -0.0297  0.0028
  210loPI    C2 3346  10.977  10.016  10.210 -0.0337  0.1671  0.1790
  210loPI    C3 3347  10.851   9.961  10.586  0.0130  0.0622  0.1794
  210loPI   PO4 3348  11.111   9.491  10.264 -0.1848  0.2325 -0.1901
  210loPI   GL1 3349  11.290   9.392   9.919 -0.1597 -0.2831  0.0709
  210loPI   GL2 3350  11.058   9.323   9.781 -0.0321  0.0515 -0.1106
  210loPI   C1A 3351  11.689   9.459   9.723 -0.0442 -0.2071 -0.2494
  210loPI   C2A 3352  11.848   9.572   9.381 -0.2603  0.1508  0.1710
  210loPI   C3A 3353  11.912   9.566   8.876 -0.1507 -0.0157  0.0734
  210loPI   C4A 3354  11.884   9.432   8.508 -0.0051 -0.1992  0.1556
  210loPI   C5A 3355  11.983   9.376   8.127 -0.0079  0.0782 -0.1581
  210loPI   C6A 3356  11.774   9.596   7.877  0.0833 -0.0066 -0.2256
  210loPI   C1B 3357  11.126   9.439   9.414  0.1256  0.2441 -0.4616
  210loPI   C2B 3358  11.089   9.373   9.026 -0.1210  0.0111  0.0626
  210loPI   C3B 3359  11.308   9.409   8.653 -0.3064  0.0648  0.1076
  210loPI   C4B 3360  11.472   9.221   8.236  0.1769  0.1514  0.3190
  211loPI    C1 3361   5.289   5.031  10.707  0.1477 -0.1818 -0.0428
  211loPI    C2 3362   5.403   4.761  10.980  0.0162  0.1008  0.3006
  211loPI    C3 3363   5.014   4.818  10.905  0.0438  0.1870  0.2207
  211loPI   PO4 3364   5.410   5.062  10.496  0.0568 -0.1351 -0.1026
  211loPI   GL1 3365   5.335   5.137  10.089  0.0115 -0.1460  0.1981
  211loPI   GL2 3366   5.484   5.504  10.088  0.0541  0.0694 -0.0513
  211loPI   C1A 3367   5.195   5.178   9.692 -0.0259  0.1352 -0.4148
  211loPI   C2A 3368   5.264   5.103   9.332  0.0339  0.0133  0.1142
  211loPI   C3A 3369   5.261   5.098   8.897 -0.1976  0.3915 -0.2503
  211loPI   C4A 3370   5.228   5.044   8.441  0.1487 -0.0966  0.0112
  211loPI   C5A 3371   5.111   5.168   7.969  0.1568 -0.0495  0.2050
  211loPI   C6A 3372   5.183   5.188   7.500 -0.0917 -0.1541  0.1226
  211loPI   C1B 3373   5.511   5.594   9.649  0.1693  0.0123  0.0430
  211loPI   C2B 3374   5.379   5.610   9.290 -0.1261 -0.1294  0.0052
  211loPI   C3B 3375   5.338   5.580   8.829 -0.2101  0.0576  0.0526
  211loPI   C4B 3376   5.242   5.564   8.333 -0.1192 -0.0937  0.0667
  212loPI    C1 3377   1.747   6.144  10.968 -0.0769 -0.1640 -0.2057
  212loPI    C2 3378   1.377   6.212  11.103 -0.1030  0.0263 -0.3692
  212loPI    C3 3379   1.685   6.207  11.358 -0.1940  0.0530 -0.2577
  212loPI   PO4 3380   1.682   6.263  10.728  0.2259 -0.0328 -0.0963
  212loPI   GL1 3381   1.779   6.280  10.328 -0.1228 -0.0706 -0.0168
  212loPI   GL2 3382   1.867   6.570  10.321 -0.1723  0.1051 -0.0960
  212loPI   C1A 3383   1.817   6.329   9.809 -0.3003 -0.0292 -0.2643
  212loPI   C2A 3384   1.762   6.294   9.425 -0.1376  0.2140  0.1794
  212loPI   C3A 3385   1.827   6.344   8.980  0.0938 -0.1195  0.2687
  212loPI   C4A 3386   1.741   6.357   8.512 -0.1980 -0.0721 -0.0813
  212loPI   C5A 3387   1.974   6.664   8.209  0.1039 -0.0885  0.1966
  212loPI   C6A 3388   1.958   7.040   8.319  0.0107  0.1947 -0.0355
  212loPI   C1B 3389   1.982   6.753   9.960  0.1481  0.0978  0.0528
  212loPI   C2B 3390   1.868   6.766   9.555 -0.0390 -0.2908 -0.4921
  212loPI   C3B 3391   1.925   6.806   9.209  0.2627  0.1389  0.0882
  212loPI   C4B 3392   1.935   6.781   8.751 -0.0799 -0.1191 -0.2723
  213loPI    C1 3393   3.893  14.933  10.607 -0.0033  0.2959 -0.1483
  213loPI    C2 3394   4.108  15.270  10.619  0.2355  0.1451 -0.1139
  213loPI    C3 3395   4.081  15.039  10.944  0.1908  0.0581 -0.1791
  213loPI   PO4 3396   3.543  14.959  10.506  0.1662  0.2461 -0.1659
  213loPI   GL1 3397   3.401  14.912  10.106 -0.0123 -0.1390  0.0373
  213loPI   GL2 3398   3.193  14.854  10.106  0.1210  0.0462 -0.2007
  213loPI   C1A 3399   3.467  14.892   9.635  0.1053  0.0575 -0.1816
  213loPI   C2A 3400   3.512  14.920   9.190  0.0101 -0.0976  0.1586
  213loPI   C3A 3401   3.491  14.867   8.706 -0.1911 -0.0458  0.2585
  213loPI   C4A 3402   3.428  15.119   8.366  0.0265  0.1229 -0.2757
  213loPI   C5A 3403   3.177  15.109   7.902 -0.0741  0.1182 -0.3025
  213loPI   C6A 3404   3.025  15.137   7.453  0.0526  0.2210 -0.0085
  213loPI   C1B 3405   2.988  14.806   9.781  0.1591 -0.1081 -0.0819
  213loPI   C2B 3406   3.034  14.844   9.361  0.2837 -0.1092  0.0400
  213loPI   C3B 3407   2.935  14.793   8.935  0.1472 -0.0418 -0.0500
  213loPI   C4B 3408   3.005  14.735   8.496  0.1003 -0.0433 -0.2617
  214loPI    C1 3409   7.954   0.428  10.788  0.0718 -0.2267  0.0166
  214loPI    C2 3410   7.664   0.439  11.063  0.1493 -0.1678  0.0963
  214loPI    C3 3411   8.042   0.367  11.173  0.2223  0.1171  0.0404
  214loPI   PO4 3412   7.991   0.621  10.625  0.1923 -0.0073 -0.0412
  214loPI   GL1 3413   8.189   0.535  10.263  0.0040 -0.2571  0.2960
  214loPI   GL2 3414   8.243   0.256  10.110 -0.1343  0.1878  0.1158
  214loPI   C1A 3415   8.372   0.638   9.837 -0.4046 -0.2306 -0.0360
  214loPI   C2A 3416   8.366   0.602   9.508  0.1322 -0.0506 -0.1686
  214loPI   C3A 3417   8.345   0.644   9.033 -0.2036  0.2182  0.0506
  214loPI   C4A 3418   8.314   0.643   8.598  0.1409  0.0486 -0.1644
  214loPI   C5A 3419   8.204   0.521   8.198 -0.0682 -0.2289 -0.0281
  214loPI   C6A 3420   8.362   0.746   7.914 -0.0657  0.0350  0.0886
  214loPI   C1B 3421   8.184   0.154   9.684  0.1328 -0.2083  0.0758
  214loPI   C2B 3422   8.194   0.182   9.192  0.1989  0.2997 -0.1214
  214loPI   C3B 3423   8.125   0.139   8.718 -0.1015 -0.1046 -0.0033
  214loPI   C4B 3424   8.162   0.015   8.242  0.0514 -0.0241 -0.0237
  215loPI    C1 3425  15.991  15.395  11.359 -0.0084  0.1726  0.2064
  215loPI    C2 3426  15.726  15.601  11.577 -0.1103 -0.0074  0.2546
  215loPI    C3 3427  15.667  15.212  11.505  0.1008 -0.0302  0.1977
  215loPI   PO4 3428  16.069  15.593  11.241  0.0090 -0.2327  0.0359
  215loPI   GL1 3429  16.001  15.605  10.842  0.0539  0.1152 -0.0568
  215loPI   GL2 3430  15.839  15.322  10.764 -0.2107 -0.1098  0.1309
  215loPI   C1A 3431  16.073  15.670  10.442  0.0568  0.0024 -0.0117
  215loPI   C2A 3432  16.141  15.795  10.060 -0.2269  0.0944 -0.0798
  215loPI   C3A 3433  16.076  15.828   9.640  0.1602 -0.1530  0.1998
  215loPI   C4A 3434  16.024  15.841   9.153 -0.1216  0.2038  0.1353
  215loPI   C5A 3435  15.913  15.615   8.675  0.0808 -0.0246  0.0421
  215loPI   C6A 3436  15.999  15.515   8.250 -0.0766  0.0978 -0.0150
  215loPI   C1B 3437  15.833  15.170  10.370 -0.0003 -0.2565 -0.4134
  215loPI   C2B 3438  15.795  15.226   9.973  0.1383 -0.0114 -0.0740
  215loPI   C3B 3439  15.809  15.345   9.522 -0.0786  0.0019 -0.4059
  215loPI   C4B 3440  15.817  15.333   9.101  0.4063 -0.2322 -0.1162
  216loPI    C1 3441  11.125   4.651  11.283 -0.1323  0.0826  0.2114
  216loPI    C2 3442  11.050   4.293  11.445  0.0038  0.0526  0.2100
  216loPI    C3 3443  11.239   4.574  11.659  0.0811  0.0526  0.1422
  216loPI   PO4 3444  10.990   4.623  11.087  0.0476 -0.1937 -0.0090
  216loPI   GL1 3445  11.143   4.519  10.648  0.2020  0.2492 -0.1331
  216loPI   GL2 3446  11.210   4.829  10.474 -0.0380  0.2879  0.1199
  216loPI   C1A 3447  11.103   4.254  10.290  0.3054  0.1610  0.0281
  216loPI   C2A 3448  11.159   4.251   9.850  0.0591 -0.1666  0.2256
  216loPI   C3A 3449  11.190   4.273   9.422 -0.2225 -0.1170 -0.0259
  216loPI   C4A 3450  11.226   4.312   8.940  0.1846 -0.0792  0.2593
  216loPI   C5A 3451  11.130   4.600   8.531  0.2011 -0.1706  0.0069
  216loPI   C6A 3452  11.467   4.365   8.194  0.0644 -0.1024  0.1657
  216loPI   C1B 3453  11.248   4.777  10.031 -0.0439 -0.2934  0.1398
  216loPI   C2B 3454  11.361   4.818   9.658 -0.2628  0.3270  0.0329
  216loPI   C3B 3455  11.336   4.740   9.222  0.2365 -0.1086  0.3427
  216loPI   C4B 3456  11.369   4.910   8.799 -0.1860  0.1002 -0.1305
  217loPI    C1 3457  13.970   7.779  10.599  0.1961  0.0452 -0.1742
  217loPI    C2 3458  14.173   7.910  10.917 -0.1340 -0.0359  0.0764
  217loPI    C3 3459  14.021   7.540  10.916 -0.4438  0.0885 -0.0244
  217loPI   PO4 3460  14.068   7.749  10.436  0.0514 -0.0223 -0.3276
  217loPI   GL1 3461  14.095   7.885  10.143  0.1167 -0.3400  0.1033
  217loPI   GL2 3462  14.191   8.267   9.979 -0.1268  0.1375 -0.3170
  217loPI   C1A 3463  14.315   7.736   9.768 -0.1171 -0.0636 -0.0181
  217loPI   C2A 3464  14.381   7.661   9.363  0.1087  0.0718  0.2976
  217loPI   C3A 3465  14.478   7.589   8.850  0.1242 -0.1593 -0.1763
  217loPI   C4A 3466  14.576   7.636   8.395  0.2366 -0.0338  0.0286
  217loPI   C5A 3467  14.726   7.686   7.982  0.2902 -0.0868 -0.0526
  217loPI   C6A 3468  14.530   7.521   7.651 -0.2258  0.1188 -0.0857
  217loPI   C1B 3469  14.082   8.097   9.630  0.0304 -0.2216  0.2424
  217loPI   C2B 3470  14.092   8.062   9.148 -0.0884 -0.0548  0.0669
  217loPI   C3B 3471  14.166   7.987   8.722 -0.1079  0.2081 -0.0927
  217loPI   C4B 3472  14.132   7.751   8.265  0.1217 -0.1129 -0.1656
  218loPI    C1 3473  12.341   2.326  10.947 -0.3192  0.3583 -0.0141
  218loPI    C2 3474  12.118   2.356  11.278 -0.4044 -0.1969 -0.0114
  218loPI    C3 3475  12.404   2.078  11.254 -0.1240  0.1043 -0.2545
  218loPI   PO4 3476  12.183   2.372  10.715 -0.0987  0.1865 -0.1609
  218loPI   GL1 3477  12.053   2.218  10.237  0.0556  0.3023 -0.2174
  218loPI   GL2 3478  12.294   2.239  10.220  0.1650 -0.0388 -0.0061
  218loPI   C1A 3479  11.894   2.185   9.794 -0.0876  0.0016  0.1398
  218loPI   C2A 3480  11.886   2.247   9.355 -0.1594  0.0973 -0.1560
  218loPI   C3A 3481  11.930   2.141   8.950  0.1940  0.3364 -0.1236
  218loPI   C4A 3482  11.777   2.083   8.560  0.1041  0.1751 -0.2999
  218loPI   C5A 3483  11.578   1.882   8.145 -0.0178 -0.0970  0.0725
  218loPI   C6A 3484  11.368   1.611   8.019  0.1204  0.0992 -0.1032
  218loPI   C1B 3485  12.435   2.237   9.792  0.0597 -0.0363 -0.1087
  218loPI   C2B 3486  12.398   2.263   9.362 -0.0646  0.2655  0.1422
  218loPI   C3B 3487  12.542   2.273   8.966 -0.1926 -0.2065 -0.1534
  218loPI   C4B 3488  12.562   2.391   8.458 -0.2067 -0.1440 -0.3379
  219loPI    C1 3489  11.384  16.198  10.836 -0.0825  0.0524  0.0641
  219loPI    C2 3490  11.455  16.465  11.126  0.0780  0.1483 -0.0613
  219loPI    C3 3491  11.334  16.095  11.219  0.0433  0.2050  0.1227
  219loPI   PO4 3492  11.219  16.281  10.695 -0.0701 -0.3120 -0.2853
  219loPI   GL1 3493  10.954  16.345  10.202 -0.1435 -0.3749  0.0575
  219loPI   GL2 3494  10.757  16.407  10.055 -0.0139  0.0486  0.2650
  219loPI   C1A 3495  11.106  16.284   9.792 -0.2132 -0.0387  0.1237
  219loPI   C2A 3496  11.041  16.356   9.354  0.5095  0.3768 -0.0739
  219loPI   C3A 3497  10.971  16.311   8.985 -0.0089 -0.0828 -0.3052
  219loPI   C4A 3498  11.047  16.389   8.543  0.0505  0.2860  0.1265
  219loPI   C5A 3499  11.116  16.535   8.145 -0.1240  0.2177  0.0709
  219loPI   C6A 3500  11.007  16.632   7.683  0.3343  0.0697  0.2238
  219loPI   C1B 3501  10.752  16.623   9.671  0.3255 -0.0149 -0.2377
  219loPI   C2B 3502  10.754  16.751   9.243 -0.1044 -0.0871 -0.0296
  219loPI   C3B 3503  10.728  16.784   8.790  0.0952  0.0919 -0.0284
  219loPI   C4B 3504  10.683  16.935   8.327 -0.0855  0.5246 -0.0835
  220loPI    C1 3505   1.971  12.609  11.171  0.0737  0.0890 -0.1034
  220loPI    C2 3506   1.577  12.567  11.220  0.1085 -0.2482 -0.0920
  220loPI    C3 3507   1.828  12.434  11.501  0.2284  0.1138 -0.0224
  220loPI   PO4 3508   1.977  12.496  10.868 -0.0396 -0.1669 -0.2702
  220loPI   GL1 3509   2.102  12.261  10.445  0.1912 -0.1014 -0.2624
  220loPI   GL2 3510   2.358  12.537  10.590 -0.1936 -0.1243  0.0933
  220loPI   C1A 3511   2.180  12.412  10.034 -0.3777 -0.2787 -0.2484
  220loPI   C2A 3512   2.114  12.450   9.664  0.1143 -0.0945  0.0234
  220loPI   C3A 3513   2.020  12.436   9.292  0.0559 -0.2217  0.1847
  220loPI   C4A 3514   2.054  12.320   8.925  0.0076 -0.2774 -0.0058
  220loPI   C5A 3515   2.294  12.265   8.559  0.0057 -0.2230 -0.0978
  220loPI   C6A 3516   1.959  12.052   8.273  0.0663 -0.0090  0.1530
  220loPI   C1B 3517   2.686  12.477  10.253 -0.2734  0.0424  0.0587
  220loPI   C2B 3518   2.609  12.571   9.889  0.2599 -0.4915  0.1750
  220loPI   C3B 3519   2.553  12.504   9.481 -0.0085 -0.1271  0.2536
  220loPI   C4B 3520   2.539  12.491   8.982 -0.1948  0.1291  0.2606
  221loPI    C1 3521  15.225  16.788  10.821 -0.1691  0.1767 -0.1478
  221loPI    C2 3522  15.078  16.479  11.028 -0.1357  0.0621 -0.2932
  221loPI    C3 3523  15.226  16.797  11.221 -0.2248  0.0135 -0.1431
  221loPI   PO4 3524  15.307  16.630  10.598  0.0288 -0.3131 -0.1399
  221loPI   GL1 3525  15.249  16.472  10.204 -0.0899 -0.1785 -0.1422
  221loPI   GL2 3526  15.005  16.435  10.107 -0.2363 -0.0715 -0.0625
  221loPI   C1A 3527  15.374  16.518   9.779 -0.0383 -0.0808  0.3602
  221loPI   C2A 3528  15.415  16.656   9.372 -0.1854  0.3947  0.0590
  221loPI   C3A 3529  15.300  16.692   8.939 -0.1955 -0.0598  0.1215
  221loPI   C4A 3530  15.221  16.707   8.486  0.3799  0.0132  0.2140
  221loPI   C5A 3531  15.181  17.152   8.393  0.2906  0.1177 -0.0503
  221loPI   C6A 3532  14.853  17.317   8.155 -0.0744  0.0651 -0.1392
  221loPI   C1B 3533  14.924  16.469   9.697  0.0691 -0.0190 -0.2163
  221loPI   C2B 3534  14.924  16.567   9.249 -0.0898 -0.0939  0.2690
  221loPI   C3B 3535  14.793  16.524   8.840  0.1983  0.1202 -0.2259
  221loPI   C4B 3536  14.759  16.530   8.352 -0.4709  0.3473 -0.0465
  222loPI    C1 3537  16.154  17.731  10.909 -0.0572 -0.1444  0.0571
  222loPI    C2 3538  15.776  17.597  10.905  0.0396 -0.4280  0.1538
  222loPI    C3 3539  15.947  17.707  11.250 -0.1211  0.2014  0.0466
  222loPI   PO4 3540  16.124  17.860  10.684  0.3688 -0.0992 -0.0951
  222loPI   GL1 3541  15.729  18.069  10.479  0.0840 -0.2696  0.0485
  222loPI   GL2 3542  15.967  18.048  10.181  0.2410  0.2714 -0.0250
  222loPI   C1A 3543  15.433  18.035  10.099  0.1471  0.0995  0.2538
  222loPI   C2A 3544  15.488  17.989   9.689 -0.3107  0.2048  0.5191
  222loPI   C3A 3545  15.505  17.947   9.265 -0.3720 -0.3245  0.0425
  222loPI   C4A 3546  15.426  18.014   8.836  0.1271  0.0152 -0.1874
  222loPI   C5A 3547  15.204  18.116   8.468  0.0166 -0.0124 -0.1869
  222loPI   C6A 3548  15.120  18.467   8.255 -0.2725  0.0371  0.2311
  222loPI   C1B 3549  15.991  18.051   9.822 -0.0905 -0.0592  0.0487
  222loPI   C2B 3550  16.014  18.035   9.377  0.0782  0.0015  0.1955
  222loPI   C3B 3551  15.931  18.115   8.990 -0.0213 -0.3033  0.2141
  222loPI   C4B 3552  15.903  18.218   8.563  0.0564  0.2127 -0.4127
  223loPI    C1 3553   8.269   9.876  10.435  0.1042  0.0856  0.1533
  223loPI    C2 3554   8.268   9.861  10.835  0.0564  0.1620  0.1562
  223loPI    C3 3555   8.234  10.213  10.647 -0.1484  0.1052  0.0841
  223loPI   PO4 3556   8.509   9.733  10.397  0.0246  0.0687  0.1471
  223loPI   GL1 3557   8.555   9.418  10.194  0.0221  0.0534 -0.0356
  223loPI   GL2 3558   8.344   9.213  10.169  0.0514  0.1592 -0.0782
  223loPI   C1A 3559   8.717   9.484   9.805  0.2611 -0.1836  0.1993
  223loPI   C2A 3560   8.809   9.470   9.369 -0.0608  0.1178 -0.2454
  223loPI   C3A 3561   8.762   9.431   8.943  0.0824  0.0200  0.0489
  223loPI   C4A 3562   8.831   9.477   8.534 -0.3420 -0.1614  0.3302
  223loPI   C5A 3563   8.670   9.536   8.068  0.0670  0.0951  0.0496
  223loPI   C6A 3564   8.323   9.551   7.928 -0.0196 -0.2500  0.1266
  223loPI   C1B 3565   8.264   9.346   9.732  0.1158  0.1418 -0.1478
  223loPI   C2B 3566   8.255   9.331   9.294  0.0573 -0.3331 -0.0982
  223loPI   C3B 3567   8.183   9.363   8.866  0.2328  0.0149 -0.1364
  223loPI   C4B 3568   8.351   9.365   8.427  0.1275  0.2541 -0.0324
  224loPI    C1 3569   1.029  10.626  11.079 -0.0966  0.1197  0.0477
  224loPI    C2 3570   1.413  10.713  11.149 -0.0815 -0.1229  0.2801
  224loPI    C3 3571   1.175  10.597  11.450 -0.3165 -0.0558  0.1234
  224loPI   PO4 3572   1.027  10.790  10.872 -0.0682 -0.0453  0.0041
  224loPI   GL1 3573   0.930  10.877  10.353 -0.0270 -0.0846  0.2177
  224loPI   GL2 3574   1.205  10.691  10.445 -0.0376 -0.1387  0.2063
  224loPI   C1A 3575   1.035  10.892   9.897  0.0947 -0.3498 -0.1384
  224loPI   C2A 3576   1.068  10.729   9.517 -0.0483 -0.0509  0.2075
  224loPI   C3A 3577   1.112  10.704   9.081  0.0229 -0.1340  0.1757
  224loPI   C4A 3578   0.994  10.848   8.755 -0.2765 -0.0310 -0.4120
  224loPI   C5A 3579   1.193  10.620   8.494 -0.1466 -0.0319 -0.2869
  224loPI   C6A 3580   1.267  10.510   8.016  0.0019 -0.1085  0.0059
  224loPI   C1B 3581   1.278  10.443  10.062 -0.0250 -0.2481  0.1266
  224loPI   C2B 3582   1.346  10.367   9.672  0.1990  0.0295  0.3110
  224loPI   C3B 3583   1.353  10.317   9.300 -0.1242 -0.2240  0.2698
  224loPI   C4B 3584   1.533  10.462   8.881  0.2300 -0.0113 -0.1232
  225loPI    C1 3585   3.329  16.269  10.477  0.1764 -0.0832  0.0809
  225loPI    C2 3586   3.273  16.084  10.827  0.1901 -0.0196  0.1171
  225loPI    C3 3587   3.212  15.887  10.484 -0.2119  0.0324  0.1537
  225loPI   PO4 3588   3.100  16.469  10.471  0.2346  0.0640 -0.0318
  225loPI   GL1 3589   3.038  16.717  10.164 -0.0453 -0.2230 -0.4429
  225loPI   GL2 3590   2.737  16.638  10.063  0.0419 -0.3450  0.2435
  225loPI   C1A 3591   3.381  16.778   9.740  0.3285 -0.1071 -0.1340
  225loPI   C2A 3592   3.407  16.726   9.380  0.0758  0.0015  0.2564
  225loPI   C3A 3593   3.145  16.717   8.963  0.2520 -0.1329  0.0147
  225loPI   C4A 3594   3.264  16.712   8.580 -0.1542 -0.1854 -0.0931
  225loPI   C5A 3595   3.374  17.019   8.199 -0.3071 -0.1522 -0.0483
  225loPI   C6A 3596   3.237  17.060   7.758  0.1302  0.2199  0.2052
  225loPI   C1B 3597   2.762  16.618   9.588 -0.1569 -0.1771 -0.4882
  225loPI   C2B 3598   2.697  16.633   9.109 -0.1361 -0.0912 -0.0585
  225loPI   C3B 3599   2.615  16.753   8.726 -0.1731 -0.1469 -0.0049
  225loPI   C4B 3600   2.431  16.650   8.375 -0.0002  0.1114 -0.0317
  226loPI    C1 3601  15.705  11.474  11.474 -0.0827  0.0604  0.1415
  226loPI    C2 3602  15.792  11.780  11.717 -0.0003 -0.0088  0.1994
  226loPI    C3 3603  15.507  11.518  11.818  0.0833 -0.0785  0.2562
  226loPI   PO4 3604  15.712  11.581  11.257  0.1657  0.2494  0.0942
  226loPI   GL1 3605  15.823  11.713  10.798  0.2742  0.0915 -0.0756
  226loPI   GL2 3606  16.122  11.595  10.714  0.0477  0.2123  0.1226
  226loPI   C1A 3607  15.918  12.076  10.493  0.1559 -0.2764  0.0328
  226loPI   C2A 3608  16.084  12.149  10.150 -0.1748  0.1523  0.1623
  226loPI   C3A 3609  16.156  12.143   9.722  0.2205  0.0865 -0.4367
  226loPI   C4A 3610  16.171  12.191   9.347 -0.1453 -0.0738 -0.0719
  226loPI   C5A 3611  16.107  12.044   8.970  0.1096  0.3027 -0.0146
  226loPI   C6A 3612  16.078  12.122   8.541 -0.0581 -0.2701  0.1623
  226loPI   C1B 3613  15.917  11.638  10.290  0.0295  0.0908  0.1690
  226loPI   C2B 3614  15.878  11.609   9.799  0.1402 -0.0504 -0.2506
  226loPI   C3B 3615  15.953  11.660   9.405  0.1049  0.3407 -0.1070
  226loPI   C4B 3616  15.944  11.613   8.852  0.1059 -0.0787  0.0653
  227loPI    C1 3617  12.868   2.038  11.022 -0.1917  0.1530  0.0194
  227loPI    C2 3618  13.186   1.979  11.257 -0.1396 -0.2311 -0.1405
  227loPI    C3 3619  12.835   1.808  11.348 -0.2292 -0.0371 -0.1168
  227loPI   PO4 3620  12.982   1.928  10.737 -0.3073 -0.0434 -0.1450
  227loPI   GL1 3621  12.667   1.586  10.497  0.1699  0.1058 -0.6436
  227loPI   GL2 3622  12.551   1.383  10.222 -0.0608 -0.2349 -0.0226
  227loPI   C1A 3623  12.711   1.799  10.093  0.2917  0.0282 -0.0602
  227loPI   C2A 3624  12.744   1.856   9.643 -0.0793 -0.1813 -0.0000
  227loPI   C3A 3625  12.801   1.873   9.185 -0.1670  0.1147 -0.0865
  227loPI   C4A 3626  12.756   1.950   8.675 -0.1223  0.0099 -0.0677
  227loPI   C5A 3627  12.535   1.938   8.213 -0.0894 -0.1560 -0.0864
  227loPI   C6A 3628  12.100   1.968   8.206  0.1887 -0.2437 -0.1568
  227loPI   C1B 3629  12.527   1.368   9.854 -0.3367 -0.1239  0.1390
  227loPI   C2B 3630  12.658   1.380   9.410  0.2705  0.1865  0.1317
  227loPI   C3B 3631  12.546   1.464   8.938  0.0682 -0.0310  0.0953
  227loPI   C4B 3632  12.539   1.462   8.476 -0.3021 -0.2689  0.5128
  228loPI    C1 3633   7.190  16.241  10.593 -0.1778  0.0724 -0.0037
  228loPI    C2 3634   7.401  16.098  10.901 -0.2135 -0.0747 -0.0468
  228loPI    C3 3635   7.056  16.291  10.967 -0.0967  0.1142  0.0200
  228loPI   PO4 3636   7.153  16.047  10.440  0.0606 -0.2214 -0.0375
  228loPI   GL1 3637   6.984  15.939  10.081 -0.0408  0.2111  0.4005
  228loPI   GL2 3638   6.921  15.576   9.911  0.2447 -0.2923 -0.1140
  228loPI   C1A 3639   6.925  15.955   9.594 -0.0504  0.0289 -0.1396
  228loPI   C2A 3640   6.901  15.959   9.088  0.1053  0.1441 -0.2868
  228loPI   C3A 3641   6.803  16.160   8.711 -0.1046  0.0220 -0.0078
  228loPI   C4A 3642   6.767  16.190   8.263 -0.0357  0.2628 -0.0894
  228loPI   C5A 3643   6.972  16.516   8.008 -0.0061  0.2220 -0.1177
  228loPI   C6A 3644   7.104  16.667   7.728 -0.3266 -0.0424  0.1952
  228loPI   C1B 3645   6.745  15.468   9.490  0.0236  0.1367  0.1006
  228loPI   C2B 3646   6.701  15.463   9.022  0.1533  0.0408 -0.0085
  228loPI   C3B 3647   6.696  15.334   8.650  0.2495 -0.1929 -0.0706
  228loPI   C4B 3648   6.714  15.264   8.230 -0.1691 -0.1644 -0.4900
  229loPI    C1 3649  17.035  13.287  11.141 -0.0808 -0.1272  0.1086
  229loPI    C2 3650  16.796  13.374  11.449 -0.0606  0.0389  0.0786
  229loPI    C3 3651  16.937  13.002  11.404 -0.0393  0.0205  0.2856
  229loPI   PO4 3652  16.949  13.376  10.966  0.0866  0.1241  0.0803
  229loPI   GL1 3653  16.994  13.617  10.551  0.3851 -0.0089  0.0338
  229loPI   GL2 3654  16.637  13.694  10.631 -0.0580  0.1092  0.2255
  229loPI   C1A 3655  17.214  13.708  10.149  0.2610  0.1099 -0.2009
  229loPI   C2A 3656  17.114  13.664   9.749 -0.0844 -0.0715 -0.1318
  229loPI   C3A 3657  17.094  13.744   9.190 -0.3019  0.1960  0.3136
  229loPI   C4A 3658  17.159  13.651   8.789  0.2638 -0.1699 -0.2727
  229loPI   C5A 3659  17.210  13.676   8.339  0.2112  0.3030  0.0441
  229loPI   C6A 3660  17.253  13.625   7.930  0.2084 -0.2151 -0.2968
  229loPI   C1B 3661  16.708  13.589  10.185  0.2814 -0.0659 -0.1404
  229loPI   C2B 3662  16.586  13.621   9.735 -0.0563  0.3392 -0.1648
  229loPI   C3B 3663  16.596  13.632   9.378  0.1753  0.0382  0.0604
  229loPI   C4B 3664  16.689  13.601   8.968  0.0793  0.1819  0.0323
  230loPI    C1 3665  12.554   3.837  10.893  0.0399 -0.0589 -0.2215
  230loPI    C2 3666  12.336   4.171  10.864 -0.0947 -0.1184  0.0653
  230loPI    C3 3667  12.480   4.057  11.219  0.1428 -0.2465 -0.0699
  230loPI   PO4 3668  12.537   3.754  10.654 -0.0561 -0.2947  0.3522
  230loPI   GL1 3669  12.256   3.698  10.339  0.1584 -0.0478  0.1650
  230loPI   GL2 3670  11.846   3.567  10.358  0.0885  0.3172 -0.2256
  230loPI   C1A 3671  12.404   3.587   9.904  0.1067  0.0167  0.1626
  230loPI   C2A 3672  12.388   3.584   9.500  0.1553  0.1601 -0.0036
  230loPI   C3A 3673  12.510   3.603   9.085 -0.1397  0.0965 -0.2673
  230loPI   C4A 3674  12.502   3.716   8.725  0.0966  0.0904 -0.1932
  230loPI   C5A 3675  12.353   3.769   8.281  0.1592 -0.0113  0.0458
  230loPI   C6A 3676  12.189   3.528   7.943 -0.1198 -0.4371  0.1963
  230loPI   C1B 3677  11.833   3.507   9.940  0.0609 -0.1731 -0.1761
  230loPI   C2B 3678  11.875   3.511   9.512  0.0920  0.0823  0.0813
  230loPI   C3B 3679  11.913   3.485   9.062 -0.2299 -0.1481  0.1802
  230loPI   C4B 3680  11.953   3.598   8.639 -0.0244  0.0144  0.2297
  231loPI    C1 3681  16.958   1.090  10.777  0.0289  0.2752  0.1408
  231loPI    C2 3682  16.625   1.212  10.961 -0.1388 -0.0965  0.0925
  231loPI    C3 3683  16.914   1.475  10.876 -0.4588  0.2492  0.0486
  231loPI   PO4 3684  16.932   0.947  10.570 -0.0833  0.0900  0.1615
  231loPI   GL1 3685  16.689   1.093  10.144  0.2339 -0.0941  0.0815
  231loPI   GL2 3686  16.428   0.984  10.066  0.3421 -0.0881  0.0524
  231loPI   C1A 3687  16.906   1.125   9.881 -0.1121  0.0496 -0.0701
  231loPI   C2A 3688  16.923   1.150   9.462 -0.2592 -0.0745 -0.1385
  231loPI   C3A 3689  16.881   1.155   8.993  0.1141 -0.2845  0.0041
  231loPI   C4A 3690  16.847   1.227   8.456 -0.1331  0.1802 -0.1582
  231loPI   C5A 3691  16.779   1.073   8.085 -0.0865 -0.0518  0.1993
  231loPI   C6A 3692  16.936   1.026   7.689 -0.0594  0.0604 -0.1065
  231loPI   C1B 3693  16.305   1.076   9.654 -0.1867  0.2053 -0.0952
  231loPI   C2B 3694  16.425   1.093   9.206 -0.0514  0.0847  0.0657
  231loPI   C3B 3695  16.378   1.199   8.819  0.0937  0.0144 -0.0225
  231loPI   C4B 3696  16.380   1.156   8.394  0.2068 -0.4299 -0.0313
  232loPI    C1 3697  12.673  11.753  11.010 -0.0370 -0.0651  0.0571
  232loPI    C2 3698  12.665  12.150  11.055  0.0162 -0.0646  0.0623
  232loPI    C3 3699  12.393  11.922  11.240 -0.1223 -0.0169 -0.0812
  232loPI   PO4 3700  12.665  11.706  10.783  0.0645  0.3462 -0.1599
  232loPI   GL1 3701  12.714  11.900  10.390 -0.0355  0.0745 -0.1963
  232loPI   GL2 3702  12.570  12.139  10.201  0.0732 -0.1627 -0.2185
  232loPI   C1A 3703  12.872  11.596   9.889  0.1347  0.2515  0.1158
  232loPI   C2A 3704  12.996  11.629   9.406 -0.0395  0.0208 -0.0957
  232loPI   C3A 3705  13.040  11.501   8.964 -0.3481  0.0083 -0.0292
  232loPI   C4A 3706  13.108  11.481   8.501  0.2155 -0.1848  0.2493
  232loPI   C5A 3707  13.329  11.855   8.282 -0.0676  0.1906 -0.2559
  232loPI   C6A 3708  13.320  12.002   7.818  0.0774 -0.0249  0.2930
  232loPI   C1B 3709  12.588  11.967   9.802 -0.1759  0.0955 -0.0739
  232loPI   C2B 3710  12.675  12.031   9.359  0.0532  0.1514  0.0797
  232loPI   C3B 3711  12.748  11.932   8.943 -0.0343  0.2237  0.1776
  232loPI   C4B 3712  12.762  11.887   8.514  0.0412 -0.0228  0.2437
  233loPI    C1 3713  13.175   4.004  11.073  0.0094  0.0249 -0.1309
  233loPI    C2 3714  12.917   4.291  11.178  0.2599  0.0879  0.3398
  233loPI    C3 3715  12.948   3.959  11.399  0.0579 -0.2571 -0.1332
  233loPI   PO4 3716  13.335   4.302  10.878 -0.1777  0.2269 -0.1377
  233loPI   GL1 3717  13.296   4.368  10.456 -0.2792 -0.1292 -0.0559
  233loPI   GL2 3718  13.173   4.105  10.256 -0.2247 -0.1095  0.3218
  233loPI   C1A 3719  13.653   4.210  10.152 -0.0884  0.1177 -0.2017
  233loPI   C2A 3720  13.661   4.423   9.707 -0.0242  0.1922  0.2836
  233loPI   C3A 3721  13.634   4.347   9.188  0.2552  0.0071 -0.3193
  233loPI   C4A 3722  13.632   4.407   8.754  0.2522  0.0793 -0.0835
  233loPI   C5A 3723  13.293   4.421   8.342 -0.0957 -0.2065  0.0010
  233loPI   C6A 3724  13.120   4.661   7.951  0.2893 -0.0294 -0.2645
  233loPI   C1B 3725  13.231   4.199   9.861 -0.3063  0.0616 -0.1659
  233loPI   C2B 3726  13.244   4.215   9.435  0.0780 -0.4674  0.0945
  233loPI   C3B 3727  13.170   4.229   8.946  0.4009  0.1011 -0.1047
  233loPI   C4B 3728  13.127   3.988   8.553  0.0115  0.1442  0.0236
  234loPI    C1 3729  16.088   0.467  10.934 -0.0491 -0.0262  0.1056
  234loPI    C2 3730  16.077   0.204  11.235 -0.2052  0.1658  0.2711
  234loPI    C3 3731  16.421   0.383  11.138 -0.1051 -0.0719  0.1790
  234loPI   PO4 3732  15.989   0.440  10.699  0.0637 -0.0390 -0.0738
  234loPI   GL1 3733  15.994   0.563  10.302  0.2487 -0.1943 -0.2145
  234loPI   GL2 3734  16.143   0.492  10.036  0.0701 -0.2918 -0.0879
  234loPI   C1A 3735  15.909   0.947   9.978  0.2462 -0.0729  0.0172
  234loPI   C2A 3736  15.825   0.975   9.542 -0.2121  0.0856  0.0004
  234loPI   C3A 3737  15.839   1.054   9.210  0.2184  0.2521 -0.0366
  234loPI   C4A 3738  15.838   1.116   8.770  0.1527  0.4006  0.0151
  234loPI   C5A 3739  15.832   1.020   8.331 -0.0087 -0.2331 -0.1247
  234loPI   C6A 3740  15.510   0.843   8.116  0.2594 -0.1943  0.0565
  234loPI   C1B 3741  16.172   0.601   9.583 -0.2665 -0.1632 -0.0924
  234loPI   C2B 3742  16.167   0.563   9.233 -0.1816  0.0359  0.0683
  234loPI   C3B 3743  16.131   0.683   8.729 -0.0094  0.1456  0.0836
  234loPI   C4B 3744  16.113   0.566   8.286 -0.3802 -0.1375  0.2173
  235loPI    C1 3745   2.012  12.054  11.264  0.0822 -0.0328  0.1814
  235loPI    C2 3746   2.361  12.194  11.127 -0.0852  0.1814 -0.0331
  235loPI    C3 3747   2.291  12.182  11.521  0.2222 -0.0092  0.0189
  235loPI   PO4 3748   1.781  12.103  11.102 -0.1865  0.1384 -0.0681
  235loPI   GL1 3749   1.585  11.971  10.697 -0.1950 -0.1330  0.1255
  235loPI   GL2 3750   1.799  11.825  10.445  0.3029 -0.1148 -0.0963
  235loPI   C1A 3751   1.314  11.828  10.283 -0.4150 -0.1965  0.1151
  235loPI   C2A 3752   1.377  11.902   9.794  0.0831  0.0331 -0.0975
  235loPI   C3A 3753   1.425  11.857   9.403  0.3353 -0.2893 -0.1908
  235loPI   C4A 3754   1.361  11.766   8.954 -0.0589  0.0259 -0.0874
  235loPI   C5A 3755   1.196  11.730   8.506  0.2998  0.1425  0.2381
  235loPI   C6A 3756   1.312  11.454   8.107 -0.0204 -0.3972 -0.1668
  235loPI   C1B 3757   1.848  11.896  10.060 -0.1944 -0.2884  0.0144
  235loPI   C2B 3758   1.971  11.976   9.632 -0.1493  0.0068  0.0709
  235loPI   C3B 3759   1.871  11.912   9.206 -0.0406  0.1578  0.1607
  235loPI   C4B 3760   1.907  11.844   8.734  0.1707  0.0960 -0.3007
  236loPI    C1 3761   0.676   4.121  10.426  0.0938  0.0789 -0.0284
  236loPI    C2 3762   0.612   3.726  10.415 -0.0786  0.1071 -0.0653
  236loPI    C3 3763   0.403   3.956  10.667  0.0037  0.1782 -0.0614
  236loPI   PO4 3764   0.693   4.164  10.191 -0.3551  0.1794  0.0865
  236loPI   GL1 3765   0.247   4.085  10.007 -0.2619 -0.1172 -0.0139
  236loPI   GL2 3766   0.449   3.828   9.921 -0.1334 -0.1288  0.0166
  236loPI   C1A 3767   0.499   4.171   9.514  0.0886  0.0817  0.2927
  236loPI   C2A 3768   0.436   4.287   9.102  0.0640  0.1535 -0.1618
  236loPI   C3A 3769   0.525   4.325   8.624  0.2181 -0.0292  0.2108
  236loPI   C4A 3770   0.572   4.240   8.182 -0.1333  0.1506 -0.2261
  236loPI   C5A 3771   0.331   4.337   7.830 -0.2465  0.1844  0.2248
  236loPI   C6A 3772  -0.055   4.067   7.635 -0.0987  0.1229  0.1350
  236loPI   C1B 3773   0.360   3.699   9.418 -0.1328 -0.0611 -0.1605
  236loPI   C2B 3774   0.299   3.779   8.955 -0.0172  0.0493 -0.0505
  236loPI   C3B 3775   0.313   3.867   8.513 -0.1470  0.0044 -0.1046
  236loPI   C4B 3776   0.221   3.907   8.043 -0.1169  0.0416 -0.1068
  237loPI    C1 3777   4.256  17.326  10.987  0.0890  0.2063  0.1208
  237loPI    C2 3778   4.621  17.451  11.095  0.1678  0.2179 -0.1520
  237loPI    C3 3779   4.298  17.661  11.201  0.2111  0.0372  0.3674
  237loPI   PO4 3780   4.277  17.228  10.778  0.2201 -0.0561  0.0073
  237loPI   GL1 3781   4.205  17.352  10.273  0.3154 -0.0170 -0.3820
  237loPI   GL2 3782   4.515  17.383  10.190 -0.2270 -0.1455 -0.2324
  237loPI   C1A 3783   4.153  17.369   9.850 -0.1049 -0.2089  0.0036
  237loPI   C2A 3784   4.096  17.359   9.366  0.0708  0.0267  0.0786
  237loPI   C3A 3785   4.008  17.311   8.909  0.1379  0.0055  0.1580
  237loPI   C4A 3786   3.948  17.319   8.498 -0.0086 -0.0827  0.3230
  237loPI   C5A 3787   4.122  17.113   8.038 -0.2165  0.1350 -0.2120
  237loPI   C6A 3788   4.652  17.284   7.926 -0.1900 -0.0391  0.1447
  237loPI   C1B 3789   4.645  17.536   9.890  0.0642 -0.0080 -0.1707
  237loPI   C2B 3790   4.508  17.473   9.492 -0.1152  0.2514 -0.2943
  237loPI   C3B 3791   4.473  17.468   9.076  0.1085  0.0535 -0.0198
  237loPI   C4B 3792   4.494  17.442   8.675 -0.0653  0.1189  0.1045
  238loPI    C1 3793  17.199   0.203  10.978  0.1071  0.0880  0.0478
  238loPI    C2 3794  16.891   0.257  11.228 -0.0098 -0.2951 -0.0063
  238loPI    C3 3795  17.243   0.130  11.369  0.0305 -0.1649  0.0112
  238loPI   PO4 3796  17.086   0.092  10.809 -0.0146 -0.0450  0.0463
  238loPI   GL1 3797  16.900  -0.062  10.340  0.0929 -0.4105 -0.2568
  238loPI   GL2 3798  17.072   0.178  10.298  0.1882  0.0157 -0.0373
  238loPI   C1A 3799  16.878  -0.213   9.952  0.0162 -0.1818  0.0254
  238loPI   C2A 3800  16.825  -0.162   9.673  0.0580 -0.1581 -0.3728
  238loPI   C3A 3801  16.846  -0.169   9.222 -0.0394  0.2680  0.0317
  238loPI   C4A 3802  16.918  -0.184   8.767  0.0857  0.2441 -0.2907
  238loPI   C5A 3803  17.065   0.021   8.353 -0.1202 -0.2841 -0.1571
  238loPI   C6A 3804  16.989   0.332   8.152  0.2145  0.0296 -0.2887
  238loPI   C1B 3805  17.085   0.246   9.918  0.0348  0.0673  0.3097
  238loPI   C2B 3806  17.087   0.334   9.478  0.0268 -0.2459  0.4195
  238loPI   C3B 3807  17.003   0.382   9.139 -0.0493 -0.2547 -0.1192
  238loPI   C4B 3808  16.943   0.299   8.718  0.2885 -0.1356  0.2843
  239loPI    C1 3809  16.912  16.685  11.255 -0.1765  0.0535 -0.0387
  239loPI    C2 3810  17.283  16.788  11.363 -0.2366  0.4238 -0.1714
  239loPI    C3 3811  17.008  16.707  11.643 -0.0288  0.0294 -0.0733
  239loPI   PO4 3812  17.006  16.507  11.061 -0.3902 -0.0125  0.1340
  239loPI   GL1 3813  17.033  16.451  10.666  0.0325 -0.2126 -0.1387
  239loPI   GL2 3814  16.800  16.289  10.556  0.2535 -0.1306  0.2095
  239loPI   C1A 3815  17.207  16.488  10.205  0.3141  0.0388  0.2270
  239loPI   C2A 3816  17.221  16.449   9.750  0.1236  0.0725 -0.1511
  239loPI   C3A 3817  17.292  16.440   9.365  0.2844 -0.1289 -0.0905
  239loPI   C4A 3818  17.243  16.427   8.884 -0.0773  0.2567  0.1683
  239loPI   C5A 3819  17.174  16.540   8.528  0.1985 -0.1480  0.3601
  239loPI   C6A 3820  17.192  16.813   8.243  0.1444  0.2276 -0.0456
  239loPI   C1B 3821  16.705  16.351  10.069 -0.3270 -0.3812  0.2214
  239loPI   C2B 3822  16.736  16.343   9.643 -0.2667 -0.1680  0.2358
  239loPI   C3B 3823  16.808  16.370   9.199  0.0412 -0.0031  0.0283
  239loPI   C4B 3824  16.709  16.316   8.840  0.1124  0.0170 -0.1911
  240loPI    C1 3825   2.309   6.463  10.795  0.1077  0.1320 -0.1078
  240loPI    C2 3826   2.617   6.211  10.759  0.0964  0.1141 -0.0801
  240loPI    C3 3827   2.678   6.585  10.886  0.0613  0.0060  0.2643
  240loPI   PO4 3828   2.148   6.384  10.660  0.1069  0.0566  0.0699
  240loPI   GL1 3829   2.260   6.257  10.253 -0.1395 -0.0048  0.1294
  240loPI   GL2 3830   2.447   6.068  10.301  0.1934  0.2934 -0.0058
  240loPI   C1A 3831   2.310   6.344   9.823 -0.0002  0.3255 -0.2780
  240loPI   C2A 3832   2.256   6.427   9.363  0.2319  0.0021  0.2166
  240loPI   C3A 3833   2.320   6.361   8.944 -0.0889  0.2257  0.1208
  240loPI   C4A 3834   2.219   6.389   8.595 -0.0545  0.4263 -0.2818
  240loPI   C5A 3835   2.099   6.071   8.290 -0.1221  0.1828  0.0113
  240loPI   C6A 3836   2.093   5.836   8.161 -0.2100 -0.1679 -0.1537
  240loPI   C1B 3837   2.598   5.912   9.987  0.1668 -0.0317 -0.0007
  240loPI   C2B 3838   2.631   5.998   9.620  0.4428  0.1024  0.0088
  240loPI   C3B 3839   2.674   6.044   9.140 -0.0726  0.0552 -0.0441
  240loPI   C4B 3840   2.587   5.991   8.740  0.0976  0.0929 -0.0047
  241loPI    C1 3841  11.958   1.725  10.976  0.1664 -0.0531 -0.0492
  241loPI    C2 3842  11.849   1.973  10.682  0.0228 -0.1444 -0.0738
  241loPI    C3 3843  11.807   2.085  11.063  0.0166 -0.1066 -0.0856
  241loPI   PO4 3844  11.826   1.514  10.807 -0.0426 -0.0352 -0.0473
  241loPI   GL1 3845  11.826   1.456  10.433 -0.0997 -0.2441 -0.4534
  241loPI   GL2 3846  12.127   1.611  10.397 -0.2006  0.0847 -0.4220
  241loPI   C1A 3847  11.739   1.827  10.159 -0.0560  0.2338 -0.1325
  241loPI   C2A 3848  11.744   1.733   9.678 -0.1928 -0.2039 -0.0465
  241loPI   C3A 3849  11.781   1.718   9.289 -0.0371 -0.2297  0.2408
  241loPI   C4A 3850  11.693   1.655   8.904  0.0415 -0.1674 -0.1294
  241loPI   C5A 3851  11.405   1.635   8.529  0.2144  0.0765 -0.1691
  241loPI   C6A 3852  10.994   1.656   8.327  0.0805  0.0388 -0.1766
  241loPI   C1B 3853  12.223   1.759   9.886  0.2339  0.1264 -0.0949
  241loPI   C2B 3854  12.264   1.741   9.515 -0.1635  0.0821  0.0356
  241loPI   C3B 3855  12.284   1.839   9.131  0.1057 -0.1904 -0.0773
  241loPI   C4B 3856  12.213   1.785   8.689  0.1525  0.1551 -0.0111
  242loPI    C1 3857  11.636   6.157  11.118 -0.1660 -0.0421 -0.1930
  242loPI    C2 3858  11.907   6.240  11.400 -0.1439  0.1560 -0.2705
  242loPI    C3 3859  11.528   6.360  11.446 -0.1366  0.2033 -0.3327
  242loPI   PO4 3860  11.766   6.203  10.875  0.0721  0.0540  0.2663
  242loPI   GL1 3861  11.686   6.513  10.445  0.1260 -0.1777  0.0118
  242loPI   GL2 3862  11.602   6.789  10.263  0.0161  0.0241  0.1645
  242loPI   C1A 3863  11.869   6.247  10.121  0.0967  0.0653 -0.2199
  242loPI   C2A 3864  11.919   6.304   9.634 -0.0007  0.0747 -0.0231
  242loPI   C3A 3865  11.960   6.255   9.228 -0.3316  0.2101 -0.0995
  242loPI   C4A 3866  11.893   6.318   8.857 -0.1084  0.0637 -0.1982
  242loPI   C5A 3867  11.892   6.251   8.442  0.0103  0.0099 -0.3144
  242loPI   C6A 3868  11.736   6.516   8.085 -0.0100  0.2694 -0.2633
  242loPI   C1B 3869  11.708   6.677   9.889 -0.3396 -0.1716  0.0730
  242loPI   C2B 3870  11.658   6.678   9.439 -0.1710 -0.2152  0.2004
  242loPI   C3B 3871  11.521   6.668   8.974 -0.1811  0.1621 -0.2037
  242loPI   C4B 3872  11.644   6.634   8.594 -0.1486 -0.3192  0.1322
  243loPI    C1 3873   2.207   4.581  10.674  0.1161 -0.2671  0.2681
  243loPI    C2 3874   2.571   4.693  10.794  0.1661 -0.2945  0.1428
  243loPI    C3 3875   2.267   4.694  11.053  0.1575  0.1588  0.1399
  243loPI   PO4 3876   2.162   4.742  10.440  0.0478 -0.0448 -0.0756
  243loPI   GL1 3877   1.980   4.752  10.089 -0.2418  0.1077 -0.0570
  243loPI   GL2 3878   1.915   4.379  10.027  0.0788  0.2057  0.0480
  243loPI   C1A 3879   2.188   5.064   9.830  0.0958  0.1415  0.1252
  243loPI   C2A 3880   2.314   4.997   9.401 -0.0551  0.0379  0.0028
  243loPI   C3A 3881   2.277   5.032   8.917  0.1859  0.0694 -0.1863
  243loPI   C4A 3882   2.275   4.986   8.417  0.0471 -0.1605 -0.0735
  243loPI   C5A 3883   2.059   5.330   8.249 -0.4071 -0.1925  0.0656
  243loPI   C6A 3884   1.675   5.489   8.061  0.0958  0.0544 -0.1348
  243loPI   C1B 3885   2.096   4.452   9.640 -0.0267 -0.3202  0.2215
  243loPI   C2B 3886   2.125   4.501   9.192  0.2341  0.1871  0.0425
  243loPI   C3B 3887   2.133   4.599   8.752  0.2190  0.1563 -0.0876
  243loPI   C4B 3888   2.045   4.495   8.385 -0.1128 -0.3132  0.0727
  244loPI    C1 3889   0.843  11.612  11.119  0.0279  0.0327  0.1842
  244loPI    C2 3890   0.901  11.924  11.362  0.0523  0.0610  0.1420
  244loPI    C3 3891   1.190  11.651  11.313  0.0571  0.0692  0.1250
  244loPI   PO4 3892   0.711  11.700  10.914 -0.1322 -0.2707 -0.1302
  244loPI   GL1 3893   0.545  11.499  10.470 -0.2247 -0.0752  0.1916
  244loPI   GL2 3894   0.327  11.447  10.284  0.0978  0.2954  0.0781
  244loPI   C1A 3895   0.952  11.486  10.338  0.2611  0.0445 -0.1749
  244loPI   C2A 3896   1.206  11.323  10.079  0.4124  0.1017  0.0334
  244loPI   C3A 3897   1.245  11.251   9.599 -0.0968  0.2778  0.2525
  244loPI   C4A 3898   1.223  11.226   9.190  0.0387  0.0171 -0.0167
  244loPI   C5A 3899   1.125  11.357   8.808 -0.0537  0.2240 -0.0548
  244loPI   C6A 3900   1.230  11.112   8.435  0.0502 -0.0332  0.0210
  244loPI   C1B 3901   0.270  11.434   9.775 -0.1931  0.0313  0.0360
  244loPI   C2B 3902   0.435  11.585   9.441  0.0787 -0.0698  0.3860
  244loPI   C3B 3903   0.375  11.585   9.077  0.1908  0.3715 -0.3512
  244loPI   C4B 3904   0.329  11.613   8.641 -0.2052 -0.2079 -0.1117
  245loPI    C1 3905   8.392  14.513  10.528 -0.0619  0.4152 -0.0387
  245loPI    C2 3906   8.043  14.439  10.709  0.0088  0.1928  0.0096
  245loPI    C3 3907   8.256  14.762  10.811  0.0298  0.0901  0.2997
  245loPI   PO4 3908   8.347  14.332  10.312  0.3239  0.1443 -0.0609
  245loPI   GL1 3909   8.687  14.239   9.946 -0.0056  0.1712  0.2488
  245loPI   GL2 3910   8.822  14.484  10.156  0.2719 -0.0635 -0.1258
  245loPI   C1A 3911   8.680  14.067   9.498  0.0237  0.3010  0.0241
  245loPI   C2A 3912   8.649  14.087   9.073 -0.1024  0.1425 -0.0279
  245loPI   C3A 3913   8.702  14.016   8.657 -0.3933 -0.2201  0.1578
  245loPI   C4A 3914   8.821  14.269   8.421 -0.2621 -0.0090 -0.0719
  245loPI   C5A 3915   8.890  14.604   8.078 -0.1583 -0.0729 -0.2005
  245loPI   C6A 3916   8.906  14.669   7.570 -0.0150  0.2084 -0.1439
  245loPI   C1B 3917   8.990  14.536   9.655 -0.0859  0.0439 -0.2911
  245loPI   C2B 3918   8.988  14.490   9.185 -0.2446  0.0941 -0.0229
  245loPI   C3B 3919   8.867  14.553   8.861  0.0035 -0.2647 -0.1408
  245loPI   C4B 3920   8.777  14.809   8.528  0.2214 -0.0116  0.0850
  246loPI    C1 3921  16.349  11.453  11.211  0.4232  0.0219 -0.0470
  246loPI    C2 3922  16.201  11.157  11.437  0.0966 -0.0013 -0.2851
  246loPI    C3 3923  16.238  11.525  11.589 -0.0921 -0.0233 -0.1833
  246loPI   PO4 3924  16.423  11.240  10.996 -0.1520  0.1145 -0.0026
  246loPI   GL1 3925  16.261  11.079  10.618 -0.3247  0.1561 -0.1308
  246loPI   GL2 3926  16.200  10.769  10.490 -0.0394 -0.1472  0.0920
  246loPI   C1A 3927  16.234  11.240  10.224  0.1928  0.3719 -0.1825
  246loPI   C2A 3928  16.237  11.242   9.720 -0.3028 -0.1782 -0.1616
  246loPI   C3A 3929  16.207  11.313   9.193  0.0762 -0.0906 -0.1875
  246loPI   C4A 3930  16.320  11.157   8.787 -0.1605  0.0271 -0.1784
  246loPI   C5A 3931  16.731  10.901   8.501  0.1323  0.1886  0.1962
  246loPI   C6A 3932  16.780  10.505   8.227  0.2598  0.1296  0.0064
  246loPI   C1B 3933  16.075  10.680  10.107 -0.0363 -0.1514  0.3337
  246loPI   C2B 3934  16.081  10.784   9.761 -0.2654  0.2313  0.0195
  246loPI   C3B 3935  16.117  10.895   9.366 -0.1339  0.1177 -0.1619
  246loPI   C4B 3936  16.014  10.758   8.963  0.2832  0.0683 -0.0547
  247loPI    C1 3937  11.839   5.043  10.845  0.1047 -0.3204 -0.1259
  247loPI    C2 3938  12.123   5.206  11.074 -0.2598  0.2151 -0.0346
  247loPI    C3 3939  12.206   5.102  10.697  0.0914  0.2299  0.0349
  247loPI   PO4 3940  11.657   5.202  10.883 -0.0078 -0.1568  0.0933
  247loPI   GL1 3941  11.353   5.340  10.564 -0.1404 -0.1998  0.0210
  247loPI   GL2 3942  11.561   5.251  10.386 -0.0791  0.1966 -0.2565
  247loPI   C1A 3943  11.165   5.602  10.119  0.0522 -0.2655  0.0243
  247loPI   C2A 3944  11.175   5.702   9.780 -0.0988 -0.1669  0.1350
  247loPI   C3A 3945  11.280   5.705   9.347  0.0674 -0.0754 -0.0055
  247loPI   C4A 3946  11.215   5.731   8.889 -0.1462 -0.0796  0.2200
  247loPI   C5A 3947  11.161   5.893   8.505 -0.2849  0.1207 -0.2217
  247loPI   C6A 3948  11.380   6.223   8.385  0.0078 -0.2131 -0.0178
  247loPI   C1B 3949  11.486   5.252   9.979 -0.1528 -0.2581  0.1827
  247loPI   C2B 3950  11.562   5.264   9.576 -0.1237 -0.2540  0.1553
  247loPI   C3B 3951  11.578   5.318   9.156  0.1013 -0.2576 -0.0578
  247loPI   C4B 3952  11.596   5.448   8.666  0.0880  0.0131 -0.1067
  248loPI    C1 3953  11.288   6.739  10.655  0.1099  0.1848 -0.0587
  248loPI    C2 3954  11.278   6.348  10.737 -0.2499  0.2155  0.0609
  248loPI    C3 3955  11.414   6.607  11.010 -0.0871  0.1829  0.0117
  248loPI   PO4 3956  11.138   6.798  10.496  0.1100  0.2749  0.2799
  248loPI   GL1 3957  11.034   6.561  10.056 -0.1094 -0.0126 -0.0140
  248loPI   GL2 3958  10.825   6.845  10.094  0.0359 -0.1971 -0.1623
  248loPI   C1A 3959  11.060   6.556   9.640  0.1944 -0.3681 -0.1699
  248loPI   C2A 3960  11.036   6.435   9.135 -0.2433 -0.0748 -0.0670
  248loPI   C3A 3961  11.068   6.579   8.673 -0.1595 -0.3022 -0.0174
  248loPI   C4A 3962  11.278   6.788   8.294 -0.0778 -0.2318 -0.2847
  248loPI   C5A 3963  11.436   7.110   8.071 -0.3256  0.1761 -0.2831
  248loPI   C6A 3964  11.639   7.554   8.115 -0.1362 -0.0519  0.4435
  248loPI   C1B 3965  10.661   6.928   9.689 -0.1718  0.1694 -0.0544
  248loPI   C2B 3966  10.816   6.899   9.186  0.1198 -0.2051 -0.3594
  248loPI   C3B 3967  10.910   7.041   8.753 -0.0399 -0.0045 -0.1910
  248loPI   C4B 3968  10.815   6.890   8.373  0.1744 -0.1002  0.4525
  249loPI    C1 3969   1.137   4.943  10.360  0.1647  0.0472 -0.1934
  249loPI    C2 3970   0.998   5.020  10.727  0.0243  0.1162 -0.2603
  249loPI    C3 3971   1.247   4.712  10.668 -0.0462  0.0328 -0.1278
  249loPI   PO4 3972   1.252   5.097  10.265 -0.2408 -0.1923 -0.3116
  249loPI   GL1 3973   1.169   5.288   9.891  0.0408 -0.2317 -0.0121
  249loPI   GL2 3974   0.889   5.397   9.973  0.0223 -0.0399 -0.0363
  249loPI   C1A 3975   1.448   5.284   9.499  0.1065 -0.1551  0.0017
  249loPI   C2A 3976   1.447   5.354   9.046  0.0708  0.0263  0.1580
  249loPI   C3A 3977   1.443   5.356   8.604  0.1906  0.0535  0.2347
  249loPI   C4A 3978   1.230   5.386   8.270 -0.0576 -0.2640 -0.0831
  249loPI   C5A 3979   1.250   5.812   8.109  0.2156  0.2712  0.0686
  249loPI   C6A 3980   1.012   6.035   7.817 -0.1230  0.3343  0.0359
  249loPI   C1B 3981   0.888   5.273   9.515 -0.1119  0.2720  0.4329
  249loPI   C2B 3982   0.900   5.239   9.073  0.1834  0.0387  0.0852
  249loPI   C3B 3983   0.884   5.255   8.588 -0.1962  0.1505  0.0466
  249loPI   C4B 3984   0.733   5.264   8.208 -0.0841  0.0221  0.2250
  250loPI    C1 3985   0.625   7.141  10.911  0.1204  0.1118 -0.1110
  250loPI    C2 3986   0.578   7.328  11.262  0.1636  0.0258 -0.0593
  250loPI    C3 3987   0.808   7.002  11.238  0.0303 -0.0637 -0.1343
  250loPI   PO4 3988   0.712   7.284  10.747  0.0534  0.2366 -0.1889
  250loPI   GL1 3989   0.607   7.255  10.367 -0.0544 -0.0833 -0.1200
  250loPI   GL2 3990   0.398   7.023  10.276  0.2708 -0.0844 -0.1001
  250loPI   C1A 3991   0.804   7.459  10.046  0.0571 -0.4646 -0.3192
  250loPI   C2A 3992   0.755   7.498   9.651  0.0981  0.0658  0.0097
  250loPI   C3A 3993   0.714   7.510   9.235  0.3084  0.2117  0.1691
  250loPI   C4A 3994   0.759   7.487   8.830 -0.0698 -0.0652 -0.4384
  250loPI   C5A 3995   0.723   7.616   8.335 -0.0873  0.0397  0.1415
  250loPI   C6A 3996   0.949   7.258   8.088 -0.0010 -0.0427  0.0647
  250loPI   C1B 3997   0.539   7.118   9.898 -0.3800  0.0988  0.1800
  250loPI   C2B 3998   0.593   6.960   9.493  0.0474 -0.0940  0.1413
  250loPI   C3B 3999   0.560   6.942   9.057  0.2078  0.0090 -0.0140
  250loPI   C4B 4000   0.656   7.079   8.557 -0.4799  0.1100 -0.1515
  251loPI    C1 4001  11.301  16.948  10.699 -0.2534  0.2076 -0.4443
  251loPI    C2 4002  11.544  17.233  10.839  0.1191 -0.3211  0.0298
  251loPI    C3 4003  11.164  17.215  10.963 -0.0109  0.1631 -0.2703
  251loPI   PO4 4004  11.464  16.737  10.679  0.0032  0.1497  0.0287
  251loPI   GL1 4005  11.563  16.569  10.339  0.0751 -0.1340  0.1666
  251loPI   GL2 4006  11.431  16.313  10.198 -0.2869  0.2221  0.0590
  251loPI   C1A 4007  11.364  16.745   9.979 -0.0767  0.1792 -0.3651
  251loPI   C2A 4008  11.274  16.730   9.491  0.0294 -0.0545 -0.2576
  251loPI   C3A 4009  11.136  16.834   9.040 -0.2001 -0.1361 -0.1293
  251loPI   C4A 4010  11.169  16.937   8.624  0.0083  0.2595  0.0683
  251loPI   C5A 4011  11.344  16.894   8.342 -0.3422 -0.0965 -0.6100
  251loPI   C6A 4012  11.526  16.720   7.893 -0.1332  0.1178  0.0893
  251loPI   C1B 4013  11.606  16.374   9.706  0.3471 -0.1205 -0.2775
  251loPI   C2B 4014  11.520  16.352   9.260 -0.2710  0.2861  0.2181
  251loPI   C3B 4015  11.473  16.316   8.836 -0.0274  0.0756 -0.0319
  251loPI   C4B 4016  11.620  16.349   8.369 -0.2054  0.0343  0.0846
  252loPI    C1 4017   3.236   9.139  10.869 -0.0423  0.1400  0.0767
  252loPI    C2 4018   2.938   9.040  11.117 -0.0608 -0.0002 -0.0004
  252loPI    C3 4019   3.293   9.151  11.265 -0.0764 -0.0680  0.0889
  252loPI   PO4 4020   3.194   9.261  10.693 -0.0897  0.1845  0.0540
  252loPI   GL1 4021   3.014   9.133  10.347  0.0382  0.3012  0.5939
  252loPI   GL2 4022   2.796   9.322  10.308 -0.0296 -0.0331 -0.2315
  252loPI   C1A 4023   3.130   8.824   9.972 -0.1141  0.0076  0.2963
  252loPI   C2A 4024   3.123   8.758   9.606  0.2722 -0.4899  0.0382
  252loPI   C3A 4025   3.222   8.861   9.167  0.1656  0.3812  0.0953
  252loPI   C4A 4026   3.263   8.972   8.732  0.0452 -0.0246  0.0683
  252loPI   C5A 4027   3.216   8.908   8.284 -0.2832  0.5567  0.1013
  252loPI   C6A 4028   3.079   8.744   7.898 -0.0060 -0.0111  0.0182
  252loPI   C1B 4029   2.789   9.167   9.885  0.2133 -0.3590  0.0479
  252loPI   C2B 4030   2.828   9.166   9.405  0.1442  0.0606 -0.0492
  252loPI   C3B 4031   2.906   9.279   8.983 -0.1219 -0.0700 -0.2369
  252loPI   C4B 4032   2.929   9.301   8.567  0.3427 -0.0952 -0.0343
  253loPI    C1 4033  11.358  11.282  10.834  0.0717  0.0677 -0.0590
  253loPI    C2 4034  11.622  10.990  10.763  0.2173  0.1528  0.1234
  253loPI    C3 4035  11.729  11.308  10.981 -0.0613  0.1475  0.2730
  253loPI   PO4 4036  11.276  11.423  10.528 -0.0970 -0.1635  0.0360
  253loPI   GL1 4037  11.327  11.710  10.172 -0.2762  0.0017 -0.0086
  253loPI   GL2 4038  11.084  11.661  10.050  0.0463  0.0676  0.2822
  253loPI   C1A 4039  11.563  11.883   9.880  0.1827 -0.2490 -0.1303
  253loPI   C2A 4040  11.580  11.892   9.471 -0.2049 -0.0385  0.3298
  253loPI   C3A 4041  11.591  11.837   9.053 -0.1298 -0.0350 -0.2739
  253loPI   C4A 4042  11.699  11.775   8.656 -0.0793  0.1628  0.1864
  253loPI   C5A 4043  11.612  11.748   8.186  0.0384 -0.1570 -0.2384
  253loPI   C6A 4044  11.284  11.449   8.028  0.0586 -0.0146 -0.2339
  253loPI   C1B 4045  11.068  11.814   9.650 -0.2972 -0.0269  0.1775
  253loPI   C2B 4046  11.092  11.795   9.175 -0.2143 -0.0872  0.0308
  253loPI   C3B 4047  11.112  11.779   8.800 -0.1135  0.2202  0.3959
  253loPI   C4B 4048  11.196  11.599   8.490 -0.2417  0.0965  0.0448
  254loPI    C1 4049   1.298  14.479  11.239  0.0028  0.0650  0.1375
  254loPI    C2 4050   1.530  14.532  10.917 -0.0264 -0.1955  0.0713
  254loPI    C3 4051   1.408  14.848  11.130 -0.0902 -0.0125 -0.2317
  254loPI   PO4 4052   1.152  14.376  11.177 -0.2223 -0.1550 -0.0353
  254loPI   GL1 4053   1.190  14.297  10.693  0.0402 -0.2870  0.0462
  254loPI   GL2 4054   1.228  14.080  10.615 -0.0983 -0.0133 -0.2503
  254loPI   C1A 4055   0.992  14.499  10.395 -0.1469 -0.0606 -0.1123
  254loPI   C2A 4056   0.872  14.476  10.013  0.3619  0.1700  0.2198
  254loPI   C3A 4057   0.806  14.456   9.610 -0.1012 -0.0625 -0.0097
  254loPI   C4A 4058   0.928  14.360   9.175  0.0734  0.5146  0.1691
  254loPI   C5A 4059   0.834  14.414   8.787 -0.1193 -0.0099 -0.4248
  254loPI   C6A 4060   0.599  14.804   8.603  0.0348  0.0554 -0.0572
  254loPI   C1B 4061   1.369  14.215  10.182 -0.0278  0.3449 -0.0003
  254loPI   C2B 4062   1.256  14.115   9.798  0.1820  0.1429  0.4145
  254loPI   C3B 4063   1.189  13.990   9.427  0.0533 -0.0633  0.0569
  254loPI   C4B 4064   1.223  13.984   8.978  0.2483 -0.2822 -0.1623
  255loPI    C1 4065   0.721  15.315  11.253  0.0523  0.1522  0.2817
  255loPI    C2 4066   1.096  15.223  11.355  0.0855 -0.0250  0.0108
  255loPI    C3 4067   0.790  15.034  11.530  0.1309 -0.0828  0.0282
  255loPI   PO4 4068   0.587  15.248  11.060 -0.0870  0.3092  0.2938
  255loPI   GL1 4069   0.427  15.212  10.679 -0.2934  0.0177  0.2082
  255loPI   GL2 4070   0.637  14.924  10.633  0.1944  0.1230 -0.0529
  255loPI   C1A 4071   0.389  15.263  10.285  0.0495 -0.0905 -0.3413
  255loPI   C2A 4072   0.255  15.313   9.885 -0.1129  0.1854 -0.0568
  255loPI   C3A 4073   0.288  15.273   9.357  0.1947  0.1493 -0.2124
  255loPI   C4A 4074   0.332  15.116   8.947 -0.0908 -0.0554  0.1767
  255loPI   C5A 4075   0.021  15.193   8.680  0.0327  0.1433 -0.0260
  255loPI   C6A 4076  -0.282  14.915   8.555  0.1294  0.1854 -0.2314
  255loPI   C1B 4077   0.717  14.918  10.319 -0.2004  0.0448  0.0501
  255loPI   C2B 4078   0.521  14.871  10.001 -0.2197 -0.0306 -0.2752
  255loPI   C3B 4079   0.452  14.878   9.586 -0.2307  0.1476 -0.3591
  255loPI   C4B 4080   0.589  14.763   9.192 -0.2877  0.1904  0.1499
  256loPI    C1 4081  14.113   9.569  10.873  0.0460 -0.0328 -0.0451
  256loPI    C2 4082  13.797   9.494  11.107  0.0091  0.0279 -0.0751
  256loPI    C3 4083  14.145   9.607  11.270 -0.0952  0.3449 -0.0659
  256loPI   PO4 4084  13.954   9.626  10.660  0.3265  0.0326  0.1799
  256loPI   GL1 4085  14.023   9.685  10.320 -0.3673  0.0053  0.0505
  256loPI   GL2 4086  14.088   9.979  10.221 -0.0540  0.2483  0.1006
  256loPI   C1A 4087  14.033   9.408   9.939  0.0741  0.0901  0.1075
  256loPI   C2A 4088  14.187   9.450   9.472 -0.0802  0.1914 -0.1167
  256loPI   C3A 4089  14.306   9.319   9.017 -0.1745  0.1842  0.2788
  256loPI   C4A 4090  14.339   9.324   8.559  0.1191 -0.2365  0.0323
  256loPI   C5A 4091  14.163   9.368   8.241  0.1289 -0.0041 -0.0988
  256loPI   C6A 4092  14.231   9.611   7.858  0.2269  0.1041 -0.1329
  256loPI   C1B 4093  14.250   9.926   9.754 -0.0742 -0.1601 -0.2920
  256loPI   C2B 4094  14.384   9.965   9.332 -0.0750 -0.1092 -0.0545
  256loPI   C3B 4095  14.435   9.824   8.927  0.2636  0.4300  0.0020
  256loPI   C4B 4096  14.432   9.783   8.469 -0.0168 -0.0411  0.2658
  257loPI    C1 4097  10.072   2.359  11.085 -0.1825 -0.0714  0.0774
  257loPI    C2 4098   9.805   2.543  11.320 -0.1421 -0.0402  0.0990
  257loPI    C3 4099  10.197   2.599  11.380 -0.1325  0.0374 -0.0314
  257loPI   PO4 4100   9.760   2.213  10.922  0.4637  0.2716 -0.3229
  257loPI   GL1 4101   9.621   1.983  10.396 -0.0165 -0.1864  0.0533
  257loPI   GL2 4102   9.311   2.016  10.274 -0.0540  0.1434  0.1238
  257loPI   C1A 4103   9.957   2.195  10.153  0.0552 -0.2179 -0.0382
  257loPI   C2A 4104  10.032   2.319   9.705 -0.5227 -0.2533  0.1788
  257loPI   C3A 4105   9.989   2.318   9.289  0.1949  0.1490 -0.2032
  257loPI   C4A 4106   9.846   2.321   8.862  0.0112  0.2013  0.3267
  257loPI   C5A 4107   9.913   2.323   8.479  0.0383 -0.1043  0.0307
  257loPI   C6A 4108  10.170   2.533   8.305  0.1389  0.0234 -0.1535
  257loPI   C1B 4109   9.506   2.142   9.885 -0.0172  0.1521 -0.0805
  257loPI   C2B 4110   9.558   2.183   9.530  0.1473  0.3067 -0.0894
  257loPI   C3B 4111   9.405   2.272   9.199  0.0427 -0.2206  0.2383
  257loPI   C4B 4112   9.363   2.241   8.720 -0.0434 -0.2481  0.0489
  258loPI    C1 4113   6.614   5.755  10.925  0.1890  0.1139 -0.1281
  258loPI    C2 4114   6.432   6.111  10.935 -0.1002 -0.0291 -0.1919
  258loPI    C3 4115   6.298   5.811  11.163  0.1404 -0.0998 -0.1402
  258loPI   PO4 4116   6.631   5.694  10.705 -0.1706 -0.0344  0.1004
  258loPI   GL1 4117   6.580   5.692  10.362 -0.1423 -0.0999 -0.5408
  258loPI   GL2 4118   6.330   5.426  10.325 -0.0278 -0.0234  0.0594
  258loPI   C1A 4119   6.466   5.752   9.925  0.0420 -0.0433  0.2391
  258loPI   C2A 4120   6.439   5.747   9.463 -0.0614  0.2632 -0.1231
  258loPI   C3A 4121   6.352   5.722   9.041 -0.0524 -0.1877 -0.2381
  258loPI   C4A 4122   6.436   5.720   8.666  0.0274  0.2128  0.0840
  258loPI   C5A 4123   6.542   5.852   8.300 -0.3205 -0.3102 -0.1239
  258loPI   C6A 4124   6.315   5.600   7.942  0.1833  0.0930 -0.0449
  258loPI   C1B 4125   6.350   5.279  10.000  0.0692  0.1025  0.1809
  258loPI   C2B 4126   6.300   5.253   9.622  0.1276  0.0659  0.0061
  258loPI   C3B 4127   6.295   5.234   9.155 -0.1474 -0.0980  0.0908
  258loPI   C4B 4128   6.205   5.190   8.724 -0.1229  0.1963  0.0700
  259loPI    C1 4129   4.877  12.422  11.153 -0.0154 -0.0608 -0.0709
  259loPI    C2 4130   4.514  12.544  11.267 -0.0418 -0.1032 -0.1093
  259loPI    C3 4131   4.799  12.482  11.541 -0.0634 -0.0702 -0.0792
  259loPI   PO4 4132   4.749  12.459  10.847 -0.2492  0.1214 -0.1544
  259loPI   GL1 4133   4.772  12.651  10.513 -0.1704 -0.0671  0.3298
  259loPI   GL2 4134   4.436  12.596  10.365  0.0445  0.2046 -0.0122
  259loPI   C1A 4135   4.941  12.529  10.180 -0.0159  0.1637 -0.0369
  259loPI   C2A 4136   4.851  12.293   9.833  0.2626 -0.0806 -0.2335
  259loPI   C3A 4137   4.910  12.364   9.423 -0.1405  0.2090  0.0668
  259loPI   C4A 4138   4.850  12.361   8.954 -0.2843 -0.0255  0.1340
  259loPI   C5A 4139   4.880  12.471   8.542  0.1649  0.1750  0.2630
  259loPI   C6A 4140   4.887  12.370   8.111 -0.0395 -0.1426  0.1407
  259loPI   C1B 4141   4.402  12.382  10.020  0.2979 -0.0266 -0.0115
  259loPI   C2B 4142   4.452  12.333   9.533 -0.0065 -0.0618 -0.0921
  259loPI   C3B 4143   4.366  12.320   9.109 -0.2402  0.0342 -0.0310
  259loPI   C4B 4144   4.395  12.312   8.671 -0.0612 -0.2773  0.1028
  260loPI    C1 4145   8.521   1.906  10.924 -0.0473 -0.0807 -0.1515
  260loPI    C2 4146   8.856   2.075  11.061 -0.0656 -0.0369 -0.1607
  260loPI    C3 4147   8.515   2.114  11.265 -0.0514 -0.1366 -0.1176
  260loPI   PO4 4148   8.531   1.972  10.643 -0.0398  0.2763 -0.1214
  260loPI   GL1 4149   8.876   2.158  10.501  0.0646  0.0977 -0.4441
  260loPI   GL2 4150   8.815   2.023  10.275 -0.4040 -0.1628  0.1604
  260loPI   C1A 4151   8.585   2.431  10.253  0.3115 -0.1817 -0.0227
  260loPI   C2A 4152   8.580   2.503   9.963  0.1007  0.0820 -0.2648
  260loPI   C3A 4153   8.535   2.548   9.519 -0.3326 -0.1169 -0.0725
  260loPI   C4A 4154   8.604   2.442   9.113  0.0533 -0.3813  0.3981
  260loPI   C5A 4155   8.529   2.431   8.668 -0.0817 -0.1007 -0.0328
  260loPI   C6A 4156   8.401   2.527   8.290  0.0879 -0.1068 -0.1703
  260loPI   C1B 4157   8.921   2.093   9.915 -0.0514  0.3421 -0.1075
  260loPI   C2B 4158   8.965   2.131   9.537 -0.3439  0.0261  0.0440
  260loPI   C3B 4159   8.813   2.009   9.242  0.0066 -0.0491 -0.2053
  260loPI   C4B 4160   8.882   2.135   8.893 -0.2584 -0.0743  0.1952
  261loPI    C1 4161   9.822   6.899  10.727  0.1254  0.0294  0.1416
  261loPI    C2 4162   9.562   6.775  10.450  0.1695  0.0706  0.0816
  261loPI    C3 4163   9.495   6.697  10.836  0.0988  0.0284  0.0610
  261loPI   PO4 4164  10.092   6.847  10.611  0.4843  0.1822  0.0626
  261loPI   GL1 4165  10.081   6.590  10.323 -0.0531 -0.2276 -0.0704
  261loPI   GL2 4166  10.365   6.585  10.265  0.1943  0.0040 -0.0620
  261loPI   C1A 4167  10.087   6.330   9.942  0.1623  0.0289  0.3545
  261loPI   C2A 4168  10.043   6.405   9.487  0.1893 -0.3031  0.2902
  261loPI   C3A 4169   9.930   6.466   9.004 -0.0080  0.1283  0.0857
  261loPI   C4A 4170  10.099   6.502   8.543 -0.2164  0.0905  0.0095
  261loPI   C5A 4171  10.019   6.713   8.220  0.1228  0.0710 -0.4072
  261loPI   C6A 4172   9.644   6.945   8.204  0.1786 -0.0876 -0.2375
  261loPI   C1B 4173  10.590   6.419   9.990 -0.0095 -0.3286 -0.3565
  261loPI   C2B 4174  10.607   6.430   9.552  0.0282 -0.1742 -0.1376
  261loPI   C3B 4175  10.439   6.484   9.138 -0.1625 -0.1480 -0.0879
  261loPI   C4B 4176  10.571   6.591   8.784  0.0447  0.0225  0.0610
  262loPI    C1 4177  15.766  14.686  11.463 -0.0345 -0.0874 -0.0434
  262loPI    C2 4178  15.464  14.796  11.701 -0.0881  0.1316 -0.2090
  262loPI    C3 4179  15.842  14.852  11.819 -0.1052 -0.2814  0.0637
  262loPI   PO4 4180  15.833  14.853  11.225  0.0406  0.0119  0.2255
  262loPI   GL1 4181  15.848  14.804  10.813  0.1489  0.0734  0.0655
  262loPI   GL2 4182  16.108  14.881  10.660  0.1042 -0.1258 -0.3009
  262loPI   C1A 4183  15.722  14.679  10.442 -0.0852  0.2743  0.1216
  262loPI   C2A 4184  15.634  14.727   9.977 -0.0415 -0.0957 -0.1011
  262loPI   C3A 4185  15.627  14.872   9.535 -0.0176 -0.2737  0.2871
  262loPI   C4A 4186  15.556  14.734   9.160  0.1775  0.0079 -0.0756
  262loPI   C5A 4187  15.604  14.902   8.784  0.0074  0.1375 -0.2473
  262loPI   C6A 4188  16.055  15.015   8.602  0.0574 -0.0839  0.1088
  262loPI   C1B 4189  16.187  14.735  10.338 -0.1664  0.0850 -0.4345
  262loPI   C2B 4190  16.224  14.868   9.967  0.2928  0.1160 -0.0546
  262loPI   C3B 4191  16.121  14.887   9.554  0.1910 -0.0607 -0.1086
  262loPI   C4B 4192  16.040  14.902   9.113  0.1665 -0.0271 -0.1450
  263loPI    C1 4193   5.430  11.908  11.108 -0.0579 -0.0018 -0.1678
  263loPI    C2 4194   5.646  11.898  11.445 -0.1721  0.0861 -0.0911
  263loPI    C3 4195   5.324  11.664  11.406  0.1277 -0.2977 -0.3392
  263loPI   PO4 4196   5.244  12.131  10.930 -0.0917 -0.0590  0.0348
  263loPI   GL1 4197   5.145  12.035  10.538 -0.1545  0.2003 -0.2237
  263loPI   GL2 4198   4.797  12.095  10.483  0.2707 -0.0127 -0.1301
  263loPI   C1A 4199   5.203  11.956  10.217 -0.0257  0.1111  0.1881
  263loPI   C2A 4200   5.182  11.978   9.861 -0.1537 -0.1494 -0.1509
  263loPI   C3A 4201   5.181  11.916   9.521 -0.1738 -0.4081  0.1795
  263loPI   C4A 4202   5.258  11.990   9.165  0.2047  0.0250  0.0551
  263loPI   C5A 4203   5.219  11.962   8.671  0.0123  0.4771  0.3298
  263loPI   C6A 4204   5.488  11.743   8.284 -0.1340 -0.1167 -0.1007
  263loPI   C1B 4205   4.685  11.942  10.148  0.1869 -0.0710 -0.0959
  263loPI   C2B 4206   4.652  11.869   9.830 -0.2503  0.0366  0.3115
  263loPI   C3B 4207   4.664  11.879   9.337  0.0410 -0.0363  0.1407
  263loPI   C4B 4208   4.694  11.881   8.844 -0.0118 -0.2561  0.3032
  264loPI    C1 4209   1.007   3.848  10.683  0.0977  0.1935 -0.2348
  264loPI    C2 4210   1.047   4.237  10.770  0.2913  0.1066  0.0832
  264loPI    C3 4211   0.769   4.018  10.956  0.0811  0.1233 -0.2053
  264loPI   PO4 4212   1.086   3.811  10.438  0.0417  0.1014  0.0155
  264loPI   GL1 4213   1.131   4.020   9.928  0.0193 -0.1877  0.2724
  264loPI   GL2 4214   0.972   4.292   9.713 -0.0835  0.0301 -0.0557
  264loPI   C1A 4215   0.813   3.819   9.624 -0.3777 -0.3064 -0.3768
  264loPI   C2A 4216   0.780   3.877   9.157 -0.1323  0.2346 -0.0708
  264loPI   C3A 4217   0.803   3.860   8.791  0.1930  0.1463  0.1112
  264loPI   C4A 4218   0.808   3.802   8.296  0.3544  0.0208  0.2084
  264loPI   C5A 4219   0.921   3.909   7.955 -0.3123  0.1032  0.2920
  264loPI   C6A 4220   1.180   4.169   7.792 -0.0060 -0.2608 -0.0586
  264loPI   C1B 4221   1.080   4.236   9.301 -0.0973  0.0130 -0.1478
  264loPI   C2B 4222   0.973   4.324   8.930 -0.2038  0.2262  0.1356
  264loPI   C3B 4223   1.027   4.355   8.485 -0.0343 -0.2208 -0.4115
  264loPI   C4B 4224   1.083   4.517   8.157  0.2302 -0.0702  0.0879
  265loPI    C1 4225  13.460  11.552  10.838 -0.1611  0.1679 -0.0239
  265loPI    C2 4226  13.381  11.430  11.210 -0.1087  0.0883 -0.0386
  265loPI    C3 4227  13.082  11.492  10.952 -0.1377  0.0237 -0.0207
  265loPI   PO4 4228  13.545  11.760  10.800 -0.0919  0.0264 -0.0853
  265loPI   GL1 4229  13.598  12.075  10.591 -0.1356 -0.0111  0.0921
  265loPI   GL2 4230  13.331  12.163  10.387 -0.0697 -0.0286 -0.0946
  265loPI   C1A 4231  13.670  12.248  10.054  0.1028 -0.0723  0.2808
  265loPI   C2A 4232  13.552  12.136   9.589  0.2388 -0.0429  0.3958
  265loPI   C3A 4233  13.783  12.202   9.183 -0.0978  0.0801  0.2827
  265loPI   C4A 4234  13.797  12.215   8.868  0.1301 -0.2391  0.1066
  265loPI   C5A 4235  13.755  11.898   8.505 -0.2577 -0.0969 -0.1657
  265loPI   C6A 4236  13.732  11.441   8.332  0.3054  0.2417 -0.4152
  265loPI   C1B 4237  13.069  12.023  10.104 -0.2645 -0.3384 -0.1513
  265loPI   C2B 4238  13.088  12.079   9.684 -0.0138  0.1749 -0.2130
  265loPI   C3B 4239  13.231  12.107   9.204  0.0296 -0.2068 -0.3547
  265loPI   C4B 4240  13.301  12.014   8.804 -0.1288 -0.0221 -0.0596
  266loPI    C1 4241   6.594  17.735  10.800  0.1619 -0.2015  0.0228
  266loPI    C2 4242   6.325  17.562  11.040  0.0775  0.1320  0.1749
  266loPI    C3 4243   6.652  17.731  11.196  0.2064  0.0281  0.0200
  266loPI   PO4 4244   6.484  17.903  10.618 -0.3839  0.2536 -0.1178
  266loPI   GL1 4245   6.446  17.915  10.268  0.1805 -0.0328 -0.0157
  266loPI   GL2 4246   6.604  17.902  10.034 -0.0859  0.0905 -0.2243
  266loPI   C1A 4247   6.134  17.825   9.889  0.1782 -0.2105  0.1642
  266loPI   C2A 4248   6.137  17.706   9.514  0.1149  0.1267  0.2495
  266loPI   C3A 4249   6.103  17.775   9.076 -0.1420  0.0597  0.0283
  266loPI   C4A 4250   6.116  17.689   8.618  0.1397  0.0674  0.2713
  266loPI   C5A 4251   6.061  17.776   8.098  0.1188  0.0420  0.0754
  266loPI   C6A 4252   5.858  17.972   7.803 -0.1880 -0.0737  0.1042
  266loPI   C1B 4253   6.695  17.723   9.605  0.0749 -0.0498  0.2544
  266loPI   C2B 4254   6.643  17.811   9.202  0.0893  0.1173  0.2331
  266loPI   C3B 4255   6.638  17.798   8.855 -0.1284 -0.2432 -0.1354
  266loPI   C4B 4256   6.536  17.887   8.439 -0.0483  0.1232 -0.0231
  267loPI    C1 4257   8.455  17.051  10.951 -0.1227 -0.0959  0.1062
  267loPI    C2 4258   8.788  17.272  10.941 -0.0558 -0.1899  0.2228
  267loPI    C3 4259   8.444  17.434  11.066 -0.0739 -0.0690  0.0224
  267loPI   PO4 4260   8.414  16.909  10.754  0.0253  0.2665 -0.1085
  267loPI   GL1 4261   8.527  16.911  10.320 -0.1219  0.0434  0.2927
  267loPI   GL2 4262   8.724  16.665  10.146  0.0916  0.1645  0.4026
  267loPI   C1A 4263   8.377  17.194   9.978  0.0272 -0.0819  0.1536
  267loPI   C2A 4264   8.406  17.197   9.577  0.0483 -0.0492  0.0252
  267loPI   C3A 4265   8.435  17.222   9.148  0.0297  0.2138 -0.0039
  267loPI   C4A 4266   8.456  17.197   8.755 -0.1377 -0.0783 -0.0592
  267loPI   C5A 4267   8.370  17.239   8.291  0.0056 -0.0434 -0.0835
  267loPI   C6A 4268   8.548  17.082   7.922  0.2300  0.1385  0.1028
  267loPI   C1B 4269   8.681  16.819   9.704 -0.2038  0.1927  0.1316
  267loPI   C2B 4270   8.750  16.832   9.243  0.4766 -0.2514  0.0895
  267loPI   C3B 4271   8.683  16.781   8.845  0.0684  0.1046  0.2538
  267loPI   C4B 4272   8.633  16.843   8.443 -0.2374 -0.0094  0.0622
  268loPI    C1 4273   8.789   8.690  10.677  0.0444  0.1186 -0.0571
  268loPI    C2 4274   9.081   8.657  10.949 -0.0286 -0.0687  0.0004
  268loPI    C3 4275   8.723   8.799  11.056  0.0532  0.2043 -0.0801
  268loPI   PO4 4276   8.757   8.445  10.560 -0.3141 -0.0311 -0.0712
  268loPI   GL1 4277   8.685   8.369  10.177 -0.0385 -0.3468 -0.0605
  268loPI   GL2 4278   8.951   8.440  10.005  0.1538 -0.1818 -0.0522
  268loPI   C1A 4279   8.766   8.002   9.864 -0.0365 -0.1844 -0.1789
  268loPI   C2A 4280   8.691   8.035   9.427  0.0872 -0.1221  0.0567
  268loPI   C3A 4281   8.626   7.975   8.985 -0.1090 -0.0406 -0.1124
  268loPI   C4A 4282   8.722   8.100   8.585 -0.1727  0.0060 -0.2274
  268loPI   C5A 4283   8.637   8.245   8.124 -0.1279 -0.0937  0.0822
  268loPI   C6A 4284   8.507   8.617   7.829  0.2162 -0.2440  0.2870
  268loPI   C1B 4285   8.865   8.435   9.653  0.2257  0.2011 -0.1908
  268loPI   C2B 4286   8.923   8.539   9.203  0.1107 -0.3261 -0.0145
  268loPI   C3B 4287   8.943   8.600   8.836  0.2018  0.0324 -0.3998
  268loPI   C4B 4288   9.031   8.490   8.465 -0.3214  0.0129 -0.0306
  269loPI    C1 4289   5.596   2.962  10.732  0.1307 -0.1133 -0.2083
  269loPI    C2 4290   5.428   2.635  10.890 -0.1573  0.0590 -0.1511
  269loPI    C3 4291   5.826   2.672  10.885 -0.1332 -0.1044  0.2238
  269loPI   PO4 4292   5.528   3.018  10.565  0.2263 -0.0904 -0.1682
  269loPI   GL1 4293   5.443   3.156  10.218  0.0246 -0.1892  0.0956
  269loPI   GL2 4294   5.246   2.944  10.137  0.2336  0.1348  0.2661
  269loPI   C1A 4295   5.577   3.293   9.853  0.2859 -0.1122  0.1680
  269loPI   C2A 4296   5.573   3.259   9.487  0.2216  0.1461  0.0377
  269loPI   C3A 4297   5.500   3.220   8.979 -0.1394  0.2438  0.1686
  269loPI   C4A 4298   5.418   3.284   8.602  0.3154  0.0055 -0.1452
  269loPI   C5A 4299   5.579   3.604   8.355  0.4275  0.0509  0.0756
  269loPI   C6A 4300   5.348   3.630   7.950 -0.3750 -0.1990 -0.0151
  269loPI   C1B 4301   5.290   2.849   9.726 -0.0099 -0.0092  0.0900
  269loPI   C2B 4302   5.347   2.843   9.274 -0.2775 -0.3474  0.0645
  269loPI   C3B 4303   5.283   2.786   8.928 -0.1644 -0.1100 -0.2199
  269loPI   C4B 4304   5.327   2.782   8.492  0.1584 -0.0823 -0.1350
  270loPI    C1 4305  17.479  16.062  11.300  0.0897  0.2482  0.0220
  270loPI    C2 4306  17.216  16.300  11.487  0.0464  0.0503  0.2175
  270loPI    C3 4307  17.209  15.905  11.551  0.2761  0.0229  0.0845
  270loPI   PO4 4308  17.450  16.107  11.027 -0.2062  0.1776 -0.2659
  270loPI   GL1 4309  17.604  16.204  10.607  0.0372 -0.2366 -0.1868
  270loPI   GL2 4310  17.879  16.054  10.574  0.0155 -0.2897 -0.0394
  270loPI   C1A 4311  17.608  16.007  10.190 -0.0055  0.0359 -0.1561
  270loPI   C2A 4312  17.566  16.089   9.744 -0.0462 -0.2543 -0.1365
  270loPI   C3A 4313  17.625  16.060   9.215  0.3581  0.0508  0.2014
  270loPI   C4A 4314  17.566  15.969   8.754 -0.1643  0.0140 -0.1476
  270loPI   C5A 4315  17.342  15.881   8.386  0.1487  0.0676 -0.1691
  270loPI   C6A 4316  17.305  15.830   7.932 -0.0027 -0.0910  0.0867
  270loPI   C1B 4317  18.081  16.122  10.184 -0.2741 -0.3662 -0.3510
  270loPI   C2B 4318  18.076  16.134   9.815 -0.2693 -0.2740  0.1283
  270loPI   C3B 4319  18.113  16.061   9.368  0.1190  0.0838  0.1112
  270loPI   C4B 4320  18.037  16.155   8.874 -0.0137 -0.1054 -0.1578
  271loPI    C1 4321  12.627   3.466  11.239 -0.0772  0.0714  0.1005
  271loPI    C2 4322  12.633   3.195  11.534 -0.3019  0.1325  0.1631
  271loPI    C3 4323  12.950   3.431  11.473 -0.0981 -0.1528  0.0983
  271loPI   PO4 4324  12.548   3.307  10.999 -0.0785  0.1744  0.2548
  271loPI   GL1 4325  12.372   3.159  10.499 -0.1051 -0.1193 -0.0682
  271loPI   GL2 4326  12.594   3.334  10.264 -0.4738  0.1987 -0.1863
  271loPI   C1A 4327  12.136   3.198  10.056  0.0476 -0.0032  0.2376
  271loPI   C2A 4328  12.165   3.157   9.648  0.0651 -0.0100 -0.0142
  271loPI   C3A 4329  12.274   3.183   9.151  0.0344 -0.0201  0.1027
  271loPI   C4A 4330  12.318   3.246   8.763 -0.5110  0.2710  0.0996
  271loPI   C5A 4331  12.337   2.976   8.409  0.0592 -0.0187 -0.1952
  271loPI   C6A 4332  12.296   2.991   7.977  0.0022 -0.0487 -0.0841
  271loPI   C1B 4333  12.773   3.187   9.870 -0.2184 -0.2471  0.2463
  271loPI   C2B 4334  12.737   3.257   9.443 -0.0088  0.1338  0.0299
  271loPI   C3B 4335  12.810   3.200   8.999  0.0629 -0.1610 -0.2518
  271loPI   C4B 4336  12.825   3.396   8.535  0.2356 -0.1388  0.1088
  272loPI    C1 4337  17.067   7.991  10.651  0.0028  0.0578 -0.2479
  272loPI    C2 4338  16.801   8.017  10.948  0.1342  0.2153 -0.1419
  272loPI    C3 4339  16.963   7.664  10.855  0.1154  0.1701 -0.0058
  272loPI   PO4 4340  17.213   8.130  10.679  0.3662  0.3348 -0.0652
  272loPI   GL1 4341  17.500   8.224  10.433  0.0868  0.0218 -0.0912
  272loPI   GL2 4342  17.571   8.583  10.261  0.0922 -0.0052  0.0674
  272loPI   C1A 4343  17.511   8.252   9.950  0.2191 -0.2151  0.1154
  272loPI   C2A 4344  17.678   8.318   9.507 -0.0420 -0.1903  0.0517
  272loPI   C3A 4345  17.638   8.302   9.114  0.3213  0.1709 -0.3216
  272loPI   C4A 4346  17.556   8.172   8.697 -0.1070  0.0571 -0.4090
  272loPI   C5A 4347  17.309   8.337   8.348 -0.0809  0.0446  0.1402
  272loPI   C6A 4348  16.888   8.173   8.263  0.3288  0.2455  0.1181
  272loPI   C1B 4349  17.730   8.727   9.883  0.0450 -0.2279 -0.0549
  272loPI   C2B 4350  17.811   8.802   9.489  0.1441  0.0498 -0.2295
  272loPI   C3B 4351  17.837   8.775   9.038 -0.0766  0.0930 -0.0188
  272loPI   C4B 4352  17.707   8.650   8.674 -0.5278 -0.1170 -0.3248
  273loPI    C1 4353   3.574   3.871  10.859 -0.0581  0.1039 -0.0193
  273loPI    C2 4354   3.646   4.229  10.696  0.0140  0.0442 -0.1197
  273loPI    C3 4355   3.480   4.205  11.059 -0.2049  0.1781 -0.2084
  273loPI   PO4 4356   3.466   3.731  10.700  0.1192 -0.0543  0.0161
  273loPI   GL1 4357   3.402   3.541  10.398  0.0216  0.1948 -0.1110
  273loPI   GL2 4358   3.144   3.474  10.262  0.0102 -0.0708  0.2851
  273loPI   C1A 4359   3.644   3.503   9.995 -0.3533  0.1325  0.0518
  273loPI   C2A 4360   3.689   3.364   9.576 -0.1445  0.0194  0.2870
  273loPI   C3A 4361   3.599   3.368   9.114 -0.1446 -0.0198 -0.5068
  273loPI   C4A 4362   3.560   3.399   8.703 -0.0184 -0.1640 -0.0170
  273loPI   C5A 4363   3.611   3.634   8.318 -0.4931  0.5295  0.1114
  273loPI   C6A 4364   3.587   4.062   8.044  0.0518  0.4404  0.0908
  273loPI   C1B 4365   3.161   3.332   9.822 -0.1871  0.5915  0.1407
  273loPI   C2B 4366   3.177   3.346   9.383  0.2261  0.2283  0.0439
  273loPI   C3B 4367   3.114   3.262   8.995  0.0451 -0.1250  0.1919
  273loPI   C4B 4368   3.064   3.359   8.622  0.2709 -0.1500  0.1122
  274loPI    C1 4369   5.374   6.772  10.630  0.0659  0.3672 -0.1290
  274loPI    C2 4370   5.144   7.052  10.799 -0.0126  0.1665  0.1027
  274loPI    C3 4371   5.270   6.739  11.015  0.2641  0.1395 -0.0919
  274loPI   PO4 4372   5.212   6.716  10.408 -0.1310 -0.0391  0.3338
  274loPI   GL1 4373   4.989   6.480  10.026  0.0879 -0.2337  0.0364
  274loPI   GL2 4374   5.274   6.412  10.003 -0.3079 -0.4025  0.2282
  274loPI   C1A 4375   4.818   6.344   9.609 -0.1603  0.0264  0.0524
  274loPI   C2A 4376   4.760   6.329   9.136  0.2860 -0.0147  0.0151
  274loPI   C3A 4377   4.717   6.376   8.754 -0.2460 -0.1103  0.0317
  274loPI   C4A 4378   4.608   6.369   8.370  0.1813 -0.1384  0.0816
  274loPI   C5A 4379   4.465   6.110   8.033 -0.2645 -0.1387  0.1116
  274loPI   C6A 4380   4.662   5.946   7.682  0.1176  0.0181  0.0319
  274loPI   C1B 4381   5.404   6.456   9.656 -0.1035  0.0608  0.2226
  274loPI   C2B 4382   5.317   6.503   9.261 -0.0543 -0.1819  0.0862
  274loPI   C3B 4383   5.260   6.401   8.913  0.1014  0.0359 -0.2639
  274loPI   C4B 4384   5.145   6.453   8.539 -0.1090 -0.2359  0.1620
  275loPI    C1 4385   8.133   6.623  11.189 -0.1372 -0.0470 -0.1738
  275loPI    C2 4386   8.396   6.796  10.942  0.0936 -0.1554 -0.0074
  275loPI    C3 4387   8.459   6.802  11.337 -0.3008  0.0652  0.0569
  275loPI   PO4 4388   7.790   6.633  11.033 -0.0756 -0.1810 -0.1039
  275loPI   GL1 4389   7.626   6.568  10.603 -0.2168 -0.1561  0.0772
  275loPI   GL2 4390   7.728   6.208  10.453  0.0884 -0.0385  0.2668
  275loPI   C1A 4391   7.678   6.598  10.079 -0.0815  0.2245  0.2525
  275loPI   C2A 4392   7.741   6.441   9.820 -0.0564 -0.0127  0.1962
  275loPI   C3A 4393   7.668   6.420   9.408  0.1397 -0.3319 -0.0645
  275loPI   C4A 4394   7.627   6.364   8.997 -0.2156  0.0493 -0.0873
  275loPI   C5A 4395   7.627   6.302   8.614 -0.0715  0.0316 -0.3127
  275loPI   C6A 4396   7.264   6.268   8.368 -0.1344  0.3163  0.0125
  275loPI   C1B 4397   7.543   6.023  10.020 -0.0404  0.2485  0.1760
  275loPI   C2B 4398   7.508   5.882   9.596  0.2844 -0.0008 -0.0295
  275loPI   C3B 4399   7.465   5.865   9.231 -0.1822 -0.0233  0.0177
  275loPI   C4B 4400   7.429   5.843   8.760 -0.3231  0.0807 -0.1852
  276loPI    C1 4401  12.560  14.587  11.055  0.0778  0.0757  0.1533
  276loPI    C2 4402  12.853  14.369  11.218  0.0382 -0.0172  0.1012
  276loPI    C3 4403  12.494  14.384  11.393 -0.0495 -0.2378 -0.0548
  276loPI   PO4 4404  12.541  14.488  10.829 -0.2263  0.3804  0.1187
  276loPI   GL1 4405  12.586  14.306  10.408 -0.1237 -0.0303 -0.2540
  276loPI   GL2 4406  12.609  13.985  10.298 -0.1782  0.2248  0.1986
  276loPI   C1A 4407  12.620  14.358   9.971 -0.0588 -0.1039  0.1463
  276loPI   C2A 4408  12.610  14.290   9.517 -0.2913  0.0694  0.0384
  276loPI   C3A 4409  12.581  14.252   9.126 -0.3424  0.2090 -0.0793
  276loPI   C4A 4410  12.571  14.245   8.646 -0.1147 -0.1133  0.0387
  276loPI   C5A 4411  12.594  14.362   8.247  0.0793 -0.0480  0.2646
  276loPI   C6A 4412  12.869  14.685   8.076  0.2978 -0.0358 -0.0429
  276loPI   C1B 4413  12.833  13.899   9.956 -0.1299  0.0186  0.1878
  276loPI   C2B 4414  12.988  13.960   9.652  0.0874 -0.0277 -0.0918
  276loPI   C3B 4415  12.856  13.774   9.288 -0.0114 -0.1741  0.1537
  276loPI   C4B 4416  12.843  13.896   8.932 -0.0128  0.0675  0.0708
  277loPI    C1 4417   7.386   8.918  10.693  0.1416 -0.0309  0.0761
  277loPI    C2 4418   7.226   9.026  11.043 -0.4190 -0.0999 -0.1478
  277loPI    C3 4419   7.236   8.640  10.939  0.0232 -0.1108 -0.0842
  277loPI   PO4 4420   7.360   9.047  10.500  0.0936 -0.0752 -0.2057
  277loPI   GL1 4421   7.438   8.924  10.097  0.3441  0.0101 -0.0533
  277loPI   GL2 4422   7.147   8.867  10.008  0.3156  0.2756  0.2290
  277loPI   C1A 4423   7.536   8.847   9.633  0.3625  0.1670  0.0070
  277loPI   C2A 4424   7.615   8.743   9.143  0.1924  0.0876 -0.2035
  277loPI   C3A 4425   7.629   8.616   8.743  0.3988 -0.1041 -0.0307
  277loPI   C4A 4426   7.700   8.842   8.422 -0.1684  0.2963 -0.0645
  277loPI   C5A 4427   7.469   9.123   8.081 -0.3787  0.0677 -0.3122
  277loPI   C6A 4428   7.223   8.917   7.868 -0.0875 -0.0889  0.0118
  277loPI   C1B 4429   7.011   8.711   9.677  0.1293 -0.1254 -0.1057
  277loPI   C2B 4430   7.080   8.658   9.218 -0.1644  0.1388  0.2498
  277loPI   C3B 4431   7.035   8.570   8.805 -0.0666  0.2212  0.0048
  277loPI   C4B 4432   6.971   8.499   8.329  0.0719  0.1630 -0.1112
  278loPI    C1 4433  14.198   2.961  10.994  0.0366 -0.0899 -0.1503
  278loPI    C2 4434  14.423   3.132  11.277 -0.1175 -0.0085 -0.0758
  278loPI    C3 4435  14.079   2.951  11.376 -0.0854 -0.1329 -0.1888
  278loPI   PO4 4436  14.247   3.067  10.803  0.2656 -0.2233 -0.2535
  278loPI   GL1 4437  14.172   2.929  10.433 -0.3219 -0.2174  0.1546
  278loPI   GL2 4438  14.236   2.603  10.414 -0.1561 -0.0781  0.1551
  278loPI   C1A 4439  14.169   3.015   9.987 -0.0473  0.1556 -0.0367
  278loPI   C2A 4440  14.108   3.008   9.551  0.0284  0.2574  0.1540
  278loPI   C3A 4441  14.236   3.017   9.121  0.2414 -0.1616  0.1506
  278loPI   C4A 4442  14.194   3.018   8.681 -0.0604 -0.0497  0.1919
  278loPI   C5A 4443  14.051   3.036   8.244  0.0587  0.0464  0.0576
  278loPI   C6A 4444  13.962   3.153   7.831 -0.1708 -0.2460 -0.0423
  278loPI   C1B 4445  14.399   2.561   9.974  0.0332 -0.1458 -0.1097
  278loPI   C2B 4446  14.434   2.665   9.506 -0.2810 -0.0214  0.4087
  278loPI   C3B 4447  14.663   2.671   9.179  0.3002 -0.0373 -0.1772
  278loPI   C4B 4448  14.570   2.594   8.706  0.1468 -0.0334  0.1798
  279loPI    C1 4449  16.647  15.094  11.329 -0.0757  0.1089 -0.0735
  279loPI    C2 4450  16.315  15.000  11.531  0.1336 -0.0229  0.2169
  279loPI    C3 4451  16.523  15.327  11.629  0.1390  0.0106  0.0950
  279loPI   PO4 4452  16.703  14.911  11.076 -0.3894  0.1281 -0.0293
  279loPI   GL1 4453  16.609  15.000  10.705  0.1883  0.1168  0.2080
  279loPI   GL2 4454  16.405  15.351  10.613  0.1569 -0.0355  0.0063
  279loPI   C1A 4455  16.641  14.968  10.283  0.0554  0.1650 -0.0157
  279loPI   C2A 4456  16.716  14.891   9.888 -0.1390  0.0982 -0.1525
  279loPI   C3A 4457  16.609  15.027   9.541 -0.0480 -0.3148  0.4179
  279loPI   C4A 4458  16.656  14.974   9.188 -0.1214  0.1719  0.0905
  279loPI   C5A 4459  16.540  14.983   8.713  0.2510  0.2661  0.1491
  279loPI   C6A 4460  16.521  15.375   8.381  0.1546  0.0161 -0.0815
  279loPI   C1B 4461  16.367  15.331  10.145  0.1285 -0.1134 -0.0221
  279loPI   C2B 4462  16.286  15.374   9.770  0.1535 -0.0753  0.2290
  279loPI   C3B 4463  16.315  15.446   9.373  0.0223 -0.1098 -0.3425
  279loPI   C4B 4464  16.333  15.422   8.959 -0.2372 -0.0338  0.0365
  280loPI    C1 4465  14.158   1.245  10.839 -0.1716 -0.1218 -0.0874
  280loPI    C2 4466  13.967   0.924  10.982 -0.2952 -0.1055 -0.2134
  280loPI    C3 4467  13.862   1.290  11.104 -0.2293 -0.1062 -0.1541
  280loPI   PO4 4468  14.140   1.225  10.596  0.0336 -0.0207  0.0593
  280loPI   GL1 4469  14.276   0.990  10.184  0.1821  0.0891 -0.1590
  280loPI   GL2 4470  14.466   1.215  10.170  0.1296  0.2265  0.3446
  280loPI   C1A 4471  14.252   0.680   9.837  0.0160 -0.3945  0.1436
  280loPI   C2A 4472  14.313   0.720   9.420 -0.0380 -0.0211 -0.0392
  280loPI   C3A 4473  14.338   0.756   9.089 -0.2477  0.1534  0.0968
  280loPI   C4A 4474  14.243   0.740   8.584 -0.0944 -0.1512  0.0462
  280loPI   C5A 4475  14.389   0.753   8.150 -0.1888 -0.2797 -0.5789
  280loPI   C6A 4476  14.353   0.765   7.768 -0.0909  0.2680 -0.0161
  280loPI   C1B 4477  14.461   1.184   9.684 -0.0086 -0.2101 -0.1826
  280loPI   C2B 4478  14.478   1.180   9.277  0.1040  0.0994 -0.1647
  280loPI   C3B 4479  14.490   1.214   8.811 -0.1972  0.1216  0.0672
  280loPI   C4B 4480  14.464   1.207   8.393  0.0177 -0.0922 -0.4817
  281loPI    C1 4481  15.748   2.930  10.938 -0.0060  0.0580 -0.0611
  281loPI    C2 4482  15.610   2.970  11.311 -0.2090 -0.1585 -0.1101
  281loPI    C3 4483  15.639   3.290  11.073  0.0559  0.0047  0.1345
  281loPI   PO4 4484  15.636   2.805  10.793  0.1133  0.2164 -0.1024
  281loPI   GL1 4485  15.536   2.674  10.357 -0.1547 -0.0424 -0.2388
  281loPI   GL2 4486  15.626   2.823  10.165  0.1299  0.1360  0.1405
  281loPI   C1A 4487  15.150   2.691  10.040 -0.0657 -0.1316  0.2107
  281loPI   C2A 4488  14.987   2.641   9.672  0.1733  0.3412  0.0942
  281loPI   C3A 4489  15.130   2.706   9.211 -0.0492 -0.0547 -0.2541
  281loPI   C4A 4490  15.039   2.708   8.832 -0.2997  0.4080 -0.2380
  281loPI   C5A 4491  14.975   2.616   8.387 -0.0190  0.0352 -0.2051
  281loPI   C6A 4492  14.926   2.455   8.007 -0.3664  0.2958 -0.0458
  281loPI   C1B 4493  15.622   2.728   9.630  0.1520 -0.0916  0.0082
  281loPI   C2B 4494  15.645   2.698   9.235 -0.2673  0.0868  0.0806
  281loPI   C3B 4495  15.527   2.829   8.848 -0.1704  0.0917 -0.1074
  281loPI   C4B 4496  15.570   2.892   8.400 -0.1244  0.0540  0.1696
  282loPI    C1 4497  17.324  14.505  11.414 -0.0517 -0.1118 -0.1065
  282loPI    C2 4498  17.454  14.741  11.709 -0.0292  0.0718 -0.2614
  282loPI    C3 4499  17.146  14.493  11.772  0.2070 -0.1568  0.0226
  282loPI   PO4 4500  17.254  14.657  11.210  0.2822 -0.0855 -0.1634
  282loPI   GL1 4501  17.230  14.679  10.874 -0.3300 -0.2005 -0.2335
  282loPI   GL2 4502  17.483  14.569  10.609 -0.0457  0.3318  0.0745
  282loPI   C1A 4503  17.024  14.578  10.519  0.0642 -0.1497 -0.5026
  282loPI   C2A 4504  17.071  14.604  10.061  0.0260  0.1267 -0.0044
  282loPI   C3A 4505  16.995  14.630   9.577  0.1362 -0.2101  0.2145
  282loPI   C4A 4506  16.991  14.566   9.166  0.2186 -0.1437 -0.1882
  282loPI   C5A 4507  16.877  14.492   8.762 -0.1805 -0.2752 -0.0012
  282loPI   C6A 4508  17.010  14.334   8.325 -0.2538 -0.1530  0.0929
  282loPI   C1B 4509  17.631  14.743  10.140 -0.0340 -0.2489  0.0390
  282loPI   C2B 4510  17.489  14.697   9.698 -0.0726  0.0837  0.1511
  282loPI   C3B 4511  17.490  14.656   9.237  0.0124 -0.0715 -0.1728
  282loPI   C4B 4512  17.359  14.631   8.775  0.1334 -0.0647 -0.0085
  283loPI    C1 4513   3.711  17.700  10.531 -0.0503 -0.0260  0.0961
  283loPI    C2 4514   3.531  17.452  10.789  0.0813 -0.0156  0.1988
  283loPI    C3 4515   3.889  17.608  10.878  0.1372 -0.0281  0.0003
  283loPI   PO4 4516   3.460  17.711  10.323  0.3863  0.4783 -0.0363
  283loPI   GL1 4517   3.313  17.848   9.969  0.0652  0.0855 -0.1414
  283loPI   GL2 4518   3.405  18.174   9.868  0.3112 -0.2253  0.0534
  283loPI   C1A 4519   3.221  17.669   9.579 -0.3203 -0.1645  0.1785
  283loPI   C2A 4520   3.159  17.627   9.064 -0.3452  0.1805  0.1303
  283loPI   C3A 4521   3.071  17.621   8.628  0.1215  0.3058 -0.2443
  283loPI   C4A 4522   3.054  17.595   8.188 -0.1988 -0.2976 -0.2259
  283loPI   C5A 4523   3.109  17.737   7.773 -0.1639  0.1812 -0.2511
  283loPI   C6A 4524   2.723  17.750   7.615 -0.0500  0.0321  0.2661
  283loPI   C1B 4525   3.423  18.187   9.398  0.4563 -0.2051  0.2512
  283loPI   C2B 4526   3.349  18.089   9.012  0.0637 -0.1260  0.0338
  283loPI   C3B 4527   3.316  18.053   8.568 -0.1410  0.1867 -0.1836
  283loPI   C4B 4528   3.265  18.027   8.222 -0.0794  0.2080 -0.2459
  284loPI    C1 4529  13.377  14.275  10.944  0.1165  0.1605  0.2366
  284loPI    C2 4530  13.625  14.301  11.257  0.0645 -0.0324  0.2950
  284loPI    C3 4531  13.399  13.974  11.207  0.1009 -0.0200  0.0342
  284loPI   PO4 4532  13.491  14.338  10.748 -0.0538  0.1948 -0.1923
  284loPI   GL1 4533  13.363  14.649  10.363 -0.1707  0.0515 -0.0707
  284loPI   GL2 4534  13.613  14.440  10.296 -0.0129 -0.0641  0.1601
  284loPI   C1A 4535  13.243  14.849   9.998 -0.1790  0.2380 -0.1509
  284loPI   C2A 4536  13.248  14.917   9.628 -0.1038 -0.0848 -0.0707
  284loPI   C3A 4537  13.244  14.919   9.158 -0.4484  0.1292  0.1142
  284loPI   C4A 4538  13.263  14.811   8.771  0.0900  0.2282 -0.1023
  284loPI   C5A 4539  13.128  14.948   8.485  0.0679 -0.0122  0.1917
  284loPI   C6A 4540  12.834  15.159   8.458  0.0499  0.0039 -0.2369
  284loPI   C1B 4541  13.593  14.509   9.929  0.0706  0.0003  0.1700
  284loPI   C2B 4542  13.618  14.554   9.499  0.0945 -0.2595  0.0780
  284loPI   C3B 4543  13.631  14.445   9.036  0.0613  0.1733 -0.2557
  284loPI   C4B 4544  13.546  14.344   8.633  0.0030  0.2446 -0.1033
  285loPI    C1 4545   7.207   3.708  11.372 -0.0041  0.2106  0.1870
  285loPI    C2 4546   6.972   4.029  11.419 -0.2389  0.1156 -0.2716
  285loPI    C3 4547   6.844   3.669  11.535 -0.0974  0.1397 -0.0334
  285loPI   PO4 4548   7.244   3.722  11.101  0.0508 -0.4351 -0.1395
  285loPI   GL1 4549   7.343   3.718  10.659  0.2784 -0.0645 -0.1291
  285loPI   GL2 4550   7.113   3.742  10.477 -0.2392 -0.0337  0.0569
  285loPI   C1A 4551   7.617   3.643  10.326  0.1058  0.2170  0.3931
  285loPI   C2A 4552   7.576   3.664   9.901 -0.0885  0.0689  0.2028
  285loPI   C3A 4553   7.569   3.621   9.457 -0.0855  0.0922 -0.0745
  285loPI   C4A 4554   7.555   3.668   9.046 -0.0820 -0.2410 -0.1612
  285loPI   C5A 4555   7.463   3.692   8.642 -0.0667 -0.0612 -0.1707
  285loPI   C6A 4556   7.588   3.737   8.283  0.2117 -0.3473  0.1219
  285loPI   C1B 4557   7.020   3.601   9.981  0.0289  0.0711 -0.0312
  285loPI   C2B 4558   7.035   3.585   9.478  0.0472 -0.2163 -0.1569
  285loPI   C3B 4559   7.073   3.602   8.984  0.0080  0.2698  0.1714
  285loPI   C4B 4560   7.025   3.553   8.433  0.1072 -0.3179  0.2781
  286loPI    C1 4561   0.067   5.201  10.870  0.2460  0.2716 -0.0132
  286loPI    C2 4562   0.300   5.089  11.176  0.0714  0.2461  0.1120
  286loPI    C3 4563  -0.053   5.263  11.247 -0.0258  0.1288 -0.0734
  286loPI   PO4 4564   0.213   5.367  10.686 -0.2838 -0.0941  0.1836
  286loPI   GL1 4565   0.191   5.520  10.255 -0.0054 -0.0466  0.1212
  286loPI   GL2 4566   0.494   5.631  10.196  0.1411 -0.1400  0.1355
  286loPI   C1A 4567   0.086   5.624   9.917 -0.2165 -0.0667  0.0471
  286loPI   C2A 4568   0.099   5.598   9.529 -0.0361 -0.0821  0.0723
  286loPI   C3A 4569   0.115   5.549   9.106 -0.4578  0.2918  0.1844
  286loPI   C4A 4570  -0.046   5.526   8.764 -0.1602  0.3312 -0.0166
  286loPI   C5A 4571  -0.082   5.554   8.345 -0.1669 -0.1835  0.0400
  286loPI   C6A 4572   0.157   5.692   7.981  0.0082  0.4113 -0.2839
  286loPI   C1B 4573   0.569   5.632   9.689  0.1475  0.0434  0.0093
  286loPI   C2B 4574   0.573   5.616   9.306 -0.1193 -0.0561 -0.1378
  286loPI   C3B 4575   0.551   5.612   8.938 -0.1464 -0.0095 -0.1463
  286loPI   C4B 4576   0.383   5.652   8.513 -0.1384  0.2466  0.1747
  287loPI    C1 4577   5.539   1.600  10.854 -0.1667  0.1201 -0.0323
  287loPI    C2 4578   5.838   1.791  10.670 -0.0137  0.1092  0.2003
  287loPI    C3 4579   5.848   1.740  11.066 -0.1398 -0.2253  0.1636
  287loPI   PO4 4580   5.480   1.393  10.632 -0.0747  0.1491 -0.1390
  287loPI   GL1 4581   5.251   1.500  10.351  0.1758  0.0582  0.1530
  287loPI   GL2 4582   4.914   1.487  10.209 -0.2516  0.1514 -0.1040
  287loPI   C1A 4583   5.306   1.488   9.857 -0.1768 -0.0360 -0.0500
  287loPI   C2A 4584   5.328   1.575   9.390 -0.2475 -0.3569  0.1690
  287loPI   C3A 4585   5.225   1.433   9.058  0.2144 -0.0759 -0.2659
  287loPI   C4A 4586   5.105   1.421   8.698  0.0017 -0.1596  0.1462
  287loPI   C5A 4587   5.049   1.352   8.328  0.0310 -0.1407  0.0337
  287loPI   C6A 4588   5.214   1.602   7.975 -0.0706  0.3712 -0.1264
  287loPI   C1B 4589   4.799   1.447   9.780  0.0482  0.1945  0.2392
  287loPI   C2B 4590   4.691   1.313   9.335  0.0061 -0.0085 -0.1144
  287loPI   C3B 4591   4.623   1.275   8.884  0.0116  0.0138  0.3428
  287loPI   C4B 4592   4.531   1.239   8.464  0.0200  0.0822 -0.0260
  288loPI    C1 4593   8.086   3.737  11.228 -0.0560  0.1911 -0.0001
  288loPI    C2 4594   7.970   4.014  11.492 -0.0515  0.0826  0.1168
  288loPI    C3 4595   7.727   3.709  11.403  0.0180  0.0238  0.1280
  288loPI   PO4 4596   8.096   3.794  11.063 -0.0486 -0.0844 -0.3480
  288loPI   GL1 4597   8.290   3.772  10.676 -0.1838  0.1599 -0.1349
  288loPI   GL2 4598   8.542   3.870  10.430  0.0484 -0.1675  0.2685
  288loPI   C1A 4599   8.122   3.861  10.194 -0.3511 -0.1448 -0.0547
  288loPI   C2A 4600   8.076   3.752   9.693  0.1599  0.4924 -0.2515
  288loPI   C3A 4601   8.037   3.745   9.128  0.1990  0.0794  0.0055
  288loPI   C4A 4602   7.959   3.695   8.736 -0.0422 -0.0313  0.1002
  288loPI   C5A 4603   8.064   3.783   8.252  0.2074 -0.3152 -0.0633
  288loPI   C6A 4604   8.309   4.195   8.045  0.0259  0.3048 -0.0324
  288loPI   C1B 4605   8.593   3.871   9.966  0.2637 -0.0077  0.0575
  288loPI   C2B 4606   8.589   3.772   9.484  0.1380  0.1260  0.1837
  288loPI   C3B 4607   8.534   3.804   8.989 -0.0439 -0.2395 -0.2877
  288loPI   C4B 4608   8.639   3.799   8.495 -0.1064  0.2012  0.1893
  289loPI    C1 4609   0.070  13.886  11.196  0.1571 -0.1396  0.0078
  289loPI    C2 4610   0.359  13.950  10.926  0.0063  0.0713 -0.1062
  289loPI    C3 4611   0.455  13.875  11.307  0.2098  0.2706 -0.1160
  289loPI   PO4 4612  -0.155  13.738  11.098 -0.0100 -0.0135  0.0755
  289loPI   GL1 4613  -0.218  14.017  10.789  0.1848 -0.1674 -0.2119
  289loPI   GL2 4614  -0.018  14.196  10.685 -0.3640 -0.1003  0.3135
  289loPI   C1A 4615  -0.268  13.852  10.320 -0.0389 -0.0076  0.0461
  289loPI   C2A 4616  -0.351  13.806   9.918 -0.0972 -0.1372  0.1049
  289loPI   C3A 4617  -0.364  13.806   9.517  0.1190 -0.5167  0.1780
  289loPI   C4A 4618  -0.394  13.762   9.039 -0.2060 -0.0764 -0.0274
  289loPI   C5A 4619  -0.361  13.545   8.639 -0.1501  0.0007  0.0690
  289loPI   C6A 4620   0.021  13.517   8.449 -0.1564 -0.3602  0.1030
  289loPI   C1B 4621  -0.010  14.366  10.281  0.0942  0.1291  0.1408
  289loPI   C2B 4622  -0.145  14.325   9.778 -0.0798 -0.1369 -0.0461
  289loPI   C3B 4623  -0.132  14.296   9.310  0.1532  0.2174 -0.2368
  289loPI   C4B 4624  -0.250  14.372   8.934 -0.2014 -0.2086 -0.0323
  290loPI    C1 4625   2.134  16.552  10.791 -0.0037  0.1126 -0.0971
  290loPI    C2 4626   2.188  16.850  11.053  0.1705  0.0806 -0.0960
  290loPI    C3 4627   2.381  16.503  11.101 -0.0062 -0.0217 -0.1159
  290loPI   PO4 4628   2.125  16.689  10.551 -0.1570  0.2154  0.1592
  290loPI   GL1 4629   2.321  16.873  10.209 -0.0879  0.0475  0.2284
  290loPI   GL2 4630   2.422  17.103  10.013  0.1790 -0.1606 -0.1713
  290loPI   C1A 4631   2.256  16.684   9.803  0.3317 -0.1601 -0.4408
  290loPI   C2A 4632   2.246  16.535   9.315  0.0289  0.0287  0.1235
  290loPI   C3A 4633   2.257  16.480   8.911 -0.0914 -0.0855 -0.2027
  290loPI   C4A 4634   2.019  16.470   8.543 -0.0896  0.0657 -0.0031
  290loPI   C5A 4635   2.026  16.564   8.156  0.0909  0.0113  0.0203
  290loPI   C6A 4636   2.337  16.825   7.911  0.0706  0.0987 -0.1297
  290loPI   C1B 4637   2.409  17.129   9.603 -0.0643  0.3144  0.1543
  290loPI   C2B 4638   2.466  17.061   9.139 -0.0757 -0.1417  0.0889
  290loPI   C3B 4639   2.259  17.099   8.722 -0.0477 -0.2655 -0.1243
  290loPI   C4B 4640   2.281  17.142   8.327 -0.1424 -0.2088  0.0554
  291loPI    C1 4641   7.663  11.683  10.506  0.0484 -0.0935 -0.0488
  291loPI    C2 4642   7.388  11.440  10.666 -0.0010 -0.0711 -0.0992
  291loPI    C3 4643   7.776  11.381  10.742 -0.0189 -0.1106 -0.0380
  291loPI   PO4 4644   7.513  11.765  10.263 -0.0504 -0.1429 -0.2545
  291loPI   GL1 4645   7.607  11.560   9.821 -0.2408  0.4696 -0.0066
  291loPI   GL2 4646   7.669  11.204   9.781 -0.2618 -0.0829  0.3904
  291loPI   C1A 4647   7.338  11.496   9.496  0.0671  0.0767  0.1014
  291loPI   C2A 4648   7.318  11.507   9.139  0.0898  0.2359  0.4971
  291loPI   C3A 4649   7.469  11.705   8.745 -0.1225 -0.0622 -0.1734
  291loPI   C4A 4650   7.402  11.896   8.395  0.3155  0.2928  0.0770
  291loPI   C5A 4651   7.531  12.169   8.034 -0.1301 -0.2182 -0.0300
  291loPI   C6A 4652   7.631  12.526   7.747 -0.1542  0.3222 -0.0846
  291loPI   C1B 4653   7.790  11.359   9.360 -0.1029  0.0601 -0.0688
  291loPI   C2B 4654   7.789  11.336   8.962 -0.1793 -0.1737  0.3929
  291loPI   C3B 4655   7.958  11.182   8.559  0.1222  0.0382 -0.3183
  291loPI   C4B 4656   8.051  11.010   8.198  0.0698 -0.1068 -0.0638
  292loPI    C1 4657  15.217   3.074  10.970 -0.0536 -0.0818 -0.0660
  292loPI    C2 4658  15.001   3.404  11.037  0.1094  0.0340 -0.1063
  292loPI    C3 4659  14.923   3.069  11.241  0.1255  0.1765  0.1374
  292loPI   PO4 4660  15.228   3.094  10.688 -0.1390 -0.0480 -0.1955
  292loPI   GL1 4661  15.179   3.367  10.382 -0.1081  0.0264  0.0181
  292loPI   GL2 4662  14.988   3.473  10.506 -0.1219  0.1373  0.1773
  292loPI   C1A 4663  15.205   3.190   9.929 -0.0548  0.1745  0.1682
  292loPI   C2A 4664  15.162   3.108   9.481  0.2458 -0.2013  0.1267
  292loPI   C3A 4665  15.235   3.165   9.018  0.3509  0.0474 -0.0254
  292loPI   C4A 4666  15.185   3.203   8.606  0.0139 -0.2391  0.0395
  292loPI   C5A 4667  14.988   3.354   8.185  0.0634  0.0571 -0.0407
  292loPI   C6A 4668  14.869   3.718   8.209  0.0455  0.0613  0.1280
  292loPI   C1B 4669  14.831   3.577  10.030  0.1575 -0.1337 -0.1880
  292loPI   C2B 4670  14.817   3.633   9.611 -0.0357  0.0597 -0.1544
  292loPI   C3B 4671  14.861   3.590   9.117  0.1650 -0.0959  0.1819
  292loPI   C4B 4672  14.883   3.559   8.660 -0.1320 -0.3033  0.1514
  293loPI    C1 4673   6.109  12.058  10.786  0.0542 -0.1321  0.0080
  293loPI    C2 4674   6.213  12.245  11.124  0.0844  0.0223 -0.0861
  293loPI    C3 4675   6.021  11.895  11.141  0.1231  0.0086  0.0906
  293loPI   PO4 4676   6.075  12.266  10.598 -0.1873 -0.4278 -0.2881
  293loPI   GL1 4677   6.067  12.376  10.215  0.0347  0.0415 -0.2310
  293loPI   GL2 4678   6.222  12.271  10.101 -0.0269  0.1237  0.0247
  293loPI   C1A 4679   5.944  12.598   9.775 -0.1523 -0.2049 -0.0855
  293loPI   C2A 4680   5.864  12.443   9.394  0.0865  0.0114  0.0502
  293loPI   C3A 4681   5.835  12.555   9.032  0.2769  0.0644  0.0663
  293loPI   C4A 4682   5.904  12.577   8.696  0.2090  0.0013 -0.0960
  293loPI   C5A 4683   5.875  12.577   8.171 -0.2294  0.0194  0.1140
  293loPI   C6A 4684   5.742  12.775   7.788  0.1983  0.4420  0.0158
  293loPI   C1B 4685   6.290  12.247   9.588  0.0892  0.0356  0.2359
  293loPI   C2B 4686   6.218  12.240   9.128 -0.0317  0.0096  0.0919
  293loPI   C3B 4687   6.150  12.051   8.710 -0.1170  0.0260 -0.1813
  293loPI   C4B 4688   5.877  12.172   8.453  0.0287  0.1222 -0.0203
  294loPI    C1 4689   3.241   2.463  10.787  0.1830 -0.0999 -0.2852
  294loPI    C2 4690   3.507   2.554  10.502  0.3071  0.2074 -0.0764
  294loPI    C3 4691   3.623   2.530  10.884  0.0623  0.2015 -0.0004
  294loPI   PO4 4692   2.978   2.433  10.633  0.1820 -0.1319  0.1303
  294loPI   GL1 4693   2.922   2.197  10.184 -0.0423  0.1227  0.1294
  294loPI   GL2 4694   3.133   2.356  10.160  0.1440 -0.2941  0.1498
  294loPI   C1A 4695   2.817   2.327   9.737 -0.0142 -0.0663 -0.0676
  294loPI   C2A 4696   2.763   2.301   9.260  0.0771 -0.2025 -0.1423
  294loPI   C3A 4697   2.682   2.348   8.762 -0.0208 -0.0093 -0.0730
  294loPI   C4A 4698   2.751   2.328   8.237 -0.2268  0.0533  0.0431
  294loPI   C5A 4699   2.735   2.318   7.864 -0.1774 -0.1877 -0.1612
  294loPI   C6A 4700   2.590   2.138   7.551 -0.1899 -0.0991  0.2074
  294loPI   C1B 4701   3.289   2.395   9.787 -0.2791  0.1363 -0.3192
  294loPI   C2B 4702   3.276   2.466   9.382  0.0081  0.0790 -0.1598
  294loPI   C3B 4703   3.228   2.330   8.941  0.4905 -0.0881  0.3859
  294loPI   C4B 4704   3.258   2.374   8.479 -0.2753  0.0539 -0.1208
  295loPI    C1 4705  12.279  16.863  11.041  0.0849 -0.0504 -0.0430
  295loPI    C2 4706  11.901  16.747  10.981  0.0480  0.0478 -0.0032
  295loPI    C3 4707  11.976  17.087  11.177  0.1574  0.0263 -0.0072
  295loPI   PO4 4708  12.406  16.866  10.768 -0.2359  0.0179  0.2316
  295loPI   GL1 4709  12.271  16.829  10.364  0.0221 -0.3503  0.1429
  295loPI   GL2 4710  12.043  16.653  10.450 -0.2996 -0.4424  0.0746
  295loPI   C1A 4711  12.304  16.918   9.901 -0.1293  0.2081  0.0700
  295loPI   C2A 4712  12.221  16.923   9.451  0.3511  0.2892  0.0142
  295loPI   C3A 4713  12.129  17.028   8.948  0.1419 -0.1993 -0.1991
  295loPI   C4A 4714  12.178  17.124   8.505 -0.2332  0.0426  0.1035
  295loPI   C5A 4715  12.181  17.483   8.201  0.0400 -0.2056  0.0043
  295loPI   C6A 4716  11.770  17.605   7.981  0.1803 -0.0188  0.0084
  295loPI   C1B 4717  11.977  16.433  10.122 -0.4075 -0.0711 -0.0373
  295loPI   C2B 4718  12.080  16.440   9.678  0.1863  0.4243  0.2372
  295loPI   C3B 4719  12.013  16.485   9.166 -0.0793 -0.1032  0.0687
  295loPI   C4B 4720  11.926  16.487   8.766 -0.3588 -0.1681  0.1473
  296loPI    C1 4721  16.483  17.129  11.126  0.1450  0.0509  0.1105
  296loPI    C2 4722  16.178  17.051  11.373 -0.1471  0.0685 -0.2366
  296loPI    C3 4723  16.554  16.987  11.493 -0.2736  0.2274  0.2663
  296loPI   PO4 4724  16.553  17.429  11.044 -0.0584 -0.0852 -0.1999
  296loPI   GL1 4725  16.465  17.436  10.555  0.1231 -0.0678  0.1181
  296loPI   GL2 4726  16.648  17.259  10.531  0.2363 -0.0239 -0.2639
  296loPI   C1A 4727  16.216  17.211  10.283  0.2676  0.1850 -0.2804
  296loPI   C2A 4728  16.011  17.137   9.911 -0.5038  0.1134  0.0593
  296loPI   C3A 4729  16.079  17.103   9.464  0.1539 -0.0970 -0.3327
  296loPI   C4A 4730  16.157  17.252   9.082 -0.0629 -0.3496 -0.1077
  296loPI   C5A 4731  16.182  17.214   8.736  0.2724 -0.2176 -0.0709
  296loPI   C6A 4732  16.355  17.368   8.385  0.1067  0.2509  0.3142
  296loPI   C1B 4733  16.673  17.281  10.124  0.2014 -0.2663 -0.2103
  296loPI   C2B 4734  16.485  17.180   9.790  0.0214 -0.2616  0.1142
  296loPI   C3B 4735  16.645  17.201   9.338  0.1899  0.2428 -0.2738
  296loPI   C4B 4736  16.658  17.325   8.911 -0.1636 -0.3081  0.0911
  297loPI    C1 4737   9.059  15.005  11.009 -0.0227 -0.0779 -0.1710
  297loPI    C2 4738   8.829  14.694  10.908 -0.1275 -0.0491 -0.0243
  297loPI    C3 4739   8.761  14.891  11.250  0.1244 -0.0490  0.0274
  297loPI   PO4 4740   9.123  15.085  10.736  0.2525 -0.2137 -0.2571
  297loPI   GL1 4741   9.197  14.926  10.286  0.1454 -0.0720 -0.0954
  297loPI   GL2 4742   9.360  14.922  10.105  0.0155 -0.1927 -0.2901
  297loPI   C1A 4743   8.862  14.988   9.981  0.0476  0.0858  0.0419
  297loPI   C2A 4744   8.848  15.016   9.465  0.0134  0.2027 -0.0239
  297loPI   C3A 4745   8.967  15.029   9.053 -0.0865  0.2789 -0.1025
  297loPI   C4A 4746   9.241  14.962   8.667  0.2704  0.2039 -0.1443
  297loPI   C5A 4747   9.190  15.016   8.248 -0.1617 -0.2659  0.2316
  297loPI   C6A 4748   9.478  15.033   7.981 -0.0035  0.3736 -0.1198
  297loPI   C1B 4749   9.322  14.956   9.642 -0.1445  0.3822 -0.2460
  297loPI   C2B 4750   9.483  15.052   9.302 -0.1362 -0.1809 -0.2134
  297loPI   C3B 4751   9.642  15.129   8.896  0.2853  0.0286  0.2523
  297loPI   C4B 4752   9.644  15.305   8.606 -0.1394 -0.2611 -0.0098
  298loPI    C1 4753   6.589  10.494  10.728  0.0098 -0.1156 -0.1012
  298loPI    C2 4754   6.607  10.886  10.804  0.3270 -0.0716 -0.3782
  298loPI    C3 4755   6.694  10.623  11.092  0.1546  0.0597 -0.2031
  298loPI   PO4 4756   6.578  10.541  10.467  0.2157 -0.0870  0.4255
  298loPI   GL1 4757   6.363  10.521  10.144 -0.1970  0.0504  0.0830
  298loPI   GL2 4758   6.364  10.749  10.002 -0.2198  0.0419  0.0982
  298loPI   C1A 4759   6.136  10.360   9.801 -0.0667  0.2557 -0.0971
  298loPI   C2A 4760   6.093  10.286   9.371  0.0525 -0.0819  0.1590
  298loPI   C3A 4761   6.171  10.181   9.024  0.4765 -0.1111 -0.0094
  298loPI   C4A 4762   6.273  10.210   8.485  0.3461  0.1122 -0.0664
  298loPI   C5A 4763   6.188  10.675   8.248 -0.0004  0.0534  0.1168
  298loPI   C6A 4764   6.451  11.006   8.119 -0.0730  0.2176  0.0705
  298loPI   C1B 4765   6.385  10.719   9.564  0.1254 -0.0349  0.3155
  298loPI   C2B 4766   6.400  10.684   9.165  0.1576  0.0964  0.0612
  298loPI   C3B 4767   6.440  10.546   8.818  0.0017 -0.1700  0.0383
  298loPI   C4B 4768   6.609  10.544   8.449  0.0748  0.0620  0.1072
  299loPI    C1 4769   9.304  17.847  10.763  0.1073 -0.0640  0.0369
  299loPI    C2 4770   9.303  17.507  10.974  0.2505 -0.0871  0.0011
  299loPI    C3 4771   9.446  17.843  11.137 -0.0441 -0.0050  0.0958
  299loPI   PO4 4772   9.372  17.773  10.541 -0.0610 -0.2471 -0.0847
  299loPI   GL1 4773   9.248  17.585  10.126 -0.0288  0.1263  0.0582
  299loPI   GL2 4774   9.370  17.362  10.106 -0.5165  0.1976 -0.1295
  299loPI   C1A 4775   9.085  17.750   9.803  0.0280  0.2641 -0.0204
  299loPI   C2A 4776   9.054  17.766   9.443 -0.1389  0.0465 -0.1273
  299loPI   C3A 4777   9.057  17.785   9.006 -0.1200 -0.1911 -0.0099
  299loPI   C4A 4778   9.047  17.804   8.699  0.0154 -0.1641 -0.1523
  299loPI   C5A 4779   8.953  17.867   8.270  0.1730  0.1387  0.2074
  299loPI   C6A 4780   8.588  17.708   8.044  0.0562  0.2177  0.1406
  299loPI   C1B 4781   9.419  17.365   9.657  0.2178 -0.1705 -0.1140
  299loPI   C2B 4782   9.446  17.430   9.267  0.1009  0.0184 -0.1435
  299loPI   C3B 4783   9.355  17.395   8.858  0.0236  0.3294 -0.0794
  299loPI   C4B 4784   9.293  17.468   8.459 -0.1802 -0.0895 -0.0145
  300loPI    C1 4785  13.653   2.732  11.297  0.1188 -0.1194 -0.1006
  300loPI    C2 4786  13.938   2.501  11.457  0.1401 -0.0876 -0.0925
  300loPI    C3 4787  13.728   2.750  11.690 -0.0328 -0.2576 -0.0641
  300loPI   PO4 4788  13.695   2.671  11.057 -0.0025  0.0900 -0.1240
  300loPI   GL1 4789  13.767   2.550  10.646 -0.1918  0.3320 -0.1036
  300loPI   GL2 4790  13.865   2.247  10.563 -0.0644  0.1439  0.3186
  300loPI   C1A 4791  13.672   2.858  10.242 -0.0371 -0.3861 -0.1886
  300loPI   C2A 4792  13.631   2.926   9.827 -0.1691  0.2373 -0.2840
  300loPI   C3A 4793  13.591   2.945   9.439 -0.2222  0.0045 -0.2486
  300loPI   C4A 4794  13.697   2.916   8.984 -0.0221  0.3333 -0.0925
  300loPI   C5A 4795  13.621   2.920   8.609 -0.2993  0.0723  0.3369
  300loPI   C6A 4796  13.402   2.624   8.382  0.1239 -0.2492  0.1467
  300loPI   C1B 4797  13.885   2.418  10.150  0.0782  0.4391  0.0098
  300loPI   C2B 4798  13.938   2.577   9.695 -0.1199  0.3456 -0.0880
  300loPI   C3B 4799  13.969   2.516   9.305 -0.0227  0.0597  0.5436
  300loPI   C4B 4800  14.095   2.592   8.952 -0.0398  0.0937  0.0861
  301loPI    C1 4801   9.313  10.399  10.735 -0.1465 -0.1453  0.0193
  301loPI    C2 4802   9.097  10.582  11.018 -0.0545 -0.0516  0.0293
  301loPI    C3 4803   9.485  10.669  10.975 -0.0362 -0.1650 -0.0372
  301loPI   PO4 4804   9.150  10.316  10.493 -0.0345 -0.2095  0.2441
  301loPI   GL1 4805   9.383  10.296  10.174  0.0694 -0.3262  0.4136
  301loPI   GL2 4806   9.615  10.501  10.021  0.2814 -0.1068  0.2057
  301loPI   C1A 4807   9.394  10.099   9.824  0.2621  0.1202 -0.0939
  301loPI   C2A 4808   9.387  10.089   9.332  0.1895 -0.2851  0.1607
  301loPI   C3A 4809   9.501   9.980   8.846 -0.1051  0.0575  0.0094
  301loPI   C4A 4810   9.599   9.968   8.381  0.0239  0.1961  0.3716
  301loPI   C5A 4811   9.484  10.051   7.966 -0.2646  0.1459 -0.2065
  301loPI   C6A 4812   9.167  10.018   7.612 -0.1247 -0.0728 -0.1722
  301loPI   C1B 4813   9.561  10.509   9.564 -0.0041 -0.1003 -0.2319
  301loPI   C2B 4814   9.612  10.543   9.178  0.3083 -0.1053 -0.2528
  301loPI   C3B 4815   9.695  10.437   8.686  0.0988 -0.1896  0.3153
  301loPI   C4B 4816   9.787  10.434   8.254  0.0885  0.0741 -0.0933
  302loPI    C1 4817   6.440   6.778  11.035  0.0208 -0.0810  0.0507
  302loPI    C2 4818   6.714   6.502  11.130 -0.0062 -0.1420 -0.0478
  302loPI    C3 4819   6.349   6.487  11.294  0.0064 -0.1390 -0.0194
  302loPI   PO4 4820   6.445   6.909  10.788  0.1163  0.2397  0.0149
  302loPI   GL1 4821   6.284   6.766  10.388  0.1051 -0.0624 -0.1122
  302loPI   GL2 4822   6.079   6.948  10.187  0.0616 -0.3285 -0.1947
  302loPI   C1A 4823   6.317   6.623   9.905 -0.4126 -0.0608 -0.0416
  302loPI   C2A 4824   6.335   6.632   9.458  0.0685 -0.2595 -0.1016
  302loPI   C3A 4825   6.278   6.571   9.042 -0.0859  0.1516 -0.1004
  302loPI   C4A 4826   6.223   6.709   8.602 -0.1718  0.2219  0.1204
  302loPI   C5A 4827   5.982   6.698   8.209  0.1782  0.2978  0.1220
  302loPI   C6A 4828   5.784   6.430   7.965 -0.1995  0.0301 -0.1480
  302loPI   C1B 4829   6.042   7.070   9.777 -0.2574 -0.0953 -0.1171
  302loPI   C2B 4830   6.018   7.003   9.327  0.0299 -0.0076  0.1002
  302loPI   C3B 4831   5.984   6.973   8.943  0.3411 -0.0879 -0.0742
  302loPI   C4B 4832   5.792   6.948   8.613  0.1448  0.0820 -0.0852
  303loPI    C1 4833   7.679  16.387  10.517  0.0258  0.0216 -0.0999
  303loPI    C2 4834   7.822  16.344  10.888 -0.0626 -0.1678 -0.0866
  303loPI    C3 4835   8.061  16.474  10.595 -0.0020  0.0170  0.0433
  303loPI   PO4 4836   7.653  16.048  10.413  0.2637 -0.2131  0.2180
  303loPI   GL1 4837   7.872  16.017  10.028 -0.1670 -0.0180 -0.1329
  303loPI   GL2 4838   7.876  16.254  10.006 -0.1560  0.1457  0.1425
  303loPI   C1A 4839   7.522  15.854   9.843 -0.0786  0.1709  0.3373
  303loPI   C2A 4840   7.361  15.758   9.513 -0.2657  0.0795 -0.0947
  303loPI   C3A 4841   7.356  15.798   9.068  0.2038 -0.0209 -0.2266
  303loPI   C4A 4842   7.211  15.914   8.700 -0.1370  0.2048 -0.0427
  303loPI   C5A 4843   6.955  15.691   8.430  0.0422 -0.1515 -0.1061
  303loPI   C6A 4844   6.565  15.716   8.314 -0.0125  0.2483 -0.2475
  303loPI   C1B 4845   7.848  16.112   9.543  0.1092  0.1075 -0.2233
  303loPI   C2B 4846   7.771  16.079   9.137 -0.0548 -0.2193  0.0893
  303loPI   C3B 4847   7.686  16.003   8.717  0.0488 -0.3306  0.1274
  303loPI   C4B 4848   7.728  16.206   8.216  0.1362  0.1462  0.1216
  304loPI    C1 4849   0.830  13.419  11.180  0.0772  0.0782  0.0709
  304loPI    C2 4850   0.731  13.562  11.540  0.0310 -0.3309  0.2260
  304loPI    C3 4851   1.112  13.473  11.458  0.0879  0.0390  0.0676
  304loPI   PO4 4852   0.582  13.450  11.045  0.0185  0.1333  0.4051
  304loPI   GL1 4853   0.128  13.572  10.728 -0.3762 -0.0639  0.0530
  304loPI   GL2 4854  -0.139  13.444  10.694  0.1026  0.1077 -0.0048
  304loPI   C1A 4855   0.247  13.897  10.437 -0.2880 -0.2450  0.0828
  304loPI   C2A 4856   0.211  13.922  10.039 -0.0240  0.1557  0.0004
  304loPI   C3A 4857   0.173  13.872   9.586 -0.1029  0.0620 -0.1960
  304loPI   C4A 4858   0.130  13.802   9.131  0.1253 -0.0015  0.0465
  304loPI   C5A 4859  -0.057  14.014   8.671  0.0388  0.2580 -0.0793
  304loPI   C6A 4860  -0.530  14.056   8.538  0.2642  0.0147  0.1251
  304loPI   C1B 4861   0.006  13.380  10.233  0.1034  0.2814 -0.2002
  304loPI   C2B 4862   0.070  13.446   9.852 -0.0281 -0.0755 -0.0896
  304loPI   C3B 4863  -0.032  13.346   9.384  0.4164  0.1263 -0.2424
  304loPI   C4B 4864  -0.007  13.359   9.003 -0.0064  0.0486  0.1272
  305loPI    C1 4865  16.412  12.335  11.250  0.2127 -0.0504 -0.2296
  305loPI    C2 4866  16.623  12.586  11.479 -0.0839  0.0197 -0.0277
  305loPI    C3 4867  16.555  12.211  11.602 -0.1778  0.0338 -0.0360
  305loPI   PO4 4868  16.447  12.472  11.012 -0.1652  0.0874 -0.1755
  305loPI   GL1 4869  16.332  12.488  10.673  0.1556 -0.0242 -0.1611
  305loPI   GL2 4870  16.119  12.673  10.668  0.0795 -0.3480 -0.1003
  305loPI   C1A 4871  16.361  12.618  10.224 -0.0587  0.0781  0.4743
  305loPI   C2A 4872  16.285  12.639   9.740 -0.0856  0.1573  0.1228
  305loPI   C3A 4873  16.304  12.701   9.276  0.1218 -0.0194  0.4076
  305loPI   C4A 4874  16.250  12.518   8.964  0.3690 -0.1091 -0.1578
  305loPI   C5A 4875  16.191  12.672   8.610  0.2076 -0.1424  0.0257
  305loPI   C6A 4876  15.920  12.971   8.414 -0.2214  0.2939  0.0029
  305loPI   C1B 4877  15.851  12.594  10.306 -0.0028  0.4768  0.3135
  305loPI   C2B 4878  15.776  12.520   9.920 -0.2484 -0.1986  0.3367
  305loPI   C3B 4879  15.831  12.534   9.472  0.4331 -0.0957 -0.1018
  305loPI   C4B 4880  15.734  12.599   9.011 -0.0268 -0.0152 -0.0254
  306loPI    C1 4881  17.649  14.963  11.225 -0.2646 -0.0459  0.1577
  306loPI    C2 4882  17.873  14.700  11.427 -0.0949  0.0325  0.0738
  306loPI    C3 4883  17.795  15.060  11.584  0.0299  0.0903  0.0050
  306loPI   PO4 4884  17.687  14.885  11.006  0.1313  0.1088  0.0864
  306loPI   GL1 4885  17.544  15.122  10.702  0.1176  0.1632 -0.3386
  306loPI   GL2 4886  17.830  15.305  10.672 -0.0701 -0.0655  0.4351
  306loPI   C1A 4887  17.222  15.041  10.321  0.0795  0.0519  0.3558
  306loPI   C2A 4888  17.208  15.081   9.856 -0.1217  0.0354  0.1406
  306loPI   C3A 4889  17.096  15.096   9.445 -0.0990 -0.1001  0.1215
  306loPI   C4A 4890  17.115  15.089   9.031 -0.3256 -0.0359  0.0804
  306loPI   C5A 4891  16.978  15.321   8.613 -0.1013  0.1389  0.1291
  306loPI   C6A 4892  17.192  15.447   8.227 -0.0909 -0.0940 -0.1174
  306loPI   C1B 4893  17.846  15.179  10.209 -0.2040  0.0432 -0.1141
  306loPI   C2B 4894  17.700  15.239   9.828 -0.0535  0.0324 -0.0968
  306loPI   C3B 4895  17.598  15.115   9.494 -0.3709  0.2127 -0.0896
  306loPI   C4B 4896  17.781  15.102   9.083 -0.1129 -0.1302  0.1478
  307loPI    C1 4897   5.212   3.934  10.867 -0.0248  0.0250  0.0840
  307loPI    C2 4898   5.563   3.884  11.052  0.1234  0.0107 -0.1966
  307loPI    C3 4899   5.222   3.807  11.246  0.2774 -0.0569  0.0508
  307loPI   PO4 4900   5.342   4.088  10.611  0.2781  0.2802  0.0540
  307loPI   GL1 4901   5.348   4.167  10.229  0.2066 -0.0382 -0.1486
  307loPI   GL2 4902   5.044   4.282  10.147  0.0926  0.1364  0.1568
  307loPI   C1A 4903   5.394   4.277   9.837  0.0059  0.0751 -0.1967
  307loPI   C2A 4904   5.381   4.159   9.451 -0.2638  0.0690  0.1768
  307loPI   C3A 4905   5.341   4.153   8.980 -0.0224  0.0492  0.0935
  307loPI   C4A 4906   5.308   4.033   8.563 -0.2600  0.0191  0.0807
  307loPI   C5A 4907   5.038   3.672   8.363  0.1921  0.0498 -0.2498
  307loPI   C6A 4908   4.953   3.308   8.102  0.0797  0.2286 -0.3278
  307loPI   C1B 4909   4.896   4.178   9.723  0.2288  0.0015 -0.0826
  307loPI   C2B 4910   4.821   4.049   9.227 -0.1505 -0.0459 -0.2761
  307loPI   C3B 4911   4.762   4.097   8.802 -0.0346 -0.1603 -0.0058
  307loPI   C4B 4912   4.799   4.183   8.349  0.4245  0.2469 -0.1344
  308loPI    C1 4913   4.764  14.563  10.842  0.0327  0.3052 -0.1345
  308loPI    C2 4914   4.974  14.427  10.529 -0.1178 -0.1257 -0.0544
  308loPI    C3 4915   5.164  14.569  10.851  0.0456 -0.1749 -0.1281
  308loPI   PO4 4916   4.517  14.427  10.740  0.0302 -0.2466 -0.0344
  308loPI   GL1 4917   4.381  14.136  10.416 -0.0803  0.2309  0.0293
  308loPI   GL2 4918   4.131  14.208  10.191 -0.0826  0.0340 -0.2675
  308loPI   C1A 4919   4.595  14.199  10.107  0.0365 -0.0740  0.3086
  308loPI   C2A 4920   4.789  14.230   9.684  0.0694 -0.1193 -0.0334
  308loPI   C3A 4921   4.739  14.168   9.213  0.1224 -0.1113  0.0043
  308loPI   C4A 4922   4.728  14.201   8.824  0.1852 -0.0532  0.0920
  308loPI   C5A 4923   4.573  14.072   8.440  0.3416  0.0944  0.1927
  308loPI   C6A 4924   4.773  13.749   8.118 -0.1966 -0.2020  0.0185
  308loPI   C1B 4925   4.174  14.097   9.773  0.0341 -0.1313 -0.0077
  308loPI   C2B 4926   4.143  14.018   9.267 -0.0002  0.1286  0.3610
  308loPI   C3B 4927   4.173  14.100   8.836  0.0286  0.1695  0.1457
  308loPI   C4B 4928   3.995  14.240   8.399  0.0617 -0.4002 -0.0434
  309loPI    C1 4929   2.863   7.003  10.635  0.3801 -0.0473  0.0191
  309loPI    C2 4930   2.773   7.153  10.994 -0.0910 -0.1907 -0.0321
  309loPI    C3 4931   3.094   6.919  10.950  0.0703 -0.0292  0.2555
  309loPI   PO4 4932   2.754   7.182  10.462 -0.3465  0.2140  0.2239
  309loPI   GL1 4933   2.588   7.330  10.136  0.0322  0.1036 -0.1847
  309loPI   GL2 4934   2.479   6.952  10.100 -0.2250  0.0847  0.4221
  309loPI   C1A 4935   2.526   7.422   9.698  0.3203 -0.1372  0.0446
  309loPI   C2A 4936   2.686   7.483   9.281 -0.0864  0.1545  0.0641
  309loPI   C3A 4937   2.650   7.397   8.931  0.3231 -0.1488  0.2727
  309loPI   C4A 4938   2.722   7.527   8.476  0.0864 -0.2058  0.0897
  309loPI   C5A 4939   2.743   7.600   8.070  0.1127  0.2742  0.0232
  309loPI   C6A 4940   2.475   7.610   7.750  0.0860 -0.0010  0.3680
  309loPI   C1B 4941   2.391   6.845   9.687  0.1012  0.0719  0.0406
  309loPI   C2B 4942   2.393   6.942   9.286 -0.1296  0.1418  0.0908
  309loPI   C3B 4943   2.457   6.931   8.911 -0.0190  0.0333  0.5025
  309loPI   C4B 4944   2.411   6.878   8.462  0.0010 -0.3036  0.0835
  310loPI    C1 4945  15.319   5.941  10.820 -0.0356  0.2763  0.3181
  310loPI    C2 4946  14.938   6.021  10.727 -0.0434  0.0080  0.1072
  310loPI    C3 4947  15.036   5.915  11.101 -0.1891 -0.0073  0.1415
  310loPI   PO4 4948  15.428   5.788  10.571 -0.2162  0.0052  0.0339
  310loPI   GL1 4949  15.679   6.021  10.263  0.2034  0.3608 -0.1285
  310loPI   GL2 4950  15.514   6.223  10.279 -0.1310  0.1499 -0.1711
  310loPI   C1A 4951  15.915   6.029   9.852  0.2107  0.2031  0.1109
  310loPI   C2A 4952  15.891   6.170   9.482  0.1041  0.2787  0.0296
  310loPI   C3A 4953  15.740   6.120   9.073  0.2665  0.0505  0.3760
  310loPI   C4A 4954  15.754   5.999   8.760  0.2086 -0.1309  0.0553
  310loPI   C5A 4955  15.814   5.900   8.426 -0.1641 -0.1644  0.2562
  310loPI   C6A 4956  15.446   6.016   8.137 -0.1476 -0.0890 -0.1007
  310loPI   C1B 4957  15.511   6.398   9.819  0.1046 -0.1363 -0.0260
  310loPI   C2B 4958  15.529   6.491   9.410  0.0297 -0.0710 -0.0813
  310loPI   C3B 4959  15.429   6.489   8.998  0.0896  0.2109 -0.1097
  310loPI   C4B 4960  15.448   6.400   8.611 -0.0663 -0.0043  0.2133
  311loPI    C1 4961   0.389   8.923  11.067  0.0615 -0.1632  0.0853
  311loPI    C2 4962   0.105   8.727  10.865  0.0175 -0.1229  0.1076
  311loPI    C3 4963   0.256   8.570  11.200 -0.1991 -0.0011  0.2642
  311loPI   PO4 4964   0.508   9.030  10.920 -0.2480 -0.2016  0.1491
  311loPI   GL1 4965   0.805   9.046  10.543  0.1343 -0.0539  0.0761
  311loPI   GL2 4966   0.843   9.265  10.196 -0.0656  0.0400 -0.0670
  311loPI   C1A 4967   0.744   8.760  10.233  0.2948 -0.2897 -0.0165
  311loPI   C2A 4968   0.806   8.820   9.784 -0.2372  0.1367  0.3486
  311loPI   C3A 4969   0.887   8.827   9.275  0.2152  0.0260  0.0192
  311loPI   C4A 4970   0.820   8.959   8.869 -0.0013  0.0366  0.1049
  311loPI   C5A 4971   0.883   9.094   8.440  0.0849  0.3681  0.1800
  311loPI   C6A 4972   0.981   9.478   8.190 -0.1189 -0.1742  0.1357
  311loPI   C1B 4973   0.968   9.366   9.922 -0.1142  0.0205  0.0789
  311loPI   C2B 4974   1.026   9.367   9.443  0.1000  0.0351 -0.1804
  311loPI   C3B 4975   1.086   9.371   8.981  0.2841 -0.2570 -0.4291
  311loPI   C4B 4976   1.136   9.593   8.600 -0.2328  0.0020 -0.1040
  312loPI    C1 4977   2.982  17.464  10.861 -0.0518 -0.0633  0.1938
  312loPI    C2 4978   3.156  17.201  11.106  0.2505  0.0389  0.0936
  312loPI    C3 4979   3.165  17.591  11.193  0.2342  0.0621 -0.0070
  312loPI   PO4 4980   3.026  17.438  10.577 -0.1584 -0.2911 -0.0689
  312loPI   GL1 4981   2.910  17.225  10.181  0.1109  0.1457  0.1440
  312loPI   GL2 4982   2.792  17.555   9.930  0.1756 -0.4573  0.0086
  312loPI   C1A 4983   2.917  17.133   9.766 -0.0051  0.1229  0.1654
  312loPI   C2A 4984   2.922  17.054   9.324 -0.4602  0.0869  0.0698
  312loPI   C3A 4985   2.911  17.171   8.848 -0.1487  0.0191 -0.3119
  312loPI   C4A 4986   2.796  17.132   8.452  0.3501 -0.2815  0.0342
  312loPI   C5A 4987   2.868  16.813   8.212  0.0292  0.1274  0.1674
  312loPI   C6A 4988   2.772  16.428   8.022 -0.2070 -0.1606  0.2123
  312loPI   C1B 4989   2.734  17.560   9.495 -0.0871  0.1022 -0.2141
  312loPI   C2B 4990   2.728  17.520   9.161 -0.1569  0.1349  0.1601
  312loPI   C3B 4991   2.498  17.538   8.769  0.1981 -0.1377 -0.1108
  312loPI   C4B 4992   2.582  17.556   8.423  0.2567  0.1395  0.1554
  313loPI    C1 4993   6.057  14.206  10.692 -0.2352  0.3525  0.1693
  313loPI    C2 4994   6.183  14.261  11.068  0.0407 -0.2719  0.1818
  313loPI    C3 4995   5.791  14.255  10.987 -0.0278 -0.3934  0.5066
  313loPI   PO4 4996   6.234  13.997  10.622  0.3632  0.0962 -0.0697
  313loPI   GL1 4997   6.229  13.880  10.222 -0.2795  0.0123  0.1743
  313loPI   GL2 4998   6.340  14.197  10.173  0.1448  0.0099 -0.3471
  313loPI   C1A 4999   6.065  13.822   9.779 -0.4083  0.1880  0.0066
  313loPI   C2A 5000   6.071  13.891   9.355 -0.1043 -0.1897  0.3251
  313loPI   C3A 5001   5.921  13.957   8.929  0.0797 -0.0592 -0.0581
  313loPI   C4A 5002   5.949  13.977   8.531 -0.0871 -0.1433 -0.1703
  313loPI   C5A 5003   5.991  13.906   8.148  0.1578  0.2752  0.1191
  313loPI   C6A 5004   6.057  13.937   7.691 -0.0154 -0.1455 -0.3343
  313loPI   C1B 5005   6.444  14.371   9.778  0.0572 -0.0279 -0.2787
  313loPI   C2B 5006   6.337  14.318   9.340  0.4122 -0.1676 -0.2644
  313loPI   C3B 5007   6.284  14.476   8.974  0.3375  0.1855 -0.1081
  313loPI   C4B 5008   6.209  14.433   8.544  0.0613  0.1059 -0.0469
  314loPI    C1 5009   5.841   4.432  11.098  0.2091 -0.3168 -0.0440
  314loPI    C2 5010   5.984   4.802  11.149 -0.1997 -0.1694  0.0689
  314loPI    C3 5011   6.215   4.486  11.230  0.1069  0.0590  0.1048
  314loPI   PO4 5012   5.761   4.373  10.870  0.1220 -0.2839 -0.2647
  314loPI   GL1 5013   5.777   4.376  10.454 -0.1722 -0.0650  0.2425
  314loPI   GL2 5014   5.624   4.696  10.146 -0.0952  0.0274  0.0392
  314loPI   C1A 5015   5.908   4.267  10.128 -0.0542 -0.0681  0.2800
  314loPI   C2A 5016   5.909   4.317   9.658 -0.1060  0.1786  0.0143
  314loPI   C3A 5017   5.811   4.221   9.149  0.0456 -0.2112  0.2430
  314loPI   C4A 5018   5.899   4.281   8.712 -0.0605  0.2488 -0.0869
  314loPI   C5A 5019   5.759   4.122   8.261  0.0470  0.0431 -0.3379
  314loPI   C6A 5020   5.318   4.118   8.107  0.0989  0.2066 -0.1566
  314loPI   C1B 5021   5.575   4.744   9.698 -0.2983 -0.0156  0.1695
  314loPI   C2B 5022   5.653   4.707   9.271  0.1935  0.3322 -0.1421
  314loPI   C3B 5023   5.573   4.636   8.822 -0.0826 -0.1697  0.3054
  314loPI   C4B 5024   5.442   4.564   8.337 -0.2449 -0.1449  0.0880
  315loPI    C1 5025   9.024   7.367  11.140  0.1775 -0.1417  0.1886
  315loPI    C2 5026   8.819   7.519  11.448  0.0580  0.0956 -0.0052
  315loPI    C3 5027   9.010   7.763  11.194  0.3280 -0.1086 -0.0032
  315loPI   PO4 5028   8.787   7.158  10.977  0.2189  0.1250 -0.1038
  315loPI   GL1 5029   8.665   7.300  10.566 -0.1475 -0.1589  0.1564
  315loPI   GL2 5030   8.653   7.014  10.449  0.1532  0.1127 -0.3278
  315loPI   C1A 5031   8.633   7.574  10.214 -0.0943  0.1618 -0.1155
  315loPI   C2A 5032   8.585   7.569   9.770  0.0348 -0.1393  0.1094
  315loPI   C3A 5033   8.536   7.568   9.301  0.1718  0.2085 -0.0296
  315loPI   C4A 5034   8.440   7.535   8.987  0.1908 -0.1066 -0.0664
  315loPI   C5A 5035   8.569   7.523   8.549 -0.2553 -0.2066 -0.1441
  315loPI   C6A 5036   8.744   7.666   8.217 -0.6060  0.1211 -0.0243
  315loPI   C1B 5037   8.838   7.136  10.079  0.0157 -0.1365  0.2446
  315loPI   C2B 5038   8.929   7.125   9.627 -0.0108  0.0144  0.0386
  315loPI   C3B 5039   8.798   7.117   9.228 -0.2473 -0.0857 -0.0319
  315loPI   C4B 5040   8.810   7.148   8.786 -0.0270  0.0346  0.0969
  316loPI    C1 5041   2.223   1.322  10.677 -0.0230  0.1239  0.2136
  316loPI    C2 5042   1.889   1.367  10.893 -0.0477  0.0027  0.2015
  316loPI    C3 5043   2.236   1.289  11.075 -0.0613 -0.0601  0.2006
  316loPI   PO4 5044   2.173   1.211  10.522 -0.0514  0.2095 -0.2450
  316loPI   GL1 5045   2.123   1.303  10.117 -0.0523  0.1175 -0.1550
  316loPI   GL2 5046   2.336   1.420   9.893  0.2118 -0.1826 -0.1348
  316loPI   C1A 5047   1.829   1.314   9.702 -0.1184  0.0938 -0.1337
  316loPI   C2A 5048   1.850   1.200   9.199  0.1241 -0.1753  0.0815
  316loPI   C3A 5049   1.735   1.279   8.803 -0.0918  0.0037  0.0217
  316loPI   C4A 5050   1.736   1.363   8.444  0.0038  0.2408 -0.2380
  316loPI   C5A 5051   1.643   1.431   8.037  0.1703 -0.2420  0.1040
  316loPI   C6A 5052   1.280   1.719   7.912  0.1024 -0.0537 -0.1966
  316loPI   C1B 5053   2.447   1.417   9.450  0.2931  0.1481 -0.1661
  316loPI   C2B 5054   2.371   1.278   9.007  0.0644  0.0520  0.1294
  316loPI   C3B 5055   2.227   1.334   8.593  0.3352  0.2579 -0.3019
  316loPI   C4B 5056   2.066   1.147   8.162  0.0400  0.3687 -0.1453
  317loPI    C1 5057   3.804   2.034  10.741  0.0480 -0.0881  0.1550
  317loPI    C2 5058   4.153   1.850  10.807  0.1279  0.0307  0.0679
  317loPI    C3 5059   3.964   2.036  11.107  0.3336  0.2997  0.0349
  317loPI   PO4 5060   3.817   2.173  10.537 -0.1043  0.0021 -0.2836
  317loPI   GL1 5061   4.128   2.345  10.167  0.0282  0.0245 -0.1651
  317loPI   GL2 5062   3.889   2.575  10.206  0.0174  0.3820  0.3177
  317loPI   C1A 5063   4.193   2.178   9.811 -0.0364 -0.1456 -0.0318
  317loPI   C2A 5064   4.118   2.108   9.377 -0.2479 -0.1043 -0.0279
  317loPI   C3A 5065   4.144   2.106   8.985 -0.1854 -0.0834 -0.1098
  317loPI   C4A 5066   4.077   2.018   8.608 -0.0374 -0.2043 -0.2867
  317loPI   C5A 5067   3.923   2.174   8.266 -0.1068 -0.3233 -0.0516
  317loPI   C6A 5068   3.728   2.170   7.917  0.2158 -0.2288  0.0962
  317loPI   C1B 5069   3.818   2.492   9.784 -0.0666 -0.4830 -0.0036
  317loPI   C2B 5070   3.773   2.502   9.457 -0.1554 -0.1209  0.2542
  317loPI   C3B 5071   3.774   2.432   9.098 -0.2022 -0.0439 -0.0403
  317loPI   C4B 5072   3.720   2.447   8.680  0.1601 -0.1959  0.2812
  318loPI    C1 5073   5.897   8.198  10.652  0.2196  0.1133  0.0758
  318loPI    C2 5074   6.057   8.548  10.545  0.1860  0.2136  0.3464
  318loPI    C3 5075   6.000   8.464  10.932  0.1811 -0.0861  0.2831
  318loPI   PO4 5076   5.715   8.205  10.542  0.1103  0.1156 -0.0447
  318loPI   GL1 5077   5.480   7.996  10.298 -0.3278  0.0139 -0.0731
  318loPI   GL2 5078   5.435   7.644  10.202  0.0949 -0.1848 -0.0576
  318loPI   C1A 5079   5.249   8.044   9.841  0.0779  0.0823 -0.4307
  318loPI   C2A 5080   5.287   7.808   9.416  0.3495  0.1260  0.0308
  318loPI   C3A 5081   5.375   7.792   8.929  0.1888 -0.1638  0.0326
  318loPI   C4A 5082   5.153   7.861   8.528 -0.0279  0.1745 -0.2647
  318loPI   C5A 5083   5.069   7.618   8.253 -0.1263  0.3838 -0.3104
  318loPI   C6A 5084   4.596   7.528   8.028  0.0589  0.1974  0.1792
  318loPI   C1B 5085   5.141   7.432   9.869 -0.1268  0.1542 -0.0130
  318loPI   C2B 5086   5.066   7.373   9.419 -0.2819 -0.0450 -0.3544
  318loPI   C3B 5087   5.149   7.370   9.045 -0.1204  0.0017 -0.0729
  318loPI   C4B 5088   4.999   7.305   8.669 -0.1927  0.0290  0.2261
  319loPI    C1 5089   8.656   5.671  10.878  0.1598  0.0101  0.1477
  319loPI    C2 5090   8.728   5.436  11.193 -0.0146  0.1859  0.3215
  319loPI    C3 5091   8.429   5.701  11.206 -0.1613  0.0460 -0.0734
  319loPI   PO4 5092   8.634   5.566  10.699 -0.0219  0.0453  0.0799
  319loPI   GL1 5093   8.481   5.493  10.305  0.0202  0.3948  0.2071
  319loPI   GL2 5094   8.697   5.310  10.136 -0.0813 -0.1638  0.2015
  319loPI   C1A 5095   8.415   5.614   9.903 -0.0713  0.0486  0.2968
  319loPI   C2A 5096   8.331   5.512   9.432  0.3348  0.3225 -0.1892
  319loPI   C3A 5097   8.204   5.662   9.040 -0.1169  0.0041 -0.1568
  319loPI   C4A 5098   8.206   5.527   8.643  0.1162 -0.3102 -0.2587
  319loPI   C5A 5099   8.182   5.723   8.301 -0.1700 -0.0270  0.0307
  319loPI   C6A 5100   8.386   5.829   7.945 -0.1920  0.2781 -0.0329
  319loPI   C1B 5101   8.697   5.235   9.645  0.2548  0.0282 -0.1238
  319loPI   C2B 5102   8.647   5.181   9.238  0.2850  0.0530 -0.2150
  319loPI   C3B 5103   8.576   5.180   8.792  0.0826 -0.0549  0.1974
  319loPI   C4B 5104   8.474   5.221   8.323 -0.2729 -0.2332  0.2951
  320loPI    C1 5105   7.551   4.478  10.953 -0.0569 -0.1430 -0.1640
  320loPI    C2 5106   7.301   4.413  11.259  0.1917 -0.0671  0.0591
  320loPI    C3 5107   7.567   4.133  11.155 -0.1813 -0.2753 -0.3752
  320loPI   PO4 5108   7.432   4.559  10.828  0.1440  0.2091  0.2962
  320loPI   GL1 5109   7.541   4.770  10.532 -0.1664 -0.1884 -0.0102
  320loPI   GL2 5110   7.832   4.668  10.558 -0.0117  0.3144 -0.0493
  320loPI   C1A 5111   7.508   4.548  10.114  0.4218  0.1287  0.1373
  320loPI   C2A 5112   7.499   4.615   9.681  0.0435  0.0908  0.0460
  320loPI   C3A 5113   7.435   4.509   9.253  0.0654  0.1708  0.0959
  320loPI   C4A 5114   7.364   4.578   8.817 -0.1353 -0.2536 -0.1305
  320loPI   C5A 5115   7.285   4.654   8.342  0.0962 -0.1836 -0.1359
  320loPI   C6A 5116   7.533   4.680   8.001  0.0909 -0.0532  0.0124
  320loPI   C1B 5117   8.077   4.713  10.105  0.0955  0.1571 -0.3344
  320loPI   C2B 5118   8.014   4.581   9.639  0.0006 -0.0554  0.1154
  320loPI   C3B 5119   7.902   4.589   9.162 -0.0997 -0.0196 -0.0798
  320loPI   C4B 5120   7.921   4.607   8.781 -0.2721  0.4281 -0.1077
  321loPI    C1 5121   8.573   3.996  10.985 -0.0430 -0.0196 -0.1938
  321loPI    C2 5122   8.877   4.012  11.245  0.0286  0.1656 -0.2871
  321loPI    C3 5123   8.503   3.959  11.377  0.1013 -0.0776 -0.1729
  321loPI   PO4 5124   8.631   4.191  10.783 -0.0444  0.0648  0.0835
  321loPI   GL1 5125   8.865   4.248  10.434  0.1100  0.2769 -0.3254
  321loPI   GL2 5126   9.187   4.377  10.395 -0.0976 -0.2299  0.1719
  321loPI   C1A 5127   8.813   4.333  10.024 -0.4312  0.1106  0.1147
  321loPI   C2A 5128   8.832   4.374   9.578 -0.2197  0.3263  0.3975
  321loPI   C3A 5129   8.775   4.387   9.163 -0.1634  0.0446  0.1372
  321loPI   C4A 5130   8.701   4.400   8.774 -0.4391 -0.0005  0.2379
  321loPI   C5A 5131   8.725   4.248   8.400  0.3343 -0.1898  0.2218
  321loPI   C6A 5132   9.064   4.354   8.121  0.1643 -0.2469  0.0977
  321loPI   C1B 5133   9.277   4.467  10.015  0.2645  0.1489 -0.0134
  321loPI   C2B 5134   9.328   4.403   9.563 -0.2012  0.1483 -0.0492
  321loPI   C3B 5135   9.242   4.485   9.222 -0.0265 -0.0857 -0.2250
  321loPI   C4B 5136   9.250   4.386   8.768  0.4314 -0.0474 -0.3103
  322loPI    C1 5137   4.107  10.841  10.929  0.0100 -0.0747 -0.0209
  322loPI    C2 5138   4.353  10.531  10.988  0.0414 -0.0154  0.1671
  322loPI    C3 5139   4.187  10.716  11.300 -0.2028 -0.0220  0.0435
  322loPI   PO4 5140   4.186  10.950  10.697  0.0554  0.1812 -0.1140
  322loPI   GL1 5141   4.078  11.108  10.437  0.2578 -0.1842  0.5337
  322loPI   GL2 5142   3.923  10.802  10.347 -0.3320 -0.0209  0.0668
  322loPI   C1A 5143   4.038  11.362  10.013 -0.3577 -0.1588 -0.0041
  322loPI   C2A 5144   4.036  11.374   9.592  0.0326  0.0183 -0.3541
  322loPI   C3A 5145   4.044  11.315   9.100  0.2924 -0.2083 -0.1961
  322loPI   C4A 5146   4.091  11.353   8.690  0.0688  0.1070  0.0611
  322loPI   C5A 5147   4.347  11.355   8.347  0.0362 -0.4731  0.2132
  322loPI   C6A 5148   4.669  11.195   8.191 -0.0547  0.0799  0.4212
  322loPI   C1B 5149   3.954  10.882   9.924  0.0110 -0.1094 -0.2675
  322loPI   C2B 5150   3.906  10.880   9.564 -0.0983  0.3041 -0.2860
  322loPI   C3B 5151   3.875  10.797   9.052 -0.2612 -0.0587  0.2905
  322loPI   C4B 5152   3.857  10.887   8.615  0.1144 -0.0553 -0.1175
  323loPI    C1 5153   9.860  17.642  10.790  0.0027 -0.0720  0.2076
  323loPI    C2 5154  10.250  17.583  10.855  0.1120  0.3894  0.0041
  323loPI    C3 5155  10.022  17.742  11.142  0.0124 -0.1189  0.2167
  323loPI   PO4 5156   9.903  17.808  10.526 -0.0306 -0.0450 -0.1139
  323loPI   GL1 5157   9.748  17.732  10.150  0.1893 -0.0544 -0.1743
  323loPI   GL2 5158   9.565  17.930  10.082 -0.0917  0.2363  0.1953
  323loPI   C1A 5159   9.886  17.434   9.850  0.0203  0.1002 -0.0722
  323loPI   C2A 5160   9.921  17.479   9.404  0.1043  0.2412  0.0598
  323loPI   C3A 5161   9.883  17.567   8.936 -0.0532  0.1461 -0.0556
  323loPI   C4A 5162   9.800  17.494   8.457 -0.1124 -0.1672  0.4741
  323loPI   C5A 5163   9.896  17.695   8.141 -0.1630  0.1294  0.2455
  323loPI   C6A 5164  10.087  17.605   7.758 -0.0799 -0.0186 -0.1343
  323loPI   C1B 5165   9.610  17.863   9.640 -0.1240  0.0523  0.0491
  323loPI   C2B 5166   9.473  17.913   9.247  0.0562 -0.0386  0.0736
  323loPI   C3B 5167   9.489  17.947   8.818  0.0011 -0.2360 -0.1641
  323loPI   C4B 5168   9.427  17.913   8.379 -0.0908 -0.3138 -0.0921
  324loPI    C1 5169   4.100   3.907  10.875  0.0553  0.0590  0.0210
  324loPI    C2 5170   4.180   4.242  11.078 -0.0499  0.0173  0.1330
  324loPI    C3 5171   3.940   3.965  11.238  0.0385 -0.1128  0.0418
  324loPI   PO4 5172   4.160   3.997  10.558  0.2679 -0.2677 -0.0138
  324loPI   GL1 5173   4.308   3.909  10.234 -0.2645 -0.2049  0.0439
  324loPI   GL2 5174   4.135   3.648  10.179  0.0876  0.2235  0.0761
  324loPI   C1A 5175   4.421   4.022   9.909 -0.0023 -0.0271  0.1229
  324loPI   C2A 5176   4.432   3.987   9.544 -0.1663  0.1945 -0.0950
  324loPI   C3A 5177   4.279   3.973   9.122 -0.0202 -0.1776 -0.4380
  324loPI   C4A 5178   4.244   3.933   8.665 -0.0371  0.5406  0.3110
  324loPI   C5A 5179   4.071   3.799   8.191 -0.3098 -0.2510 -0.2208
  324loPI   C6A 5180   3.873   3.704   7.795 -0.2607 -0.0601 -0.0238
  324loPI   C1B 5181   4.146   3.490   9.759 -0.1317 -0.0141 -0.4103
  324loPI   C2B 5182   4.107   3.479   9.267 -0.0996  0.1989 -0.1137
  324loPI   C3B 5183   4.111   3.437   8.941  0.0763  0.1106  0.0426
  324loPI   C4B 5184   4.012   3.384   8.538  0.1826 -0.0377  0.1507
  325loPI    C1 5185  17.318   6.841  10.747 -0.0983 -0.0443 -0.2924
  325loPI    C2 5186  17.165   7.194  10.636 -0.0733  0.0379 -0.0710
  325loPI    C3 5187  17.560   7.152  10.681 -0.0805 -0.0035 -0.0450
  325loPI   PO4 5188  16.974   6.600  10.564 -0.0353 -0.0054 -0.0077
  325loPI   GL1 5189  16.990   6.499  10.213 -0.3416  0.0505 -0.2507
  325loPI   GL2 5190  16.704   6.277  10.138  0.0356 -0.1615  0.2239
  325loPI   C1A 5191  17.045   6.786   9.835  0.1271  0.1510 -0.2701
  325loPI   C2A 5192  17.095   6.650   9.362  0.1783 -0.1280 -0.1494
  325loPI   C3A 5193  17.001   6.822   8.989  0.2528 -0.2560 -0.1070
  325loPI   C4A 5194  17.004   6.708   8.550 -0.2778 -0.0665 -0.3367
  325loPI   C5A 5195  16.900   6.703   8.091 -0.1407 -0.2080  0.0093
  325loPI   C6A 5196  16.558   6.496   7.911 -0.1740  0.0848  0.0530
  325loPI   C1B 5197  16.849   6.270   9.652 -0.0234  0.2835 -0.2302
  325loPI   C2B 5198  16.834   6.208   9.164 -0.1075  0.2015  0.1595
  325loPI   C3B 5199  16.902   6.263   8.810  0.1303  0.2134 -0.0655
  325loPI   C4B 5200  16.827   6.261   8.302  0.1130 -0.0289  0.2485
  326loPI    C1 5201   4.278   8.622  10.722 -0.1324  0.0680  0.0981
  326loPI    C2 5202   4.221   8.236  10.635  0.1095  0.0654 -0.0601
  326loPI    C3 5203   4.435   8.339  10.957 -0.4233  0.0742  0.3051
  326loPI   PO4 5204   4.024   8.745  10.733 -0.1201 -0.1680 -0.0995
  326loPI   GL1 5205   3.895   8.908  10.343 -0.2547 -0.0240  0.0652
  326loPI   GL2 5206   3.954   8.652  10.203 -0.0198 -0.1359 -0.1551
  326loPI   C1A 5207   4.105   9.084  10.040 -0.0929  0.1415  0.0756
  326loPI   C2A 5208   4.215   9.097   9.604 -0.1685  0.1336 -0.2563
  326loPI   C3A 5209   4.243   9.056   9.130 -0.2283  0.1075  0.1676
  326loPI   C4A 5210   4.300   9.129   8.752 -0.0745  0.0607 -0.1006
  326loPI   C5A 5211   4.278   9.205   8.347  0.0310 -0.0266  0.0247
  326loPI   C6A 5212   3.896   9.167   8.125 -0.1788 -0.1597  0.0968
  326loPI   C1B 5213   4.014   8.651   9.746 -0.0469  0.1333 -0.1055
  326loPI   C2B 5214   4.000   8.602   9.284 -0.0088  0.0758  0.0212
  326loPI   C3B 5215   4.038   8.638   8.871  0.0427  0.2049 -0.2074
  326loPI   C4B 5216   4.037   8.623   8.479  0.2834  0.1195 -0.1903
  327loPI    C1 5217   0.764   4.609  10.587 -0.1974  0.0693 -0.3064
  327loPI    C2 5218   0.491   4.820  10.790  0.0139  0.0636 -0.0090
  327loPI    C3 5219   0.503   4.422  10.826 -0.0112  0.0531 -0.1124
  327loPI   PO4 5220   0.716   4.679  10.290 -0.2880 -0.0124  0.2463
  327loPI   GL1 5221   0.292   4.574   9.843 -0.0767 -0.2251 -0.0006
  327loPI   GL2 5222   0.534   4.498   9.887  0.3225  0.1196  0.1083
  327loPI   C1A 5223   0.195   4.599   9.397  0.0434 -0.2791 -0.2958
  327loPI   C2A 5224   0.160   4.631   9.010  0.0616 -0.1061 -0.1265
  327loPI   C3A 5225   0.203   4.668   8.541 -0.0927  0.2116 -0.0760
  327loPI   C4A 5226   0.157   4.653   8.188  0.2577 -0.4546  0.1334
  327loPI   C5A 5227   0.289   4.843   7.882 -0.0566 -0.0059  0.1570
  327loPI   C6A 5228   0.289   4.874   7.431 -0.0523 -0.0970  0.0687
  327loPI   C1B 5229   0.688   4.670   9.526 -0.0416  0.2422  0.3392
  327loPI   C2B 5230   0.738   4.721   9.061 -0.0492  0.0428 -0.4819
  327loPI   C3B 5231   0.774   4.780   8.630  0.3048 -0.3215  0.2068
  327loPI   C4B 5232   0.670   4.737   8.199  0.1034  0.0527 -0.4336
  328loPI    C1 5233  12.668   6.498  11.186  0.1125  0.0606  0.0310
  328loPI    C2 5234  12.312   6.569  11.353  0.0580  0.0598 -0.0841
  328loPI    C3 5235  12.631   6.504  11.584 -0.0170  0.0566  0.0194
  328loPI   PO4 5236  12.623   6.534  11.013 -0.3178 -0.1462 -0.0979
  328loPI   GL1 5237  12.486   6.505  10.527  0.0164 -0.2318 -0.1680
  328loPI   GL2 5238  12.163   6.431  10.582  0.0502  0.3841 -0.1311
  328loPI   C1A 5239  12.519   6.417  10.183  0.1796 -0.1655  0.0830
  328loPI   C2A 5240  12.501   6.403   9.741  0.1400  0.1418 -0.2176
  328loPI   C3A 5241  12.580   6.326   9.318  0.0739 -0.0200  0.2112
  328loPI   C4A 5242  12.413   6.360   8.857 -0.0347  0.1695  0.1506
  328loPI   C5A 5243  12.215   6.632   8.572 -0.1891 -0.0911  0.0285
  328loPI   C6A 5244  11.878   6.964   8.303  0.0822  0.0590 -0.3213
  328loPI   C1B 5245  12.082   6.693  10.213 -0.1615  0.0566  0.0236
  328loPI   C2B 5246  12.178   6.759   9.798  0.1533  0.2415 -0.0490
  328loPI   C3B 5247  12.192   6.688   9.425  0.2945 -0.1152 -0.1779
  328loPI   C4B 5248  12.090   6.736   9.052  0.0252  0.1142  0.1697
  329loPI    C1 5249   8.847  15.570  10.760 -0.2745 -0.0328  0.2850
  329loPI    C2 5250   8.625  15.846  10.574 -0.1149 -0.0373  0.0844
  329loPI    C3 5251   8.465  15.625  10.866 -0.4452 -0.2000 -0.2128
  329loPI   PO4 5252   9.026  15.508  10.568 -0.1960  0.0324 -0.2474
  329loPI   GL1 5253   8.898  15.392  10.193  0.1058 -0.3999  0.1094
  329loPI   GL2 5254   8.802  15.634  10.064 -0.0550 -0.0710 -0.0566
  329loPI   C1A 5255   9.137  15.393   9.775  0.1685 -0.0731 -0.0158
  329loPI   C2A 5256   9.200  15.471   9.331 -0.0202 -0.2991 -0.0620
  329loPI   C3A 5257   9.203  15.443   8.896  0.0219 -0.1670 -0.0023
  329loPI   C4A 5258   9.267  15.636   8.411 -0.3050 -0.2061 -0.0290
  329loPI   C5A 5259   9.287  15.489   7.994  0.1661  0.3083  0.0339
  329loPI   C6A 5260   9.419  15.337   7.602 -0.2157 -0.2045 -0.0733
  329loPI   C1B 5261   8.834  15.922   9.796 -0.0465 -0.3142  0.2827
  329loPI   C2B 5262   8.886  15.931   9.305 -0.0293 -0.0723  0.0840
  329loPI   C3B 5263   8.952  15.859   8.899  0.1153 -0.3885 -0.0093
  329loPI   C4B 5264   8.903  15.988   8.447 -0.1334 -0.1049  0.0520
  330loPI    C1 5265  14.687  10.525  11.196  0.2326 -0.0655 -0.1205
  330loPI    C2 5266  14.955  10.811  11.114  0.1285  0.0752  0.0215
  330loPI    C3 5267  14.780  10.799  11.473 -0.2942  0.1801 -0.1747
  330loPI   PO4 5268  14.643  10.396  10.857 -0.0308  0.0699 -0.0330
  330loPI   GL1 5269  14.698  10.451  10.563 -0.0104  0.1080  0.2380
  330loPI   GL2 5270  14.618  10.171  10.385  0.1359  0.3103  0.1767
  330loPI   C1A 5271  14.907  10.566  10.201  0.0315  0.1307  0.0842
  330loPI   C2A 5272  15.092  10.579   9.867  0.1249 -0.0231 -0.2821
  330loPI   C3A 5273  15.065  10.473   9.384  0.2610 -0.0945  0.0369
  330loPI   C4A 5274  15.035  10.506   8.978  0.2000  0.1347 -0.2170
  330loPI   C5A 5275  14.685  10.284   8.733  0.0195  0.1046 -0.1432
  330loPI   C6A 5276  14.644  10.227   8.307  0.4262 -0.0898  0.1841
  330loPI   C1B 5277  14.839  10.123   9.890  0.5087  0.0269  0.0582
  330loPI   C2B 5278  14.864   9.948   9.412 -0.0138  0.2241  0.0514
  330loPI   C3B 5279  14.923   9.923   9.034 -0.0243 -0.0496 -0.0885
  330loPI   C4B 5280  14.958   9.876   8.580  0.0293 -0.1655  0.1584
  331loPI    C1 5281  17.006   4.753  10.820  0.0628 -0.2600 -0.0657
  331loPI    C2 5282  17.036   4.455  11.085  0.0483 -0.1339  0.0795
  331loPI    C3 5283  17.191   4.814  11.170  0.0300 -0.0883 -0.0773
  331loPI   PO4 5284  16.868   4.721  10.621  0.0996 -0.2571 -0.2308
  331loPI   GL1 5285  16.836   4.811  10.154 -0.3120  0.0989 -0.0031
  331loPI   GL2 5286  16.783   5.097  10.302  0.0414 -0.1690  0.2014
  331loPI   C1A 5287  16.779   4.876   9.716 -0.1878  0.1520 -0.0327
  331loPI   C2A 5288  16.764   4.881   9.390  0.5168 -0.2198  0.1929
  331loPI   C3A 5289  16.809   4.789   8.943 -0.1718  0.2897 -0.0800
  331loPI   C4A 5290  16.799   4.800   8.529 -0.0739 -0.2839  0.0479
  331loPI   C5A 5291  16.682   4.863   8.065 -0.0432  0.1210  0.2135
  331loPI   C6A 5292  16.672   4.643   7.689  0.4342  0.0514 -0.0973
  331loPI   C1B 5293  16.555   5.312   9.919  0.2965 -0.1847 -0.0217
  331loPI   C2B 5294  16.403   5.245   9.432 -0.2442 -0.1152 -0.2405
  331loPI   C3B 5295  16.449   5.286   8.958  0.0385 -0.2661  0.0627
  331loPI   C4B 5296  16.519   5.228   8.496 -0.0807 -0.1802  0.0778
  332loPI    C1 5297  10.348  10.152  10.610 -0.0772 -0.0489  0.1442
  332loPI    C2 5298  10.425   9.919  10.926  0.1473  0.0333  0.1520
  332loPI    C3 5299  10.148  10.206  10.952 -0.1274 -0.2263  0.1437
  332loPI   PO4 5300  10.356  10.085  10.408 -0.0674 -0.0842 -0.0978
  332loPI   GL1 5301  10.453  10.100  10.110  0.1213 -0.3562 -0.3987
  332loPI   GL2 5302  10.648  10.246   9.934  0.0763 -0.2924 -0.1944
  332loPI   C1A 5303  10.306   9.763   9.795  0.2863 -0.4587  0.0031
  332loPI   C2A 5304  10.204   9.764   9.357 -0.1187  0.1837 -0.1068
  332loPI   C3A 5305  10.305   9.680   8.897 -0.1865  0.2664 -0.0784
  332loPI   C4A 5306  10.476   9.710   8.540 -0.0817  0.1769 -0.0025
  332loPI   C5A 5307  10.512   9.607   8.131 -0.1177  0.1098 -0.1314
  332loPI   C6A 5308  10.334   9.665   7.700 -0.1728  0.3291  0.0161
  332loPI   C1B 5309  10.488  10.249   9.485 -0.3250 -0.1799 -0.0976
  332loPI   C2B 5310  10.462  10.221   9.059  0.1580 -0.1964  0.2159
  332loPI   C3B 5311  10.583  10.228   8.683  0.1978  0.0885  0.1394
  332loPI   C4B 5312  10.683  10.072   8.194 -0.5674  0.3601 -0.0816
  333loPI    C1 5313   7.301  14.058  10.532 -0.0688  0.0855  0.0523
  333loPI    C2 5314   7.480  13.762  10.332 -0.1568  0.0408  0.0392
  333loPI    C3 5315   7.146  13.690  10.540 -0.2207  0.1468 -0.0255
  333loPI   PO4 5316   7.341  14.282  10.329  0.3078 -0.3109 -0.0856
  333loPI   GL1 5317   7.566  14.348   9.974  0.0572  0.0392 -0.2384
  333loPI   GL2 5318   7.584  14.069   9.912  0.0998 -0.0321 -0.1393
  333loPI   C1A 5319   7.416  14.373   9.479 -0.1876  0.3537 -0.1430
  333loPI   C2A 5320   7.332  14.435   9.047 -0.1535  0.1816  0.1072
  333loPI   C3A 5321   7.417  14.503   8.677 -0.3089  0.3824  0.0380
  333loPI   C4A 5322   7.460  14.690   8.248  0.0628 -0.0402  0.2245
  333loPI   C5A 5323   7.796  14.832   8.009  0.2672  0.0804 -0.3398
  333loPI   C6A 5324   8.132  15.211   7.981  0.3240  0.0652 -0.1644
  333loPI   C1B 5325   7.673  13.975   9.406 -0.1574  0.1298  0.0390
  333loPI   C2B 5326   7.626  14.018   8.913  0.1157  0.1851 -0.0012
  333loPI   C3B 5327   7.666  14.174   8.474 -0.0074  0.0645 -0.0786
  333loPI   C4B 5328   7.974  14.319   8.211 -0.0487 -0.1109  0.3551
  334loPI    C1 5329   1.508  13.708  11.228 -0.0588  0.1136 -0.0259
  334loPI    C2 5330   1.510  14.064  11.046  0.1218  0.1106 -0.0318
  334loPI    C3 5331   1.787  13.979  11.322  0.3010 -0.1559 -0.2873
  334loPI   PO4 5332   1.436  13.607  10.967  0.0028  0.0909  0.0208
  334loPI   GL1 5333   1.241  13.360  10.619  0.0544 -0.1122 -0.0675
  334loPI   GL2 5334   0.948  13.162  10.638 -0.0896  0.0114  0.2233
  334loPI   C1A 5335   1.200  13.672  10.248  0.1862  0.1417  0.0688
  334loPI   C2A 5336   1.070  13.630   9.809  0.1248 -0.0985 -0.0814
  334loPI   C3A 5337   1.014  13.558   9.370  0.1585 -0.2236  0.1506
  334loPI   C4A 5338   0.969  13.559   8.966 -0.1302 -0.3703  0.1165
  334loPI   C5A 5339   0.732  13.363   8.686  0.0369 -0.2386 -0.1593
  334loPI   C6A 5340   0.299  13.090   8.727  0.0131 -0.1711 -0.1122
  334loPI   C1B 5341   0.992  13.122  10.199  0.1630  0.0511 -0.0106
  334loPI   C2B 5342   0.917  13.134   9.723  0.2193 -0.0551  0.1278
  334loPI   C3B 5343   0.777  13.024   9.340  0.0534 -0.2629  0.0711
  334loPI   C4B 5344   0.750  12.953   8.924  0.1265  0.1259  0.0307
  335loPI    C1 5345   7.840   5.978  10.863 -0.1770 -0.0380  0.0784
  335loPI    C2 5346   7.947   5.781  11.195 -0.2798 -0.0874  0.0827
  335loPI    C3 5347   7.878   6.175  11.209  0.1300 -0.0094  0.0307
  335loPI   PO4 5348   7.641   5.779  10.788  0.0094  0.1692 -0.0940
  335loPI   GL1 5349   7.604   5.445  10.521  0.1622  0.0222  0.1941
  335loPI   GL2 5350   7.300   5.534  10.294 -0.0239 -0.1184  0.0710
  335loPI   C1A 5351   7.878   5.522  10.112  0.1932  0.1917  0.0494
  335loPI   C2A 5352   7.884   5.556   9.685  0.0562 -0.2841 -0.1381
  335loPI   C3A 5353   7.772   5.489   9.285  0.0069 -0.2326  0.0035
  335loPI   C4A 5354   7.714   5.448   8.854  0.2716  0.0944 -0.1680
  335loPI   C5A 5355   7.754   5.493   8.428  0.1372 -0.0892  0.1330
  335loPI   C6A 5356   7.450   5.340   8.182  0.2217  0.1127  0.0565
  335loPI   C1B 5357   7.395   5.450   9.877  0.1479  0.1848  0.1222
  335loPI   C2B 5358   7.305   5.420   9.424  0.0718 -0.1783  0.0890
  335loPI   C3B 5359   7.273   5.426   9.022  0.3452 -0.0277 -0.3065
  335loPI   C4B 5360   7.217   5.446   8.633 -0.2159 -0.0340  0.0136
  336loPI    C1 5361  17.817  12.775  11.195 -0.1142 -0.0975 -0.1502
  336loPI    C2 5362  18.070  12.471  11.258 -0.0085  0.0059 -0.0707
  336loPI    C3 5363  17.992  12.730  11.552 -0.1349  0.0290 -0.1237
  336loPI   PO4 5364  17.879  12.850  11.005  0.0024  0.0448 -0.0389
  336loPI   GL1 5365  17.804  12.679  10.677  0.1565  0.2356  0.3232
  336loPI   GL2 5366  17.909  12.951  10.530  0.0126 -0.0245  0.2711
  336loPI   C1A 5367  17.941  12.505  10.262  0.0473 -0.3084  0.1171
  336loPI   C2A 5368  17.890  12.514   9.836  0.0954 -0.1085  0.0552
  336loPI   C3A 5369  18.058  12.458   9.376 -0.2993  0.1700  0.0739
  336loPI   C4A 5370  18.160  12.477   8.999 -0.0386  0.3120 -0.3311
  336loPI   C5A 5371  18.210  12.669   8.539 -0.2932 -0.0220  0.0590
  336loPI   C6A 5372  18.447  12.476   8.246 -0.3188 -0.0691 -0.3681
  336loPI   C1B 5373  17.819  12.973  10.036  0.1359 -0.0641  0.5114
  336loPI   C2B 5374  17.823  12.940   9.527 -0.1997  0.1114 -0.1614
  336loPI   C3B 5375  17.769  12.812   9.215  0.0962 -0.4196  0.0431
  336loPI   C4B 5376  17.865  12.860   8.845 -0.3313  0.0211 -0.0025
  337loPI    C1 5377  14.351   4.408  11.011 -0.3537  0.0622  0.0039
  337loPI    C2 5378  14.386   4.424  11.409 -0.1942  0.0281 -0.0080
  337loPI    C3 5379  14.067   4.250  11.243 -0.2104 -0.0507  0.1047
  337loPI   PO4 5380  14.554   4.316  10.961  0.0864  0.4612  0.1283
  337loPI   GL1 5381  14.602   4.188  10.529 -0.0356  0.0283 -0.0407
  337loPI   GL2 5382  14.596   3.839  10.366 -0.0222  0.2223 -0.0051
  337loPI   C1A 5383  14.369   4.271  10.223  0.2537 -0.1466 -0.1311
  337loPI   C2A 5384  14.252   4.330   9.690  0.0009  0.1461  0.2102
  337loPI   C3A 5385  14.156   4.334   9.288  0.0202  0.0804 -0.0746
  337loPI   C4A 5386  14.207   4.421   8.843 -0.0568  0.1792  0.1087
  337loPI   C5A 5387  14.026   4.241   8.464 -0.2287 -0.1807 -0.0948
  337loPI   C6A 5388  14.005   3.919   8.317 -0.3117  0.1826  0.0155
  337loPI   C1B 5389  14.510   3.959   9.903  0.2503 -0.2401  0.3350
  337loPI   C2B 5390  14.503   3.994   9.464  0.0722  0.2983  0.0153
  337loPI   C3B 5391  14.502   3.994   9.039 -0.2857  0.1321 -0.0322
  337loPI   C4B 5392  14.487   4.001   8.583  0.3212 -0.0285 -0.2673
  338loPI    C1 5393  17.008   6.150  10.785  0.1447 -0.1284  0.0341
  338loPI    C2 5394  17.311   6.045  11.025  0.2258  0.1345  0.0495
  338loPI    C3 5395  17.216   6.431  10.980 -0.0025  0.0646 -0.0842
  338loPI   PO4 5396  17.030   6.065  10.526  0.2978 -0.1495 -0.1042
  338loPI   GL1 5397  17.148   5.980  10.083 -0.2054  0.0245 -0.1615
  338loPI   GL2 5398  17.396   6.110  10.137  0.2024 -0.1603 -0.1109
  338loPI   C1A 5399  17.216   5.906   9.609 -0.0015  0.2303  0.0373
  338loPI   C2A 5400  17.219   5.888   9.091 -0.0536 -0.0481 -0.0398
  338loPI   C3A 5401  17.144   5.850   8.687 -0.1890 -0.0191  0.1592
  338loPI   C4A 5402  17.118   5.870   8.239 -0.4653  0.0168  0.0583
  338loPI   C5A 5403  17.229   6.284   8.002  0.0717 -0.0965  0.0024
  338loPI   C6A 5404  17.108   6.511   7.666 -0.0345  0.0831 -0.2039
  338loPI   C1B 5405  17.418   6.344   9.787  0.0096  0.0779  0.3215
  338loPI   C2B 5406  17.425   6.285   9.415 -0.0402 -0.1093  0.0746
  338loPI   C3B 5407  17.339   6.405   9.006  0.0008 -0.1705 -0.1071
  338loPI   C4B 5408  17.292   6.304   8.507 -0.1459 -0.2499  0.4160
  339loPI    C1 5409   4.017  11.825  10.770 -0.2140  0.0238 -0.1005
  339loPI    C2 5410   3.835  11.643  11.076 -0.0790  0.0150 -0.0249
  339loPI    C3 5411   4.103  11.444  10.855  0.1488  0.1510  0.1243
  339loPI   PO4 5412   3.814  12.074  10.778  0.1832 -0.0552  0.0119
  339loPI   GL1 5413   3.920  12.391  10.476  0.0764  0.1164  0.0858
  339loPI   GL2 5414   3.664  12.622  10.300  0.3853  0.0393 -0.1342
  339loPI   C1A 5415   3.879  12.183  10.134  0.2073 -0.0969  0.0680
  339loPI   C2A 5416   3.937  12.318   9.735 -0.4558 -0.2356  0.1071
  339loPI   C3A 5417   3.890  12.231   9.336 -0.2361  0.0728 -0.1870
  339loPI   C4A 5418   3.888  12.316   8.900 -0.1420 -0.1132 -0.1822
  339loPI   C5A 5419   3.798  12.227   8.483  0.3117 -0.0482 -0.1996
  339loPI   C6A 5420   3.483  11.914   8.346  0.1058  0.0616 -0.2545
  339loPI   C1B 5421   3.625  12.744   9.834  0.0993 -0.1032  0.2236
  339loPI   C2B 5422   3.551  12.666   9.382 -0.2492  0.0492  0.0612
  339loPI   C3B 5423   3.510  12.687   8.948  0.0652  0.0153 -0.0288
  339loPI   C4B 5424   3.610  12.720   8.515  0.2299  0.0167  0.0300
  340loPI    C1 5425   1.295  16.540  10.764  0.0706 -0.2311  0.3255
  340loPI    C2 5426   1.658  16.701  10.807  0.0849 -0.0811 -0.2635
  340loPI    C3 5427   1.344  16.935  10.726 -0.1136 -0.2315  0.0523
  340loPI   PO4 5428   1.312  16.398  10.545  0.1657  0.1498 -0.0340
  340loPI   GL1 5429   1.317  16.466  10.216  0.1483 -0.2222 -0.0402
  340loPI   GL2 5430   1.432  16.103  10.203  0.0468 -0.0027 -0.1732
  340loPI   C1A 5431   1.242  16.459   9.762 -0.0853  0.1031 -0.2149
  340loPI   C2A 5432   1.121  16.253   9.436  0.1983  0.2403 -0.1093
  340loPI   C3A 5433   1.095  16.357   9.051  0.0928 -0.0506  0.0834
  340loPI   C4A 5434   1.096  16.488   8.625 -0.0490 -0.0493 -0.0488
  340loPI   C5A 5435   1.073  16.312   8.258  0.2927  0.0056 -0.0409
  340loPI   C6A 5436   0.782  16.212   7.993  0.0012  0.2645 -0.0807
  340loPI   C1B 5437   1.460  15.971   9.750 -0.0723 -0.0797 -0.2279
  340loPI   C2B 5438   1.425  15.881   9.343 -0.2066 -0.0917  0.1439
  340loPI   C3B 5439   1.443  15.813   8.950  0.2069  0.4317 -0.1354
  340loPI   C4B 5440   1.337  16.065   8.637 -0.0039  0.0721  0.3365
  341loPI    C1 5441   3.016   9.681  10.800  0.0792  0.2142  0.0354
  341loPI    C2 5442   2.699   9.781  11.023 -0.1121 -0.2613 -0.0108
  341loPI    C3 5443   2.980   9.539  11.173  0.0493 -0.1266 -0.0933
  341loPI   PO4 5444   2.939   9.684  10.632 -0.2084 -0.1249 -0.3615
  341loPI   GL1 5445   2.983   9.823  10.188 -0.2131 -0.1312 -0.2212
  341loPI   GL2 5446   2.674   9.730  10.080 -0.0393  0.2332 -0.1626
  341loPI   C1A 5447   3.096   9.747   9.775  0.0730  0.2879  0.2261
  341loPI   C2A 5448   3.126   9.750   9.350 -0.0629  0.3025  0.0257
  341loPI   C3A 5449   3.053   9.731   8.942  0.1596 -0.3224 -0.0155
  341loPI   C4A 5450   3.023   9.807   8.517  0.0519 -0.1047 -0.7219
  341loPI   C5A 5451   3.062   9.702   8.134 -0.0696 -0.0560 -0.0373
  341loPI   C6A 5452   2.900   9.337   8.043  0.0638  0.3348  0.1398
  341loPI   C1B 5453   2.579   9.553   9.665 -0.0445  0.2698  0.1259
  341loPI   C2B 5454   2.566   9.549   9.228  0.0237  0.0601  0.1682
  341loPI   C3B 5455   2.572   9.710   8.787 -0.1696 -0.1166 -0.2042
  341loPI   C4B 5456   2.507   9.712   8.317 -0.3311  0.3991 -0.0059
  342loPI    C1 5457   2.819  15.747  10.851 -0.0603 -0.0377  0.0333
  342loPI    C2 5458   3.183  15.584  10.872 -0.0050  0.0542 -0.1844
  342loPI    C3 5459   3.031  15.775  11.189  0.0836 -0.0927 -0.0517
  342loPI   PO4 5460   2.787  15.565  10.473 -0.1340 -0.0676 -0.1384
  342loPI   GL1 5461   2.924  15.697  10.080  0.2611  0.0493  0.0567
  342loPI   GL2 5462   2.675  15.749  10.023  0.2924  0.2286  0.1037
  342loPI   C1A 5463   3.008  15.719   9.606  0.0758  0.3321  0.0427
  342loPI   C2A 5464   2.857  15.683   9.198 -0.1102  0.0275  0.0266
  342loPI   C3A 5465   2.742  15.663   8.855  0.0045 -0.1524 -0.0893
  342loPI   C4A 5466   2.854  15.805   8.364  0.2121  0.0010  0.0948
  342loPI   C5A 5467   3.068  16.039   8.209 -0.0472 -0.1386 -0.2391
  342loPI   C6A 5468   3.296  16.408   8.062 -0.0790 -0.1924  0.2744
  342loPI   C1B 5469   2.530  16.069   9.822 -0.0355  0.0681 -0.3875
  342loPI   C2B 5470   2.538  16.188   9.476  0.0796  0.0862 -0.3259
  342loPI   C3B 5471   2.618  16.099   9.078  0.1310  0.3413  0.0617
  342loPI   C4B 5472   2.504  16.094   8.643 -0.2391 -0.4175  0.1020
  343loPI    C1 5473  10.691  16.058  10.547  0.0940  0.0705  0.1035
  343loPI    C2 5474  10.383  16.231  10.360  0.0287 -0.1955 -0.0398
  343loPI    C3 5475  10.363  16.159  10.753 -0.0591 -0.1388 -0.0335
  343loPI   PO4 5476  10.837  15.892  10.387 -0.0648 -0.1523 -0.2169
  343loPI   GL1 5477  10.967  15.843  10.068  0.1350 -0.0986 -0.1491
  343loPI   GL2 5478  11.269  15.882  10.022 -0.1428  0.1158 -0.0509
  343loPI   C1A 5479  10.855  15.848   9.691  0.2502  0.0951 -0.2301
  343loPI   C2A 5480  10.788  15.887   9.313  0.1315  0.1733 -0.1774
  343loPI   C3A 5481  10.779  15.871   8.895 -0.1903 -0.1806  0.1717
  343loPI   C4A 5482  10.760  15.797   8.398 -0.1208  0.0458 -0.0111
  343loPI   C5A 5483  10.512  15.990   8.057  0.0533  0.1997 -0.0357
  343loPI   C6A 5484  10.457  15.904   7.619  0.1792 -0.0864 -0.0478
  343loPI   C1B 5485  11.368  15.909   9.549  0.3040 -0.0025 -0.0218
  343loPI   C2B 5486  11.296  15.964   9.093 -0.1545 -0.1703  0.2024
  343loPI   C3B 5487  11.220  15.919   8.632  0.4477  0.1184 -0.2015
  343loPI   C4B 5488  11.244  15.928   8.273 -0.0619 -0.1364 -0.0639
  344loPI    C1 5489   9.970   8.810  10.510  0.0309 -0.0960  0.1549
  344loPI    C2 5490  10.081   9.193  10.535 -0.1903 -0.0115 -0.1104
  344loPI    C3 5491  10.135   8.948  10.846  0.2244  0.1603 -0.0416
  344loPI   PO4 5492   9.712   8.830  10.395 -0.2276  0.0485 -0.1214
  344loPI   GL1 5493   9.525   8.712  10.013  0.0016  0.0625  0.0502
  344loPI   GL2 5494   9.759   8.771   9.792  0.5274  0.1822  0.1301
  344loPI   C1A 5495   9.311   8.635   9.569 -0.0121 -0.1803  0.1037
  344loPI   C2A 5496   9.399   8.608   9.184 -0.0681 -0.1689  0.2493
  344loPI   C3A 5497   9.402   8.577   8.810  0.0256  0.1800  0.0581
  344loPI   C4A 5498   9.686   8.575   8.500  0.0415  0.1199  0.2084
  344loPI   C5A 5499  10.094   8.729   8.137 -0.0496  0.1894  0.1253
  344loPI   C6A 5500  10.065   8.987   7.849  0.0475 -0.0744 -0.2791
  344loPI   C1B 5501   9.865   8.680   9.469  0.1205  0.0522 -0.4540
  344loPI   C2B 5502   9.889   8.697   9.008  0.4268 -0.2454 -0.3238
  344loPI   C3B 5503  10.173   8.738   8.629  0.0703  0.1251 -0.0997
  344loPI   C4B 5504  10.361   9.117   8.222  0.0724  0.2268  0.0829
  345loPI    C1 5505   5.776   5.473  10.685 -0.1167  0.1770 -0.1281
  345loPI    C2 5506   5.700   5.260  11.015  0.0357 -0.0428 -0.2322
  345loPI    C3 5507   5.799   5.647  11.045 -0.0031 -0.0477 -0.0249
  345loPI   PO4 5508   5.905   5.329  10.557  0.2392 -0.0450 -0.4317
  345loPI   GL1 5509   5.892   5.146  10.280 -0.1692 -0.1164  0.1707
  345loPI   GL2 5510   6.124   4.935  10.282  0.0471  0.3162 -0.3808
  345loPI   C1A 5511   5.792   5.186   9.860  0.1034 -0.0246  0.1799
  345loPI   C2A 5512   5.811   5.144   9.471  0.0454  0.0161  0.0449
  345loPI   C3A 5513   5.766   5.225   9.038  0.2019 -0.1275  0.0265
  345loPI   C4A 5514   5.672   5.306   8.527  0.3284  0.1257  0.0953
  345loPI   C5A 5515   5.739   5.082   8.191  0.0310 -0.1549  0.1503
  345loPI   C6A 5516   6.031   5.012   7.826  0.4931 -0.0813  0.2110
  345loPI   C1B 5517   6.040   4.798   9.876 -0.0200  0.2044  0.2595
  345loPI   C2B 5518   6.166   4.699   9.456 -0.0064 -0.1978 -0.0172
  345loPI   C3B 5519   6.064   4.762   9.037  0.1516 -0.3472 -0.0022
  345loPI   C4B 5520   5.981   4.749   8.490  0.1593  0.0848  0.3094
  346loPI    C1 5521  12.215  11.750  10.549 -0.0455 -0.0175  0.0033
  346loPI    C2 5522  12.320  12.098  10.716  0.1296  0.0427 -0.2273
  346loPI    C3 5523  11.981  11.916  10.827  0.0781  0.2454 -0.0473
  346loPI   PO4 5524  12.155  11.862  10.302 -0.0415  0.2099 -0.3451
  346loPI   GL1 5525  12.034  12.001   9.999  0.1575  0.1650  0.0512
  346loPI   GL2 5526  12.140  12.309  10.075 -0.0887 -0.1931 -0.0207
  346loPI   C1A 5527  12.126  12.033   9.555 -0.1793 -0.1060  0.0598
  346loPI   C2A 5528  12.248  11.966   9.119 -0.1354 -0.0918 -0.2250
  346loPI   C3A 5529  12.263  11.809   8.699  0.0708 -0.0276  0.1782
  346loPI   C4A 5530  12.307  11.750   8.300 -0.0370 -0.2752 -0.0037
  346loPI   C5A 5531  12.628  11.687   7.972 -0.0606  0.0528  0.1515
  346loPI   C6A 5532  13.015  11.578   8.012  0.0524 -0.1551  0.1105
  346loPI   C1B 5533  12.317  12.493   9.721  0.1587  0.1745  0.1261
  346loPI   C2B 5534  12.391  12.428   9.222  0.0568  0.2465 -0.1026
  346loPI   C3B 5535  12.424  12.372   8.704  0.0517 -0.2377 -0.0048
  346loPI   C4B 5536  12.479  12.305   8.217 -0.0977 -0.1097 -0.2827
  347loPI    C1 5537   1.759  17.036  10.423  0.0950  0.0498 -0.1982
  347loPI    C2 5538   1.749  17.400  10.590 -0.0321 -0.0406 -0.0050
  347loPI    C3 5539   2.100  17.218  10.527  0.0212  0.0297  0.0866
  347loPI   PO4 5540   1.590  16.998  10.302  0.0681  0.1392 -0.1154
  347loPI   GL1 5541   1.385  17.113   9.976 -0.1127 -0.2080  0.0186
  347loPI   GL2 5542   1.024  17.247   9.892  0.0839 -0.2466 -0.0210
  347loPI   C1A 5543   1.463  16.940   9.600 -0.0083 -0.1930 -0.2416
  347loPI   C2A 5544   1.314  16.804   9.175  0.0207 -0.1471  0.1271
  347loPI   C3A 5545   1.216  16.945   8.757 -0.1102 -0.0984 -0.0986
  347loPI   C4A 5546   1.235  16.967   8.320  0.0779 -0.1199  0.1550
  347loPI   C5A 5547   1.429  17.193   7.919  0.2647  0.2208 -0.0353
  347loPI   C6A 5548   1.856  17.100   7.859  0.1358  0.0166 -0.0190
  347loPI   C1B 5549   1.025  17.173   9.398  0.1854 -0.2587 -0.0210
  347loPI   C2B 5550   0.911  17.278   8.980  0.2364  0.1650  0.0547
  347loPI   C3B 5551   0.978  17.369   8.468  0.1605  0.0270 -0.2471
  347loPI   C4B 5552   0.723  17.118   8.144 -0.4344 -0.2723 -0.2685
  348loPI    C1 5553   7.231  13.055  10.282 -0.0561  0.0011  0.0049
  348loPI    C2 5554   7.180  12.947  10.664 -0.2015 -0.0410 -0.0261
  348loPI    C3 5555   7.491  12.806  10.456  0.0479  0.2176  0.1641
  348loPI   PO4 5556   7.112  13.257  10.253 -0.0305 -0.1319  0.0420
  348loPI   GL1 5557   7.289  13.510   9.948  0.1203  0.1292  0.1078
  348loPI   GL2 5558   6.972  13.499   9.832  0.4121  0.0544  0.1942
  348loPI   C1A 5559   7.378  13.462   9.564 -0.0561 -0.0322  0.1001
  348loPI   C2A 5560   7.450  13.587   9.257  0.1342  0.0522  0.2963
  348loPI   C3A 5561   7.392  13.537   8.820 -0.0632  0.0102  0.0097
  348loPI   C4A 5562   7.485  13.739   8.443  0.1661  0.1202 -0.1958
  348loPI   C5A 5563   7.387  13.497   8.060 -0.1933  0.2235  0.1308
  348loPI   C6A 5564   7.095  13.324   7.869  0.0851  0.0684  0.0442
  348loPI   C1B 5565   6.876  13.516   9.410  0.4038  0.0074  0.0707
  348loPI   C2B 5566   6.910  13.555   8.997 -0.0902  0.1110  0.0168
  348loPI   C3B 5567   6.836  13.633   8.600  0.0937 -0.0433 -0.1080
  348loPI   C4B 5568   6.835  13.661   8.160 -0.1978  0.2183  0.4042
  349loPI    C1 5569   4.564   2.071  11.152  0.2157 -0.2195 -0.0306
  349loPI    C2 5570   4.830   2.308  11.334 -0.0689  0.0870 -0.0052
  349loPI    C3 5571   4.592   2.071  11.551 -0.1372  0.1603  0.0005
  349loPI   PO4 5572   4.552   2.186  10.908  0.2267 -0.0788  0.0495
  349loPI   GL1 5573   4.613   2.268  10.510  0.2792  0.0476  0.2011
  349loPI   GL2 5574   4.468   1.925  10.397 -0.0152  0.3698  0.0445
  349loPI   C1A 5575   4.670   2.296  10.035  0.5784 -0.0470 -0.1628
  349loPI   C2A 5576   4.662   2.266   9.567  0.0952  0.0414 -0.1334
  349loPI   C3A 5577   4.628   2.195   9.121  0.2533  0.0589 -0.2770
  349loPI   C4A 5578   4.593   2.194   8.726 -0.0964 -0.1844 -0.2780
  349loPI   C5A 5579   4.414   2.089   8.272 -0.0574 -0.2369  0.1068
  349loPI   C6A 5580   4.087   1.735   8.167 -0.1526 -0.1191 -0.0173
  349loPI   C1B 5581   4.540   1.827   9.973  0.2040  0.2566  0.0279
  349loPI   C2B 5582   4.443   1.730   9.529 -0.0361 -0.3127  0.0044
  349loPI   C3B 5583   4.474   1.709   9.149  0.0925  0.0629  0.4309
  349loPI   C4B 5584   4.378   1.648   8.647 -0.1257 -0.0410  0.0965
  350loPI    C1 5585   6.511   8.405  10.917 -0.0940  0.0555  0.0736
  350loPI    C2 5586   6.742   8.432  11.243  0.1973  0.2821 -0.1463
  350loPI    C3 5587   6.420   8.195  11.245  0.3715  0.0406  0.2003
  350loPI   PO4 5588   6.699   8.452  10.668 -0.1350 -0.0282  0.2927
  350loPI   GL1 5589   6.690   8.486  10.258  0.0252 -0.0048 -0.1536
  350loPI   GL2 5590   6.560   8.688  10.071 -0.1094 -0.2017 -0.1972
  350loPI   C1A 5591   6.856   8.310   9.852  0.1386  0.2548 -0.1123
  350loPI   C2A 5592   6.864   8.127   9.474 -0.0293 -0.1423 -0.1087
  350loPI   C3A 5593   6.838   8.085   9.052 -0.2757  0.1343  0.3566
  350loPI   C4A 5594   6.864   8.082   8.662  0.1362  0.1176 -0.0042
  350loPI   C5A 5595   6.689   8.041   8.288 -0.1692  0.1278 -0.0932
  350loPI   C6A 5596   6.825   7.770   7.980  0.0182 -0.1765 -0.1200
  350loPI   C1B 5597   6.513   8.581   9.637 -0.2151  0.3114  0.1407
  350loPI   C2B 5598   6.570   8.547   9.267 -0.2872 -0.1339 -0.1234
  350loPI   C3B 5599   6.536   8.514   8.861  0.0041  0.0118  0.6299
  350loPI   C4B 5600   6.458   8.415   8.459  0.1784  0.2218 -0.1599
  351loPI    C1 5601  17.105  12.365  11.288  0.0524 -0.0851 -0.1531
  351loPI    C2 5602  17.103  12.613  11.601 -0.1911 -0.2099 -0.0527
  351loPI    C3 5603  17.060  12.219  11.658 -0.3249 -0.2247 -0.2491
  351loPI   PO4 5604  16.998  12.468  11.123  0.0372 -0.1152 -0.1908
  351loPI   GL1 5605  16.841  12.388  10.716  0.1084  0.0413 -0.1118
  351loPI   GL2 5606  16.680  12.184  10.488 -0.1375 -0.2415  0.0146
  351loPI   C1A 5607  16.866  12.659  10.314 -0.1353 -0.1734 -0.0678
  351loPI   C2A 5608  16.800  12.680   9.877  0.4287 -0.0783  0.1575
  351loPI   C3A 5609  16.795  12.639   9.402 -0.0318  0.2290  0.1857
  351loPI   C4A 5610  16.787  12.660   8.988  0.0019 -0.0412  0.0335
  351loPI   C5A 5611  16.799  12.803   8.667  0.0087 -0.3741 -0.2392
  351loPI   C6A 5612  16.643  12.765   8.321  0.0021 -0.0795 -0.0959
  351loPI   C1B 5613  16.589  12.182  10.062  0.0863 -0.0013 -0.1474
  351loPI   C2B 5614  16.644  12.221   9.587  0.1781 -0.4324  0.0926
  351loPI   C3B 5615  16.604  12.191   9.055  0.1414  0.0040 -0.1645
  351loPI   C4B 5616  16.634  12.283   8.527  0.0950  0.1967 -0.1653
  352loPI    C1 5617   3.100   0.853  10.595 -0.1826 -0.0090  0.2039
  352loPI    C2 5618   3.238   1.080  10.894  0.0892 -0.0313  0.0982
  352loPI    C3 5619   3.028   0.749  10.974 -0.0350  0.0846  0.2583
  352loPI   PO4 5620   2.974   0.983  10.372 -0.2630 -0.0155 -0.2385
  352loPI   GL1 5621   3.072   1.256  10.110 -0.0101 -0.0158  0.1224
  352loPI   GL2 5622   3.179   1.092   9.912 -0.0815  0.1662  0.2352
  352loPI   C1A 5623   2.911   1.451   9.746  0.0327  0.0303 -0.0764
  352loPI   C2A 5624   2.918   1.366   9.281  0.0419 -0.0775 -0.0446
  352loPI   C3A 5625   2.845   1.390   8.895  0.0311 -0.3471  0.2913
  352loPI   C4A 5626   2.750   1.282   8.570  0.1747 -0.0587  0.0086
  352loPI   C5A 5627   2.639   1.348   8.183 -0.2026  0.3676 -0.3713
  352loPI   C6A 5628   2.561   0.986   7.864 -0.1155  0.3604  0.0782
  352loPI   C1B 5629   3.232   1.037   9.468  0.2045  0.3082  0.1046
  352loPI   C2B 5630   3.223   1.020   9.075  0.1253 -0.2071  0.1332
  352loPI   C3B 5631   3.146   1.015   8.718  0.0623 -0.1350  0.2443
  352loPI   C4B 5632   3.037   0.969   8.288  0.2106  0.1828  0.2673
  353loPI    C1 5633   9.123   5.696  11.023  0.2895 -0.0328 -0.1777
  353loPI    C2 5634   8.912   5.994  11.187  0.4239  0.1569 -0.3440
  353loPI    C3 5635   9.081   5.717  11.421 -0.1464 -0.0985 -0.2148
  353loPI   PO4 5636   9.175   5.677  10.767  0.0243 -0.3240  0.0835
  353loPI   GL1 5637   9.025   5.644  10.365 -0.0335 -0.1732 -0.2587
  353loPI   GL2 5638   9.120   5.334  10.392 -0.4718  0.2583 -0.3312
  353loPI   C1A 5639   8.911   5.718  10.003  0.0396 -0.2461  0.0933
  353loPI   C2A 5640   8.887   5.756   9.610  0.1589 -0.1347  0.1955
  353loPI   C3A 5641   8.708   5.666   9.133  0.2834 -0.0317 -0.1545
  353loPI   C4A 5642   8.752   5.779   8.775 -0.0428  0.1509  0.2612
  353loPI   C5A 5643   8.744   5.636   8.358 -0.0545  0.0578  0.0499
  353loPI   C6A 5644   8.849   5.595   7.891 -0.0138  0.0955 -0.0231
  353loPI   C1B 5645   9.131   5.314   9.950  0.1677  0.1445 -0.2578
  353loPI   C2B 5646   9.117   5.331   9.459 -0.0374  0.0971  0.0681
  353loPI   C3B 5647   9.092   5.346   8.954 -0.1078 -0.2985 -0.1345
  353loPI   C4B 5648   9.121   5.421   8.521 -0.3013  0.3216  0.1888
  354loPI    C1 5649  13.179   0.513  10.955  0.0825  0.1744  0.0894
  354loPI    C2 5650  13.235   0.349  11.315  0.0885 -0.1272 -0.0462
  354loPI    C3 5651  13.539   0.530  11.128  0.0743  0.0692  0.1175
  354loPI   PO4 5652  13.069   0.322  10.851  0.1275 -0.0514  0.2118
  354loPI   GL1 5653  13.082   0.290  10.408 -0.0729  0.3637  0.0828
  354loPI   GL2 5654  12.950   0.136  10.183 -0.0908  0.0694 -0.2885
  354loPI   C1A 5655  13.284   0.528  10.084 -0.0683 -0.1364 -0.0943
  354loPI   C2A 5656  13.322   0.519   9.610 -0.1723 -0.0791 -0.3121
  354loPI   C3A 5657  13.302   0.560   9.182  0.1443  0.0342  0.0027
  354loPI   C4A 5658  13.224   0.623   8.745 -0.1625  0.0003  0.0407
  354loPI   C5A 5659  13.242   0.718   8.352  0.1194  0.0686  0.1666
  354loPI   C6A 5660  13.023   0.720   7.919 -0.1953  0.0922  0.2516
  354loPI   C1B 5661  13.123   0.105   9.704  0.1580 -0.2193 -0.1673
  354loPI   C2B 5662  13.115   0.088   9.272 -0.2652  0.2882  0.0945
  354loPI   C3B 5663  13.042   0.131   8.843 -0.1054  0.0294  0.0056
  354loPI   C4B 5664  12.885  -0.174   8.459 -0.0500  0.0125  0.1162
  355loPI    C1 5665   8.295   6.142  10.989 -0.0171  0.0512 -0.0493
  355loPI    C2 5666   8.624   6.365  11.031  0.0138 -0.0498  0.2703
  355loPI    C3 5667   8.454   6.196  11.352 -0.1513 -0.2833  0.0638
  355loPI   PO4 5668   8.348   6.007  10.759  0.0570 -0.1078 -0.0973
  355loPI   GL1 5669   8.207   5.906  10.365  0.2355 -0.0013  0.2491
  355loPI   GL2 5670   8.544   5.979  10.247 -0.0207  0.0707 -0.0254
  355loPI   C1A 5671   8.045   5.948   9.995 -0.4338  0.3627 -0.0207
  355loPI   C2A 5672   8.046   5.993   9.550  0.2950  0.1747  0.1474
  355loPI   C3A 5673   7.911   6.007   9.134 -0.0898  0.2413 -0.2163
  355loPI   C4A 5674   7.979   5.995   8.700  0.4210 -0.0575  0.3285
  355loPI   C5A 5675   8.003   6.181   8.256  0.4422 -0.1919  0.4107
  355loPI   C6A 5676   8.268   6.424   8.102 -0.1464 -0.0498 -0.1119
  355loPI   C1B 5677   8.635   6.117   9.833 -0.0519 -0.2141  0.0185
  355loPI   C2B 5678   8.491   6.032   9.394  0.2272 -0.0205 -0.2920
  355loPI   C3B 5679   8.388   6.158   8.991 -0.2512  0.0859  0.1286
  355loPI   C4B 5680   8.424   6.162   8.589 -0.1117 -0.1852  0.2139
  356loPI    C1 5681  17.684  11.004  11.259 -0.0381 -0.1510  0.0197
  356loPI    C2 5682  17.479  10.935  11.595  0.0577 -0.1483  0.0791
  356loPI    C3 5683  17.678  11.279  11.550 -0.0813 -0.0831 -0.0449
  356loPI   PO4 5684  17.494  10.860  11.086 -0.0910 -0.2633  0.3180
  356loPI   GL1 5685  17.315  10.971  10.686 -0.3113  0.1262 -0.2519
  356loPI   GL2 5686  17.070  10.962  10.519  0.4902  0.0156  0.0870
  356loPI   C1A 5687  17.616  10.855  10.254  0.1955 -0.3726  0.1958
  356loPI   C2A 5688  17.630  10.949   9.884  0.0823 -0.0696  0.1187
  356loPI   C3A 5689  17.604  11.036   9.351  0.2066 -0.0147 -0.1979
  356loPI   C4A 5690  17.634  10.989   8.944  0.0344  0.1281  0.2434
  356loPI   C5A 5691  17.657  11.024   8.479  0.3025  0.1179 -0.1050
  356loPI   C6A 5692  17.538  11.278   8.081  0.3580 -0.1439  0.0902
  356loPI   C1B 5693  17.116  10.816  10.069  0.0019  0.0792  0.0567
  356loPI   C2B 5694  17.125  10.861   9.552  0.2850  0.1805  0.1304
  356loPI   C3B 5695  17.101  10.994   9.107 -0.0071  0.1039 -0.3178
  356loPI   C4B 5696  17.148  10.929   8.727  0.0314  0.1008  0.2394
  357loPI    C1 5697  14.663  12.512  11.392  0.2197 -0.0757  0.1180
  357loPI    C2 5698  14.424  12.794  11.545  0.1911 -0.0640  0.0518
  357loPI    C3 5699  14.771  12.708  11.724 -0.0569 -0.3808  0.3950
  357loPI   PO4 5700  14.691  12.555  10.981  0.2468 -0.1377  0.2013
  357loPI   GL1 5701  14.665  12.586  10.566  0.1353 -0.3791 -0.0087
  357loPI   GL2 5702  14.641  12.292  10.318  0.2513 -0.1425  0.0056
  357loPI   C1A 5703  14.882  12.815  10.179 -0.0972 -0.2595  0.0968
  357loPI   C2A 5704  14.973  12.894   9.831 -0.1074  0.0172 -0.0937
  357loPI   C3A 5705  15.019  12.941   9.502 -0.0993  0.2399 -0.0228
  357loPI   C4A 5706  14.857  12.877   9.100 -0.1765  0.3011  0.2438
  357loPI   C5A 5707  15.030  12.768   8.675 -0.0860  0.0398 -0.1169
  357loPI   C6A 5708  15.187  12.381   8.514 -0.1821 -0.0459 -0.1185
  357loPI   C1B 5709  14.737  12.350   9.914  0.2977 -0.0540 -0.1235
  357loPI   C2B 5710  14.779  12.323   9.403 -0.2693 -0.2521  0.0207
  357loPI   C3B 5711  14.786  12.331   8.884  0.0178 -0.2884 -0.2829
  357loPI   C4B 5712  14.667  12.301   8.365  0.0846  0.0484 -0.0173
  358loPI    C1 5713  17.746   2.554  10.942 -0.0148 -0.1521 -0.2135
  358loPI    C2 5714  17.356   2.543  10.855 -0.0466  0.4060 -0.1810
  358loPI    C3 5715  17.475   2.624  11.228  0.1045  0.1447 -0.1697
  358loPI   PO4 5716  17.899   2.336  10.746  0.0773 -0.0508 -0.1182
  358loPI   GL1 5717  17.946   2.320  10.330  0.1201  0.1037 -0.0194
  358loPI   GL2 5718  18.290   2.296  10.108  0.0221  0.3123  0.2100
  358loPI   C1A 5719  17.790   2.236   9.881  0.1402  0.0866 -0.0864
  358loPI   C2A 5720  17.718   2.256   9.485  0.1318 -0.1165  0.0737
  358loPI   C3A 5721  17.709   2.199   9.002 -0.1357 -0.0737 -0.1026
  358loPI   C4A 5722  17.734   2.337   8.678  0.0111  0.0254  0.0186
  358loPI   C5A 5723  17.717   2.308   8.162  0.2636  0.0510  0.0017
  358loPI   C6A 5724  17.584   2.643   7.925  0.1534 -0.1293 -0.0201
  358loPI   C1B 5725  18.252   2.274   9.692  0.0082  0.2784  0.3111
  358loPI   C2B 5726  18.162   2.294   9.180  0.0748 -0.2604  0.1077
  358loPI   C3B 5727  18.217   2.400   8.765 -0.3379  0.3013 -0.0308
  358loPI   C4B 5728  18.320   2.424   8.306  0.0466 -0.0039  0.0425
  359loPI    C1 5729   2.571   0.110  10.595  0.0618 -0.1639 -0.1577
  359loPI    C2 5730   2.651   0.319  10.927 -0.3048 -0.2569 -0.0062
  359loPI    C3 5731   2.763  -0.064  10.900  0.1747 -0.1098 -0.1974
  359loPI   PO4 5732   2.303   0.196  10.489  0.0684 -0.0680  0.0586
  359loPI   GL1 5733   2.102   0.336  10.208  0.3113  0.1391  0.1541
  359loPI   GL2 5734   1.848   0.089  10.103  0.2086 -0.0376  0.0147
  359loPI   C1A 5735   2.054   0.476   9.818  0.3424  0.0949 -0.2131
  359loPI   C2A 5736   1.886   0.305   9.487 -0.3028 -0.1128 -0.1230
  359loPI   C3A 5737   1.851   0.344   8.989  0.0047  0.0577 -0.1242
  359loPI   C4A 5738   1.838   0.370   8.536  0.0781 -0.0577  0.0660
  359loPI   C5A 5739   1.514   0.303   8.247  0.1559  0.1700 -0.1079
  359loPI   C6A 5740   1.202   0.469   8.092  0.3337  0.2854 -0.0755
  359loPI   C1B 5741   1.801  -0.056   9.805  0.2392 -0.0516  0.2584
  359loPI   C2B 5742   1.738  -0.110   9.275 -0.0179 -0.2332 -0.0496
  359loPI   C3B 5743   1.627  -0.080   8.925 -0.0185 -0.3491  0.0045
  359loPI   C4B 5744   1.678  -0.086   8.589  0.1956 -0.1146 -0.2203
  360loPI    C1 5745  17.952   1.745  10.728  0.1033 -0.0057 -0.0125
  360loPI    C2 5746  18.188   1.962  10.968 -0.0782  0.0417  0.1258
  360loPI    C3 5747  17.902   1.731  11.125 -0.0703 -0.0799 -0.0363
  360loPI   PO4 5748  17.881   1.853  10.556  0.3743 -0.1222  0.0726
  360loPI   GL1 5749  17.845   1.657  10.167 -0.1465 -0.0095  0.0020
  360loPI   GL2 5750  18.067   1.838  10.012  0.0253 -0.2354  0.1012
  360loPI   C1A 5751  17.870   1.429   9.766 -0.1876  0.3259  0.1280
  360loPI   C2A 5752  17.883   1.345   9.317 -0.3357  0.1769 -0.1001
  360loPI   C3A 5753  17.858   1.287   8.930  0.0367 -0.0701  0.0950
  360loPI   C4A 5754  17.830   1.358   8.513 -0.3050 -0.0664 -0.1894
  360loPI   C5A 5755  17.761   1.520   8.128  0.2041 -0.1793 -0.2375
  360loPI   C6A 5756  17.499   1.724   7.968  0.0273 -0.3529 -0.1428
  360loPI   C1B 5757  18.122   1.774   9.537 -0.1834  0.1411 -0.1715
  360loPI   C2B 5758  17.985   1.787   9.117  0.0421 -0.1025  0.0163
  360loPI   C3B 5759  18.005   1.873   8.674  0.1065  0.1493  0.1201
  360loPI   C4B 5760  18.099   2.020   8.260  0.3453  0.0553 -0.1526
  361loPI    C1 5761  16.203  13.950  11.249 -0.1231 -0.0205  0.0427
  361loPI    C2 5762  16.420  13.741  11.511 -0.1359  0.2699  0.2904
  361loPI    C3 5763  16.056  13.613  11.406  0.0023 -0.0235  0.1553
  361loPI   PO4 5764  16.317  13.944  11.060  0.1658  0.2886  0.0104
  361loPI   GL1 5765  16.175  13.844  10.657  0.1455  0.1717 -0.1397
  361loPI   GL2 5766  15.875  13.934  10.507  0.2537  0.3485  0.1705
  361loPI   C1A 5767  16.360  14.002  10.228  0.2979 -0.1596  0.1369
  361loPI   C2A 5768  16.317  14.008   9.813 -0.1331 -0.2252 -0.0185
  361loPI   C3A 5769  16.302  14.032   9.397 -0.3683 -0.0327  0.0052
  361loPI   C4A 5770  16.282  13.976   9.034  0.1209  0.1520  0.0853
  361loPI   C5A 5771  16.212  14.041   8.651 -0.0660  0.2339  0.0146
  361loPI   C6A 5772  16.288  13.817   8.246 -0.1386  0.2585 -0.3737
  361loPI   C1B 5773  15.745  13.932  10.087 -0.0112  0.1431 -0.2429
  361loPI   C2B 5774  15.828  13.897   9.606  0.1313 -0.0100 -0.1098
  361loPI   C3B 5775  15.788  13.918   9.158 -0.0635 -0.0134  0.1979
  361loPI   C4B 5776  15.701  13.924   8.660 -0.4727  0.0555  0.0106
  362loPI    C1 5777  15.414  12.770  11.109  0.0079  0.0279  0.0341
  362loPI    C2 5778  15.190  12.793  10.779  0.2242 -0.0090 -0.1170
  362loPI    C3 5779  15.190  12.458  10.998 -0.0048  0.0550 -0.0164
  362loPI   PO4 5780  15.399  13.094  11.145 -0.0541  0.0485 -0.1814
  362loPI   GL1 5781  15.250  13.285  10.821  0.1196 -0.1056 -0.0140
  362loPI   GL2 5782  15.507  13.468  10.659  0.0830 -0.1359  0.3597
  362loPI   C1A 5783  15.104  13.206  10.433 -0.1439 -0.0589 -0.1281
  362loPI   C2A 5784  15.148  13.329  10.041 -0.0312 -0.0405  0.0806
  362loPI   C3A 5785  15.133  13.394   9.716  0.0566 -0.1033  0.2685
  362loPI   C4A 5786  15.048  13.368   9.232 -0.2446  0.1680 -0.0933
  362loPI   C5A 5787  15.006  13.315   8.773 -0.0360  0.0789  0.0793
  362loPI   C6A 5788  15.086  13.286   8.409 -0.3624 -0.1353  0.2562
  362loPI   C1B 5789  15.679  13.446  10.249 -0.1400  0.1910  0.2007
  362loPI   C2B 5790  15.633  13.490   9.806 -0.0254  0.1723 -0.0678
  362loPI   C3B 5791  15.639  13.376   9.308  0.1277 -0.1571  0.0461
  362loPI   C4B 5792  15.567  13.506   8.828  0.2052 -0.0511  0.2098
  363loPI    C1 5793   1.249  15.908  10.650 -0.1439  0.0667 -0.2194
  363loPI    C2 5794   1.543  15.832  10.910 -0.2969 -0.1440 -0.1049
  363loPI    C3 5795   1.246  16.081  11.011 -0.0199  0.2869 -0.3216
  363loPI   PO4 5796   1.239  15.726  10.496  0.0604 -0.1868 -0.0408
  363loPI   GL1 5797   1.082  15.778  10.094 -0.2534 -0.0834  0.3260
  363loPI   GL2 5798   0.989  15.993   9.933  0.0951  0.0223  0.1834
  363loPI   C1A 5799   1.165  15.461   9.743  0.1358  0.0140  0.1020
  363loPI   C2A 5800   1.177  15.280   9.429 -0.3739 -0.3460  0.0865
  363loPI   C3A 5801   1.212  15.343   8.926  0.1978 -0.2462  0.0334
  363loPI   C4A 5802   1.213  15.526   8.510  0.0436 -0.0736  0.3494
  363loPI   C5A 5803   1.349  15.815   8.207 -0.1442  0.0661 -0.1487
  363loPI   C6A 5804   1.626  16.133   8.064 -0.0985 -0.2683 -0.0581
  363loPI   C1B 5805   0.884  15.824   9.530  0.0995 -0.2984  0.1093
  363loPI   C2B 5806   0.989  15.763   9.165 -0.1324  0.1196  0.1259
  363loPI   C3B 5807   0.924  15.963   8.810 -0.1930  0.6256 -0.0074
  363loPI   C4B 5808   0.728  15.819   8.487 -0.0219 -0.0987 -0.0566
  364loPI    C1 5809   9.705   4.616  11.001 -0.1033 -0.1713 -0.2172
  364loPI    C2 5810  10.024   4.488  10.796 -0.0005  0.0002 -0.1666
  364loPI    C3 5811  10.020   4.464  11.196  0.0597  0.2385 -0.1503
  364loPI   PO4 5812   9.552   4.473  10.759  0.1641 -0.3493  0.2412
  364loPI   GL1 5813   9.726   4.456  10.329 -0.2065  0.1202 -0.3465
  364loPI   GL2 5814   9.763   4.128  10.346 -0.1065  0.1210 -0.1928
  364loPI   C1A 5815   9.719   4.543   9.936 -0.2460 -0.1852  0.0341
  364loPI   C2A 5816   9.797   4.583   9.444 -0.2863 -0.2001 -0.1690
  364loPI   C3A 5817   9.726   4.626   8.997  0.2051 -0.0156 -0.0611
  364loPI   C4A 5818   9.726   4.754   8.530 -0.2446  0.2566 -0.0090
  364loPI   C5A 5819   9.400   4.786   8.196  0.1203  0.1166 -0.0763
  364loPI   C6A 5820   9.250   4.669   7.818  0.0048  0.0102  0.2551
  364loPI   C1B 5821   9.561   4.048   9.946  0.3062  0.2127 -0.2307
  364loPI   C2B 5822   9.628   4.007   9.509 -0.1860  0.1169  0.3883
  364loPI   C3B 5823   9.699   4.129   9.146  0.3462 -0.4803  0.1227
  364loPI   C4B 5824   9.738   4.197   8.743  0.1266  0.0039 -0.3391
  365loPI    C1 5825  14.386   5.275  11.036 -0.1783 -0.0197  0.2110
  365loPI    C2 5826  14.593   5.586  10.893  0.0993 -0.2441  0.1145
  365loPI    C3 5827  14.346   5.636  11.204 -0.1006  0.1367 -0.0984
  365loPI   PO4 5828  14.335   5.100  10.805  0.1089 -0.2528  0.0910
  365loPI   GL1 5829  14.107   5.100  10.435 -0.4200  0.0587 -0.2442
  365loPI   GL2 5830  13.819   5.209  10.537 -0.0827  0.0355  0.2971
  365loPI   C1A 5831  14.110   5.297  10.040 -0.1203  0.2559  0.1533
  365loPI   C2A 5832  14.058   5.286   9.584 -0.2344  0.1601 -0.3163
  365loPI   C3A 5833  14.086   5.290   9.131  0.0969 -0.1249  0.1589
  365loPI   C4A 5834  14.067   5.319   8.683  0.2249 -0.0846 -0.0015
  365loPI   C5A 5835  14.065   5.273   8.310  0.0053 -0.2638 -0.0532
  365loPI   C6A 5836  13.779   5.214   8.064  0.1244  0.1221 -0.0337
  365loPI   C1B 5837  13.674   5.138  10.173 -0.3678  0.0895  0.0210
  365loPI   C2B 5838  13.579   5.114   9.733  0.1050  0.1121 -0.1263
  365loPI   C3B 5839  13.632   5.117   9.367  0.2624  0.0721  0.1466
  365loPI   C4B 5840  13.572   5.252   8.975  0.0633  0.0723  0.2053
  366loPI    C1 5841   3.205   6.475  10.707 -0.2042 -0.0405 -0.0870
  366loPI    C2 5842   3.116   6.098  10.805  0.1937 -0.1086  0.0319
  366loPI    C3 5843   3.141   6.378  11.089  0.1523 -0.0463 -0.0255
  366loPI   PO4 5844   3.060   6.555  10.507 -0.1437 -0.0332 -0.0237
  366loPI   GL1 5845   3.000   6.829  10.171 -0.0418 -0.0348  0.1308
  366loPI   GL2 5846   3.300   6.740  10.087 -0.0281  0.3683 -0.0449
  366loPI   C1A 5847   2.923   7.074   9.879 -0.0861 -0.2718 -0.0981
  366loPI   C2A 5848   2.854   7.038   9.457 -0.0903  0.1174  0.1001
  366loPI   C3A 5849   2.974   7.061   8.991 -0.1938  0.0257 -0.0450
  366loPI   C4A 5850   2.966   7.169   8.621 -0.2296  0.3105  0.1449
  366loPI   C5A 5851   3.179   7.399   8.297 -0.0233  0.1104 -0.1699
  366loPI   C6A 5852   3.223   7.849   8.206 -0.0294 -0.3308  0.1694
  366loPI   C1B 5853   3.426   6.885   9.787  0.2528 -0.0773  0.0571
  366loPI   C2B 5854   3.308   6.918   9.342  0.2730  0.1797  0.0348
  366loPI   C3B 5855   3.491   7.011   9.014  0.1035 -0.2709 -0.4621
  366loPI   C4B 5856   3.430   7.103   8.608  0.1902  0.1679 -0.3301
  367loPI    C1 5857   3.115   5.517  10.654  0.0782 -0.0988  0.2851
  367loPI    C2 5858   3.341   5.790  10.470 -0.1577 -0.0085  0.1242
  367loPI    C3 5859   3.427   5.679  10.844  0.0213  0.1849  0.1425
  367loPI   PO4 5860   3.127   5.258  10.493 -0.1625  0.0058  0.1255
  367loPI   GL1 5861   2.895   5.091  10.235  0.0775  0.2358  0.3064
  367loPI   GL2 5862   2.583   4.975  10.282 -0.2910 -0.1658  0.2891
  367loPI   C1A 5863   2.897   5.151   9.843 -0.2182 -0.0302 -0.0854
  367loPI   C2A 5864   2.835   5.131   9.383  0.0304 -0.1385 -0.1178
  367loPI   C3A 5865   2.750   5.129   9.014 -0.3433 -0.1661 -0.0244
  367loPI   C4A 5866   2.795   5.196   8.624  0.0901  0.0127 -0.0301
  367loPI   C5A 5867   2.830   5.232   8.216  0.0548  0.1668  0.0925
  367loPI   C6A 5868   2.473   5.159   7.959  0.5093  0.0772 -0.0195
  367loPI   C1B 5869   2.624   4.762   9.847  0.1912 -0.1126 -0.0356
  367loPI   C2B 5870   2.615   4.595   9.459  0.1248 -0.0595  0.2231
  367loPI   C3B 5871   2.603   4.641   9.104  0.2958  0.0051  0.0166
  367loPI   C4B 5872   2.610   4.668   8.648  0.1486  0.0904  0.0911
  368loPI    C1 5873   3.559  10.521  10.862 -0.2194 -0.3279  0.3769
  368loPI    C2 5874   3.683  10.769  11.150 -0.1942 -0.1119  0.1828
  368loPI    C3 5875   3.836  10.400  11.124  0.0165 -0.0323  0.2686
  368loPI   PO4 5876   3.561  10.663  10.674 -0.0697  0.0622  0.2459
  368loPI   GL1 5877   3.480  10.630  10.266 -0.0212 -0.0332  0.0482
  368loPI   GL2 5878   3.190  10.393  10.203 -0.0522  0.3282  0.3353
  368loPI   C1A 5879   3.436  10.826   9.787  0.0041 -0.3271 -0.1961
  368loPI   C2A 5880   3.421  10.741   9.347  0.1407  0.0372 -0.0023
  368loPI   C3A 5881   3.408  10.698   8.850  0.0675 -0.2278  0.0991
  368loPI   C4A 5882   3.323  10.734   8.448 -0.0293 -0.2180  0.1219
  368loPI   C5A 5883   3.238  11.098   8.253  0.1751  0.1594 -0.0015
  368loPI   C6A 5884   3.137  11.554   8.303 -0.0074  0.1534  0.1930
  368loPI   C1B 5885   3.288  10.268   9.825 -0.0889  0.1991 -0.0006
  368loPI   C2B 5886   3.250  10.243   9.404  0.1343  0.0850 -0.0917
  368loPI   C3B 5887   3.248  10.260   8.993 -0.2818 -0.1328  0.1954
  368loPI   C4B 5888   3.198  10.286   8.536  0.2602  0.4256 -0.0412
  369loPI    C1 5889   2.604  11.544  11.011  0.0185 -0.0933 -0.0672
  369loPI    C2 5890   2.868  11.369  11.255 -0.1189 -0.1757  0.0245
  369loPI    C3 5891   2.832  11.245  10.876  0.0041 -0.1341 -0.0016
  369loPI   PO4 5892   2.686  11.852  10.996  0.1278 -0.1825 -0.0542
  369loPI   GL1 5893   2.593  12.047  10.605 -0.2653 -0.3011  0.1784
  369loPI   GL2 5894   2.432  11.944  10.290  0.1162 -0.0392  0.2479
  369loPI   C1A 5895   2.951  12.003  10.271  0.1690  0.0361 -0.0431
  369loPI   C2A 5896   2.932  12.148   9.870 -0.0810  0.0478  0.0819
  369loPI   C3A 5897   2.978  12.037   9.467  0.0715  0.2113  0.0448
  369loPI   C4A 5898   2.946  12.024   9.092 -0.0053 -0.0670 -0.1075
  369loPI   C5A 5899   2.958  12.052   8.611 -0.3318 -0.0586 -0.5022
  369loPI   C6A 5900   2.744  12.391   8.347 -0.2735 -0.3733  0.3089
  369loPI   C1B 5901   2.463  12.020   9.872 -0.4795  0.0713  0.1120
  369loPI   C2B 5902   2.468  11.997   9.357  0.2873 -0.0036  0.2004
  369loPI   C3B 5903   2.459  11.953   8.947 -0.3412  0.1390 -0.2373
  369loPI   C4B 5904   2.471  11.800   8.519 -0.2548 -0.0147  0.1301
  370loPI    C1 5905  10.766   2.948  11.509  0.2184  0.5110 -0.1127
  370loPI    C2 5906  10.987   2.662  11.680 -0.0777  0.0728 -0.4403
  370loPI    C3 5907  10.804   2.936  11.907  0.1349 -0.0497 -0.1133
  370loPI   PO4 5908  10.655   2.810  11.352  0.3094 -0.3388 -0.1114
  370loPI   GL1 5909  10.565   2.993  10.832 -0.1316  0.2195  0.2326
  370loPI   GL2 5910  10.338   3.241  10.743  0.2781  0.0569 -0.1446
  370loPI   C1A 5911  10.695   2.694  10.419  0.0697 -0.0327  0.0073
  370loPI   C2A 5912  10.658   2.806   9.949  0.1414  0.0688 -0.0372
  370loPI   C3A 5913  10.694   2.882   9.524  0.1915  0.0762  0.0189
  370loPI   C4A 5914  10.638   2.849   9.040 -0.0002 -0.3559 -0.0448
  370loPI   C5A 5915  10.959   2.886   8.688  0.0372 -0.0043 -0.1055
  370loPI   C6A 5916  11.193   2.801   8.363  0.0395 -0.0028  0.0396
  370loPI   C1B 5917  10.054   3.450  10.294 -0.1273 -0.0297 -0.0798
  370loPI   C2B 5918   9.923   3.647   9.869  0.0961  0.1273 -0.1163
  370loPI   C3B 5919   9.955   3.649   9.395  0.2122 -0.1101 -0.2073
  370loPI   C4B 5920   9.975   3.791   9.039  0.0396  0.0383 -0.0479
  371loPI    C1 5921   1.575   4.340  10.579  0.0855 -0.0667  0.0894
  371loPI    C2 5922   1.559   4.093  10.265 -0.1939  0.0281  0.0265
  371loPI    C3 5923   1.593   3.944  10.635 -0.1763 -0.0969 -0.0247
  371loPI   PO4 5924   1.676   4.541  10.464  0.1538  0.0374 -0.0080
  371loPI   GL1 5925   1.515   4.690  10.175  0.1081 -0.0806 -0.0785
  371loPI   GL2 5926   1.604   5.005   9.923 -0.0192 -0.0594  0.0085
  371loPI   C1A 5927   1.495   4.411   9.789  0.2767  0.2370  0.0405
  371loPI   C2A 5928   1.638   4.349   9.351 -0.1894 -0.4244 -0.3341
  371loPI   C3A 5929   1.718   4.445   8.959  0.0748 -0.1478 -0.1097
  371loPI   C4A 5930   1.555   4.456   8.507 -0.0448 -0.0266 -0.2309
  371loPI   C5A 5931   1.588   4.499   8.141  0.2891 -0.0036  0.1939
  371loPI   C6A 5932   1.529   5.029   8.021  0.1932 -0.0670 -0.2992
  371loPI   C1B 5933   1.730   4.855   9.561  0.0074 -0.1846  0.0092
  371loPI   C2B 5934   1.844   4.923   9.238  0.1208  0.0591  0.2205
  371loPI   C3B 5935   1.682   4.926   8.854  0.2454  0.1689 -0.0878
  371loPI   C4B 5936   1.743   4.968   8.455  0.2735  0.2064 -0.0454
  372loPI    C1 5937   2.825   1.919  10.584  0.1988 -0.1127  0.1038
  372loPI    C2 5938   2.626   2.110  10.873  0.0056 -0.0209 -0.0871
  372loPI    C3 5939   3.005   1.997  10.932  0.0106  0.1144  0.1527
  372loPI   PO4 5940   2.746   1.825  10.485  0.1670  0.1704 -0.1720
  372loPI   GL1 5941   2.513   1.924  10.070  0.1468  0.0815  0.0454
  372loPI   GL2 5942   2.320   2.159  10.029 -0.1475 -0.0025  0.1480
  372loPI   C1A 5943   2.605   1.836   9.658  0.0925  0.2648  0.1086
  372loPI   C2A 5944   2.517   1.881   9.223  0.2363 -0.3411 -0.0867
  372loPI   C3A 5945   2.358   1.799   8.828 -0.2210  0.0470  0.1358
  372loPI   C4A 5946   2.512   1.763   8.490  0.2102  0.0232  0.0936
  372loPI   C5A 5947   2.680   1.819   8.093  0.0629 -0.0423 -0.3236
  372loPI   C6A 5948   2.963   1.751   7.763 -0.2244  0.0675  0.0538
  372loPI   C1B 5949   2.190   2.202   9.547 -0.2107 -0.1178  0.0415
  372loPI   C2B 5950   2.113   2.185   9.100  0.0208  0.1110  0.0891
  372loPI   C3B 5951   2.203   2.217   8.622  0.0578  0.1212 -0.2092
  372loPI   C4B 5952   2.254   2.170   8.236 -0.1032  0.0999 -0.3182
  373loPI    C1 5953  10.097  15.392  11.009 -0.1918  0.1301  0.1326
  373loPI    C2 5954  10.028  15.068  11.233  0.1298 -0.0638 -0.0425
  373loPI    C3 5955  10.393  15.230  11.223  0.1317 -0.0824 -0.4546
  373loPI   PO4 5956   9.977  15.372  10.678 -0.0142 -0.0576  0.0033
  373loPI   GL1 5957   9.970  15.350  10.309 -0.2003  0.1391  0.0533
  373loPI   GL2 5958  10.157  15.390  10.119 -0.0763  0.0233  0.3066
  373loPI   C1A 5959   9.639  15.349   9.981 -0.1201  0.1647  0.0772
  373loPI   C2A 5960   9.636  15.482   9.603 -0.3352 -0.1312  0.2232
  373loPI   C3A 5961   9.652  15.545   9.136 -0.0006  0.1665 -0.4753
  373loPI   C4A 5962   9.810  15.730   8.717  0.1463 -0.1136 -0.1410
  373loPI   C5A 5963   9.765  15.851   8.303 -0.1281  0.2038  0.1486
  373loPI   C6A 5964   9.530  15.924   7.908 -0.1555  0.2604  0.4649
  373loPI   C1B 5965  10.024  15.247   9.693 -0.0937 -0.1884 -0.3565
  373loPI   C2B 5966  10.002  15.210   9.294  0.1006  0.1603 -0.0897
  373loPI   C3B 5967  10.067  15.309   8.913 -0.1511 -0.2127  0.1333
  373loPI   C4B 5968  10.091  15.257   8.471 -0.0848  0.4438  0.0978
  374loPI    C1 5969   5.034  11.248  11.069 -0.2281 -0.4491  0.0021
  374loPI    C2 5970   5.412  11.195  11.189 -0.1169 -0.0187 -0.1399
  374loPI    C3 5971   5.113  11.174  11.454  0.0209 -0.1862  0.0049
  374loPI   PO4 5972   5.092  11.483  10.898 -0.2226  0.0217  0.2280
  374loPI   GL1 5973   5.045  11.501  10.424 -0.1051  0.2767 -0.1126
  374loPI   GL2 5974   4.991  11.096  10.379  0.0785  0.2999 -0.0263
  374loPI   C1A 5975   4.955  11.467   9.962 -0.0609 -0.0171  0.3781
  374loPI   C2A 5976   5.009  11.448   9.589 -0.0692  0.2021 -0.2357
  374loPI   C3A 5977   4.962  11.488   9.216  0.2322  0.0308 -0.3446
  374loPI   C4A 5978   5.014  11.516   8.803 -0.1741 -0.0764 -0.1003
  374loPI   C5A 5979   4.829  11.556   8.462  0.3645 -0.1582 -0.1248
  374loPI   C6A 5980   4.707  11.976   8.380 -0.2145 -0.4561 -0.0818
  374loPI   C1B 5981   4.871  10.908   9.976  0.0180  0.1723  0.0916
  374loPI   C2B 5982   4.910  10.931   9.491 -0.0937  0.0673  0.1843
  374loPI   C3B 5983   4.828  11.032   9.104 -0.0241  0.2866 -0.2739
  374loPI   C4B 5984   4.960  11.053   8.663  0.3577 -0.1249  0.0971
  375loPI    C1 5985  11.260   1.194  10.910 -0.1780  0.0813  0.2092
  375loPI    C2 5986  11.534   1.343  11.161  0.0410 -0.0041  0.0243
  375loPI    C3 5987  11.372   0.984  11.231  0.1814 -0.0754 -0.0112
  375loPI   PO4 5988  11.341   1.280  10.710  0.2650 -0.1424 -0.0527
  375loPI   GL1 5989  11.028   1.347  10.411  0.4713 -0.0739  0.1710
  375loPI   GL2 5990  10.741   1.294  10.388  0.0871 -0.2385 -0.2537
  375loPI   C1A 5991  11.059   1.078  10.022  0.2036 -0.0372 -0.0878
  375loPI   C2A 5992  10.996   1.179   9.693 -0.1703  0.0119 -0.0407
  375loPI   C3A 5993  11.008   1.170   9.246  0.0153 -0.0285 -0.1437
  375loPI   C4A 5994  10.894   1.149   8.815 -0.1021 -0.2126 -0.1129
  375loPI   C5A 5995  10.800   1.147   8.471  0.1216 -0.2353 -0.1640
  375loPI   C6A 5996  10.773   1.320   8.040  0.2475 -0.0940 -0.3768
  375loPI   C1B 5997  10.704   1.466   9.943 -0.0816 -0.0021  0.0949
  375loPI   C2B 5998  10.592   1.555   9.570  0.0743  0.2549 -0.1440
  375loPI   C3B 5999  10.583   1.535   9.147 -0.1065 -0.2370  0.1049
  375loPI   C4B 6000  10.515   1.509   8.674 -0.0618 -0.2322 -0.3377
  376loPI    C1 6001  12.701   0.734  10.896 -0.1291 -0.2058 -0.0037
  376loPI    C2 6002  12.320   0.839  10.953 -0.0953 -0.0831 -0.0007
  376loPI    C3 6003  12.614   1.085  11.067 -0.0134 -0.2181  0.0820
  376loPI   PO4 6004  12.691   0.614  10.672  0.2158 -0.0654 -0.0481
  376loPI   GL1 6005  12.574   0.473  10.286  0.0665 -0.0296 -0.1196
  376loPI   GL2 6006  12.421   0.839  10.212 -0.3406  0.1816  0.0377
  376loPI   C1A 6007  12.714   0.491   9.835 -0.3681 -0.0627  0.0089
  376loPI   C2A 6008  12.754   0.468   9.469  0.1475 -0.0267 -0.0835
  376loPI   C3A 6009  12.779   0.530   9.079 -0.0567  0.1873  0.0967
  376loPI   C4A 6010  12.741   0.562   8.659 -0.1260 -0.2396  0.0024
  376loPI   C5A 6011  12.671   0.638   8.251  0.0938 -0.2034  0.1245
  376loPI   C6A 6012  12.260   0.507   8.128  0.3625  0.1661  0.1847
  376loPI   C1B 6013  12.360   0.910   9.764  0.0899 -0.1930  0.4439
  376loPI   C2B 6014  12.427   0.835   9.318  0.0129  0.0536 -0.1249
  376loPI   C3B 6015  12.435   0.921   8.954  0.2706  0.2729  0.3151
  376loPI   C4B 6016  12.365   0.965   8.523  0.1285 -0.0323  0.1170
  377loPI    C1 6017  14.589  14.365  11.173  0.1909  0.1832  0.0397
  377loPI    C2 6018  14.621  14.002  11.337  0.0226  0.1400 -0.0211
  377loPI    C3 6019  14.589  14.325  11.571 -0.0601  0.0933  0.0325
  377loPI   PO4 6020  14.370  14.305  10.934  0.2069 -0.2058 -0.3405
  377loPI   GL1 6021  14.337  14.403  10.536  0.1742 -0.1436  0.0023
  377loPI   GL2 6022  14.174  14.120  10.512  0.1159  0.0663  0.1080
  377loPI   C1A 6023  14.555  14.561  10.157  0.0849  0.1469 -0.1199
  377loPI   C2A 6024  14.669  14.647   9.717 -0.1445  0.3424 -0.0044
  377loPI   C3A 6025  14.526  14.695   9.327 -0.0403  0.1955  0.0793
  377loPI   C4A 6026  14.560  14.698   8.908  0.1109 -0.0382  0.0294
  377loPI   C5A 6027  14.440  14.433   8.558  0.0326 -0.0378  0.3158
  377loPI   C6A 6028  14.378  14.070   8.396  0.1672 -0.1130 -0.0595
  377loPI   C1B 6029  14.366  14.120  10.150  0.1916  0.1432  0.0298
  377loPI   C2B 6030  14.398  14.208   9.785 -0.0676 -0.1208  0.3818
  377loPI   C3B 6031  14.441  14.146   9.429  0.1121  0.0525  0.2877
  377loPI   C4B 6032  14.428  14.176   9.016  0.1351 -0.3034  0.0719
  378loPI    C1 6033   1.658  13.018  11.244  0.2462 -0.2963  0.0468
  378loPI    C2 6034   1.597  13.277  11.543  0.1291  0.0759 -0.2898
  378loPI    C3 6035   1.747  12.914  11.620  0.1711  0.1909  0.2069
  378loPI   PO4 6036   1.799  13.160  11.105 -0.2762  0.1427  0.3911
  378loPI   GL1 6037   1.725  13.204  10.702  0.1059  0.1486  0.1707
  378loPI   GL2 6038   1.872  12.866  10.479 -0.0864 -0.4576  0.1306
  378loPI   C1A 6039   1.541  13.207  10.274  0.0423 -0.2943  0.1139
  378loPI   C2A 6040   1.454  13.178   9.819  0.0920 -0.1653 -0.1437
  378loPI   C3A 6041   1.433  13.202   9.413 -0.0748 -0.0377  0.0564
  378loPI   C4A 6042   1.211  13.160   9.132 -0.2832  0.0298  0.0591
  378loPI   C5A 6043   1.215  13.038   8.717 -0.0005 -0.0998 -0.2501
  378loPI   C6A 6044   1.138  13.023   8.249  0.1296 -0.1001  0.4002
  378loPI   C1B 6045   1.828  12.811  10.014  0.1196  0.0373 -0.0381
  378loPI   C2B 6046   1.804  12.795   9.600 -0.1647  0.2085 -0.0472
  378loPI   C3B 6047   1.654  12.764   9.190 -0.0135  0.0032 -0.2001
  378loPI   C4B 6048   1.561  12.692   8.749 -0.0407  0.0520  0.0682
  379loPI    C1 6049   6.964  10.886  10.372  0.0461 -0.1099 -0.0296
  379loPI    C2 6050   7.058  11.067  10.716  0.0977 -0.1447 -0.0253
  379loPI    C3 6051   7.043  10.668  10.698  0.0927 -0.1429 -0.0628
  379loPI   PO4 6052   6.701  11.051  10.303  0.2711 -0.4993  0.0389
  379loPI   GL1 6053   6.667  11.460  10.042  0.0770 -0.1544 -0.0648
  379loPI   GL2 6054   6.370  11.452  10.189  0.2162  0.0143  0.2351
  379loPI   C1A 6055   6.765  11.623   9.607 -0.0863 -0.2166  0.1200
  379loPI   C2A 6056   6.778  11.628   9.167 -0.2744  0.2361 -0.1628
  379loPI   C3A 6057   6.993  11.580   8.802 -0.1645 -0.3294 -0.3603
  379loPI   C4A 6058   7.090  11.448   8.430  0.0490  0.2765 -0.3475
  379loPI   C5A 6059   7.203  11.601   8.051 -0.0254 -0.1860 -0.1907
  379loPI   C6A 6060   6.959  11.891   7.773 -0.2013  0.0555  0.0295
  379loPI   C1B 6061   6.322  11.243   9.766 -0.0498 -0.0800 -0.1845
  379loPI   C2B 6062   6.393  11.338   9.369 -0.1110  0.4080  0.0077
  379loPI   C3B 6063   6.265  11.138   9.008  0.0114 -0.0270 -0.0423
  379loPI   C4B 6064   6.279  10.966   8.650  0.1629 -0.3165 -0.0965
  380loPI    C1 6065   6.573   3.101  11.181  0.0325 -0.0144 -0.1321
  380loPI    C2 6066   6.930   3.265  11.256  0.0024 -0.0144  0.0143
  380loPI    C3 6067   6.707   3.126  11.557 -0.0399 -0.1841 -0.0943
  380loPI   PO4 6068   6.518   3.132  10.889 -0.0572 -0.0941 -0.0560
  380loPI   GL1 6069   6.487   3.035  10.415 -0.1829  0.1333 -0.2165
  380loPI   GL2 6070   6.820   3.153  10.365 -0.1901  0.0040  0.1948
  380loPI   C1A 6071   6.333   3.002  10.025  0.0560  0.0059  0.0129
  380loPI   C2A 6072   6.362   2.988   9.536 -0.1664  0.1135 -0.0775
  380loPI   C3A 6073   6.418   2.959   9.081 -0.0196 -0.1394  0.0797
  380loPI   C4A 6074   6.315   2.913   8.738  0.0392  0.3863  0.1287
  380loPI   C5A 6075   6.406   2.867   8.330 -0.0262  0.3170  0.1429
  380loPI   C6A 6076   6.609   2.603   8.092 -0.0046 -0.1093 -0.1034
  380loPI   C1B 6077   6.787   3.167   9.926  0.0816  0.2878  0.0470
  380loPI   C2B 6078   6.884   3.107   9.484 -0.3379  0.2233 -0.1369
  380loPI   C3B 6079   6.953   3.128   9.000 -0.0342 -0.2373  0.2490
  380loPI   C4B 6080   6.899   3.070   8.510  0.0546  0.2518 -0.0897
  381loPI    C1 6081   4.864  10.879  10.857  0.0625 -0.0848 -0.0567
  381loPI    C2 6082   4.873  10.509  11.010 -0.0195 -0.0690 -0.0131
  381loPI    C3 6083   4.813  10.824  11.250  0.1130 -0.0218 -0.0412
  381loPI   PO4 6084   4.718  10.824  10.644 -0.0147 -0.3254 -0.1824
  381loPI   GL1 6085   4.515  10.763  10.384 -0.3902  0.2653  0.0974
  381loPI   GL2 6086   4.292  10.501  10.284 -0.2796 -0.5280 -0.0935
  381loPI   C1A 6087   4.419  10.979  10.022 -0.0296  0.0585 -0.1981
  381loPI   C2A 6088   4.407  10.935   9.602  0.0612 -0.1517 -0.2474
  381loPI   C3A 6089   4.347  10.936   9.167 -0.0304  0.1939 -0.0442
  381loPI   C4A 6090   4.443  10.993   8.734 -0.1475 -0.1963 -0.1484
  381loPI   C5A 6091   4.445  10.803   8.349 -0.1013 -0.0738  0.1571
  381loPI   C6A 6092   4.234  10.492   8.123  0.2432  0.1209  0.1590
  381loPI   C1B 6093   4.290  10.490   9.907  0.2564 -0.1280  0.1245
  381loPI   C2B 6094   4.242  10.349   9.507 -0.0425 -0.1598  0.0100
  381loPI   C3B 6095   4.238  10.435   9.052 -0.1664 -0.1349  0.0212
  381loPI   C4B 6096   4.282  10.411   8.595  0.0293  0.0270  0.1462
  382loPI    C1 6097   8.555   3.489  11.233 -0.0459 -0.3251 -0.1196
  382loPI    C2 6098   8.888   3.268  11.239  0.0472 -0.1840 -0.0164
  382loPI    C3 6099   8.825   3.542  11.524  0.0209  0.0497 -0.2436
  382loPI   PO4 6100   8.523   3.484  10.984 -0.3430 -0.1122  0.1364
  382loPI   GL1 6101   8.271   3.252  10.668 -0.1967 -0.1087 -0.0202
  382loPI   GL2 6102   8.015   3.452  10.479 -0.0736 -0.1788 -0.0402
  382loPI   C1A 6103   8.440   3.397  10.209 -0.1493  0.5113  0.0317
  382loPI   C2A 6104   8.438   3.343   9.856  0.0586 -0.3004  0.0130
  382loPI   C3A 6105   8.350   3.335   9.432  0.0984  0.0052  0.0757
  382loPI   C4A 6106   8.453   3.291   8.946 -0.0854  0.3659  0.0992
  382loPI   C5A 6107   8.322   3.380   8.538 -0.1558 -0.0911  0.2291
  382loPI   C6A 6108   7.947   3.320   8.435 -0.3041 -0.0196  0.1465
  382loPI   C1B 6109   7.981   3.322  10.095 -0.2613  0.2631  0.0692
  382loPI   C2B 6110   7.909   3.288   9.679  0.1385  0.1218  0.2525
  382loPI   C3B 6111   7.857   3.262   9.299 -0.0369 -0.2128 -0.0370
  382loPI   C4B 6112   7.944   3.206   8.889  0.1318  0.0536  0.0791
  383loPI    C1 6113  11.621  12.257  10.806  0.2597  0.1885  0.0758
  383loPI    C2 6114  11.433  11.905  10.772  0.1606  0.2656 -0.1992
  383loPI    C3 6115  11.496  12.064  11.134  0.0193  0.0662 -0.0852
  383loPI   PO4 6116  11.507  12.477  10.653  0.0799 -0.1118  0.0181
  383loPI   GL1 6117  11.551  12.568  10.179  0.0092 -0.1477 -0.1013
  383loPI   GL2 6118  11.762  12.788  10.305 -0.1494  0.0586 -0.0211
  383loPI   C1A 6119  11.769  12.378   9.733  0.2082 -0.2210 -0.3588
  383loPI   C2A 6120  11.864  12.293   9.253  0.2435 -0.0317  0.0832
  383loPI   C3A 6121  11.917  12.256   8.807 -0.1873 -0.3442 -0.1379
  383loPI   C4A 6122  11.995  12.187   8.414  0.0788 -0.1042 -0.0436
  383loPI   C5A 6123  12.088  12.067   8.014 -0.1134 -0.1525  0.3489
  383loPI   C6A 6124  12.153  11.783   7.764 -0.1451  0.0655 -0.1778
  383loPI   C1B 6125  11.843  12.899   9.833 -0.2251 -0.0268  0.0455
  383loPI   C2B 6126  12.001  12.813   9.372  0.0370 -0.0828 -0.0910
  383loPI   C3B 6127  12.173  12.795   8.994  0.2905 -0.0524  0.1747
  383loPI   C4B 6128  12.081  12.705   8.526  0.0637 -0.1289  0.2127
  384loPI    C1 6129  15.325   5.374  10.894 -0.2289 -0.1914  0.1491
  384loPI    C2 6130  15.566   5.153  11.124  0.1804  0.1719  0.0826
  384loPI    C3 6131  15.285   5.384  11.292  0.0840 -0.0126  0.1790
  384loPI   PO4 6132  15.381   5.268  10.658 -0.4432 -0.1596  0.1921
  384loPI   GL1 6133  15.287   5.404  10.190 -0.0284  0.1943  0.1632
  384loPI   GL2 6134  14.968   5.455  10.070 -0.2295  0.0907 -0.0065
  384loPI   C1A 6135  15.441   5.150   9.797  0.2082  0.2432  0.0870
  384loPI   C2A 6136  15.368   5.082   9.448 -0.0836 -0.1054 -0.1906
  384loPI   C3A 6137  15.442   5.080   9.108 -0.1859 -0.5095  0.1802
  384loPI   C4A 6138  15.451   5.004   8.705  0.0173  0.1142  0.1777
  384loPI   C5A 6139  15.308   5.111   8.252 -0.1001  0.1205 -0.2457
  384loPI   C6A 6140  15.213   5.464   8.029 -0.0951 -0.0281  0.2501
  384loPI   C1B 6141  15.070   5.480   9.677 -0.1998 -0.0750 -0.0030
  384loPI   C2B 6142  15.110   5.504   9.253 -0.0777 -0.1473 -0.0074
  384loPI   C3B 6143  15.068   5.392   8.936 -0.1727 -0.1079  0.1586
  384loPI   C4B 6144  15.062   5.410   8.510 -0.1136 -0.1813 -0.0193
  385loPI    C1 6145  16.853   0.544  10.818  0.1466 -0.0214 -0.1255
  385loPI    C2 6146  17.180   0.663  11.016  0.0879 -0.3617  0.1853
  385loPI    C3 6147  16.816   0.743  11.163  0.0305 -0.1067 -0.0881
  385loPI   PO4 6148  16.789   0.451  10.613 -0.0863  0.0910  0.1661
  385loPI   GL1 6149  16.709   0.543  10.170  0.1403  0.1100  0.3411
  385loPI   GL2 6150  16.592   0.222  10.002 -0.0280 -0.1849 -0.2230
  385loPI   C1A 6151  16.763   0.681   9.782  0.1492 -0.0239 -0.0252
  385loPI   C2A 6152  16.642   0.716   9.400  0.0964 -0.0092  0.0627
  385loPI   C3A 6153  16.634   0.652   8.956  0.2758 -0.2388  0.0686
  385loPI   C4A 6154  16.646   0.754   8.552 -0.4857 -0.1158  0.3524
  385loPI   C5A 6155  16.592   0.594   8.075  0.0180 -0.2924  0.3191
  385loPI   C6A 6156  16.409   0.230   7.843 -0.3156 -0.0512 -0.2329
  385loPI   C1B 6157  16.558   0.233   9.672  0.3702 -0.2231  0.0121
  385loPI   C2B 6158  16.458   0.208   9.225  0.1802  0.0166  0.0020
  385loPI   C3B 6159  16.386   0.247   8.786 -0.0828 -0.0198  0.2308
  385loPI   C4B 6160  16.397   0.158   8.378  0.0598 -0.1256  0.0096
  386loPI    C1 6161   3.718   9.390  11.013  0.1397  0.2481  0.1139
  386loPI    C2 6162   4.080   9.259  11.123  0.0728 -0.0820 -0.0467
  386loPI    C3 6163   3.778   9.256  11.385  0.1494  0.0563  0.0444
  386loPI   PO4 6164   3.762   9.251  10.736  0.1549 -0.1363  0.1999
  386loPI   GL1 6165   3.544   9.248  10.319 -0.2753 -0.3260  0.0086
  386loPI   GL2 6166   3.332   9.447  10.169  0.1355 -0.1500  0.1646
  386loPI   C1A 6167   3.610   9.007   9.901  0.3548  0.0268 -0.1086
  386loPI   C2A 6168   3.688   8.932   9.497  0.1180  0.1555 -0.0181
  386loPI   C3A 6169   3.687   8.957   9.003  0.1088  0.1298 -0.1175
  386loPI   C4A 6170   3.704   8.952   8.500 -0.2359 -0.0984 -0.2085
  386loPI   C5A 6171   3.704   8.698   8.062  0.0361  0.0556  0.0079
  386loPI   C6A 6172   3.964   8.398   7.728 -0.3326 -0.1841 -0.3890
  386loPI   C1B 6173   3.253   9.281   9.688  0.0067 -0.0851 -0.2070
  386loPI   C2B 6174   3.415   9.310   9.306 -0.0019 -0.1075  0.0610
  386loPI   C3B 6175   3.462   9.405   8.864  0.0215 -0.0804  0.0213
  386loPI   C4B 6176   3.387   9.419   8.422  0.0737 -0.1268  0.1354
  387loPI    C1 6177   9.024   6.742  11.081 -0.2204 -0.2278 -0.2055
  387loPI    C2 6178   8.943   6.510  11.397 -0.0789 -0.0349 -0.0247
  387loPI    C3 6179   9.318   6.630  11.327 -0.1514  0.1434 -0.1135
  387loPI   PO4 6180   8.998   6.602  10.804  0.1837  0.0169 -0.1511
  387loPI   GL1 6181   9.099   6.646  10.344  0.1178 -0.0107 -0.0837
  387loPI   GL2 6182   9.002   6.286  10.237  0.0099 -0.3294 -0.2406
  387loPI   C1A 6183   9.213   6.738   9.963 -0.0753  0.0766  0.1957
  387loPI   C2A 6184   9.228   6.750   9.475  0.3626 -0.2282  0.0145
  387loPI   C3A 6185   9.148   6.786   9.086  0.0082 -0.2568 -0.0983
  387loPI   C4A 6186   9.130   6.733   8.644  0.0337 -0.1537  0.1603
  387loPI   C5A 6187   9.027   7.000   8.347 -0.0486 -0.2668 -0.3875
  387loPI   C6A 6188   8.663   7.122   8.303 -0.2245 -0.1947 -0.1284
  387loPI   C1B 6189   9.114   6.216   9.899 -0.2300 -0.2826 -0.0379
  387loPI   C2B 6190   9.018   6.213   9.490  0.1726  0.0551  0.1139
  387loPI   C3B 6191   8.937   6.225   9.120 -0.1352  0.2402 -0.1075
  387loPI   C4B 6192   8.899   6.279   8.705 -0.0526  0.2106 -0.0381
  388loPI    C1 6193   6.762   4.501  11.234 -0.1439  0.2548  0.1640
  388loPI    C2 6194   6.573   4.375  11.564 -0.0993 -0.1529  0.0398
  388loPI    C3 6195   6.951   4.505  11.587 -0.1101 -0.1413  0.1553
  388loPI   PO4 6196   6.711   4.326  11.076  0.1176  0.0356 -0.0585
  388loPI   GL1 6197   6.704   4.280  10.686 -0.2171  0.0004  0.1775
  388loPI   GL2 6198   6.607   4.062  10.472  0.1564 -0.2450  0.0694
  388loPI   C1A 6199   6.846   4.399  10.214 -0.3179 -0.2782 -0.2085
  388loPI   C2A 6200   6.988   4.506   9.840  0.0355  0.2952 -0.2778
  388loPI   C3A 6201   7.016   4.448   9.533 -0.0448  0.0192 -0.0771
  388loPI   C4A 6202   6.891   4.487   9.041 -0.1729  0.2052 -0.0601
  388loPI   C5A 6203   6.808   4.367   8.740 -0.2429  0.2565 -0.1515
  388loPI   C6A 6204   7.085   4.093   8.478 -0.1612  0.1647 -0.0547
  388loPI   C1B 6205   6.677   3.968   9.992 -0.3851  0.0546  0.1922
  388loPI   C2B 6206   6.696   3.928   9.555  0.0431  0.0640 -0.4083
  388loPI   C3B 6207   6.759   3.965   9.175  0.0135 -0.0119  0.1228
  388loPI   C4B 6208   6.693   3.831   8.768  0.1651  0.0300  0.2476
  389loPI    C1 6209  14.309   8.671  10.696 -0.1082 -0.0467 -0.0383
  389loPI    C2 6210  14.455   8.392  10.942  0.3974  0.0404 -0.2275
  389loPI    C3 6211  14.514   8.779  11.022  0.0099  0.0886 -0.1560
  389loPI   PO4 6212  14.308   8.623  10.466 -0.2651 -0.1007  0.2225
  389loPI   GL1 6213  14.476   8.645  10.163 -0.5409  0.1289  0.0115
  389loPI   GL2 6214  14.665   8.628  10.109  0.2074  0.0676  0.1344
  389loPI   C1A 6215  14.338   8.617   9.723 -0.1766  0.1153 -0.1566
  389loPI   C2A 6216  14.253   8.496   9.330  0.0554 -0.1837 -0.2116
  389loPI   C3A 6217  14.387   8.448   8.939 -0.0993 -0.1158 -0.0354
  389loPI   C4A 6218  14.554   8.390   8.434  0.0041  0.1096 -0.0332
  389loPI   C5A 6219  14.596   8.451   7.969  0.2441  0.0138  0.0707
  389loPI   C6A 6220  14.280   8.701   7.755  0.0486 -0.1574 -0.0275
  389loPI   C1B 6221  14.871   8.704   9.628  0.0896  0.0500  0.1014
  389loPI   C2B 6222  14.943   8.594   9.196  0.1876  0.0894  0.0333
  389loPI   C3B 6223  14.913   8.518   8.823 -0.1321  0.0967 -0.0877
  389loPI   C4B 6224  15.025   8.772   8.357  0.2167  0.1362 -0.2887
  390loPI    C1 6225  17.425  15.441  11.262 -0.0558  0.0903 -0.0755
  390loPI    C2 6226  17.679  15.630  11.507  0.0073 -0.0924  0.0017
  390loPI    C3 6227  17.396  15.390  11.657  0.1711 -0.3605 -0.1103
  390loPI   PO4 6228  17.291  15.653  11.048 -0.2935 -0.2791  0.0670
  390loPI   GL1 6229  17.192  15.857  10.675  0.0227 -0.0509 -0.0604
  390loPI   GL2 6230  17.489  15.702  10.577  0.4164  0.3398  0.0497
  390loPI   C1A 6231  17.128  16.003  10.298 -0.2996 -0.1907  0.4344
  390loPI   C2A 6232  17.016  15.972   9.884  0.3123  0.0742 -0.0388
  390loPI   C3A 6233  17.022  15.915   9.468 -0.0163  0.0879 -0.0702
  390loPI   C4A 6234  17.171  15.959   9.122 -0.2033  0.0660  0.0292
  390loPI   C5A 6235  16.896  15.813   8.761 -0.2252 -0.1686 -0.2160
  390loPI   C6A 6236  16.453  15.785   8.628  0.2239 -0.1113  0.1747
  390loPI   C1B 6237  17.403  15.528  10.226 -0.1662  0.1501  0.0690
  390loPI   C2B 6238  17.301  15.585   9.724  0.1038  0.2136 -0.1143
  390loPI   C3B 6239  17.430  15.528   9.268  0.1233  0.0353 -0.1821
  390loPI   C4B 6240  17.410  15.516   8.791 -0.2652 -0.3393  0.0059
  391loPI    C1 6241  16.177   1.221  10.451  0.2752 -0.1796 -0.0073
  391loPI    C2 6242  16.140   1.188  10.848 -0.0420 -0.1394 -0.0303
  391loPI    C3 6243  15.960   0.924  10.608  0.3518 -0.3103 -0.1465
  391loPI   PO4 6244  16.488   1.359  10.510 -0.0348 -0.1313 -0.0051
  391loPI   GL1 6245  16.669   1.587  10.057  0.0446  0.0024 -0.3142
  391loPI   GL2 6246  16.435   1.507   9.909  0.1085 -0.1673  0.0434
  391loPI   C1A 6247  17.037   1.691   9.787 -0.0264  0.1721  0.1069
  391loPI   C2A 6248  17.081   1.668   9.348  0.2519 -0.1872  0.0372
  391loPI   C3A 6249  17.011   1.638   8.838 -0.1638 -0.3498 -0.0785
  391loPI   C4A 6250  17.100   1.682   8.474  0.0262 -0.0760 -0.1478
  391loPI   C5A 6251  17.123   2.001   8.086  0.0741  0.3223 -0.1884
  391loPI   C6A 6252  16.830   2.312   8.005  0.0158  0.2819  0.1009
  391loPI   C1B 6253  16.513   1.491   9.483  0.0301 -0.0041 -0.0462
  391loPI   C2B 6254  16.559   1.599   9.078  0.0100  0.0817 -0.1240
  391loPI   C3B 6255  16.508   1.604   8.654 -0.1323  0.1327 -0.0589
  391loPI   C4B 6256  16.692   1.687   8.187  0.0904  0.1733  0.0376
  392loPI    C1 6257   0.636   9.443  11.188  0.0298 -0.0914  0.2543
  392loPI    C2 6258   1.029   9.512  11.157  0.0119 -0.0460  0.1205
  392loPI    C3 6259   0.894   9.137  11.189  0.0399 -0.0950 -0.2793
  392loPI   PO4 6260   0.511   9.511  10.901  0.2762 -0.3953 -0.0022
  392loPI   GL1 6261   0.399   9.393  10.404  0.1492  0.0600  0.2543
  392loPI   GL2 6262   0.564   9.648  10.414  0.1541  0.1899 -0.1289
  392loPI   C1A 6263   0.412   9.273   9.994  0.1244  0.3110 -0.1162
  392loPI   C2A 6264   0.593   9.237   9.571  0.0464 -0.1969  0.0584
  392loPI   C3A 6265   0.598   9.283   9.200  0.1807  0.2083 -0.2242
  392loPI   C4A 6266   0.609   9.388   8.756  0.0891 -0.2366 -0.0952
  392loPI   C5A 6267   0.474   9.616   8.365  0.1356 -0.1225  0.0637
  392loPI   C6A 6268   0.610   9.618   7.905  0.0549  0.0092 -0.0505
  392loPI   C1B 6269   0.621   9.702  10.028 -0.0240 -0.1400  0.0781
  392loPI   C2B 6270   0.669   9.744   9.583  0.0554  0.1473  0.0927
  392loPI   C3B 6271   0.697   9.796   9.151  0.0086  0.4100 -0.0489
  392loPI   C4B 6272   0.772   9.899   8.716 -0.0850 -0.0880  0.0585
  393loPI    C1 6273   0.486  12.194  11.095 -0.2104  0.1011 -0.1673
  393loPI    C2 6274   0.416  12.180  11.489  0.2117  0.3083 -0.0793
  393loPI    C3 6275   0.398  11.846  11.271 -0.0528  0.1968  0.1081
  393loPI   PO4 6276   0.748  12.305  11.036 -0.2560  0.0311  0.3611
  393loPI   GL1 6277   0.931  12.434  10.697  0.1040  0.0943  0.1574
  393loPI   GL2 6278   0.838  12.658  10.580  0.1122 -0.2598 -0.1024
  393loPI   C1A 6279   1.113  12.301  10.340  0.0315 -0.1261 -0.0605
  393loPI   C2A 6280   0.960  12.213   9.881 -0.2800 -0.1614  0.0177
  393loPI   C3A 6281   1.084  12.222   9.527 -0.0996 -0.3471  0.4331
  393loPI   C4A 6282   1.074  12.190   9.072 -0.3014 -0.0743 -0.1864
  393loPI   C5A 6283   1.147  12.224   8.637 -0.0145  0.3085  0.1473
  393loPI   C6A 6284   1.022  12.592   8.403 -0.1196  0.1288 -0.0952
  393loPI   C1B 6285   0.786  12.681  10.139  0.2427  0.3062 -0.1244
  393loPI   C2B 6286   0.728  12.629   9.676  0.1224 -0.0269 -0.1341
  393loPI   C3B 6287   0.702  12.540   9.225 -0.0240  0.1028 -0.0829
  393loPI   C4B 6288   0.692  12.475   8.756 -0.1417  0.1299 -0.0489
  394loPI    C1 6289  15.639   9.420  10.935 -0.0553  0.0607  0.1098
  394loPI    C2 6290  15.835   9.210  11.214  0.1422  0.1164  0.0147
  394loPI    C3 6291  15.436   9.191  11.193  0.1593 -0.2891 -0.0238
  394loPI   PO4 6292  15.836   9.496  10.761 -0.3515  0.4760  0.0225
  394loPI   GL1 6293  15.831   9.778  10.470  0.2311 -0.2347 -0.0118
  394loPI   GL2 6294  16.123   9.889  10.376 -0.0573 -0.0554 -0.1804
  394loPI   C1A 6295  15.594   9.794  10.066 -0.2151  0.1201  0.2667
  394loPI   C2A 6296  15.820   9.806   9.681 -0.0097  0.2295  0.0572
  394loPI   C3A 6297  15.776   9.731   9.284 -0.0099  0.0989  0.1169
  394loPI   C4A 6298  15.817   9.757   8.767 -0.3355 -0.1536 -0.0089
  394loPI   C5A 6299  15.971   9.621   8.352  0.0818 -0.1161  0.2006
  394loPI   C6A 6300  16.317   9.299   8.275  0.2797 -0.2834 -0.1420
  394loPI   C1B 6301  16.302   9.832  10.040  0.2052  0.1467 -0.2538
  394loPI   C2B 6302  16.290   9.843   9.550  0.2063  0.3780  0.3965
  394loPI   C3B 6303  16.197   9.907   9.094  0.1423  0.4350 -0.0625
  394loPI   C4B 6304  16.330   9.960   8.588 -0.1227  0.0504  0.0294
  395loPI    C1 6305  17.724   9.827  11.182 -0.1222  0.2657  0.0186
  395loPI    C2 6306  18.094   9.782  11.035 -0.2410 -0.0767 -0.1875
  395loPI    C3 6307  18.012  10.087  11.280  0.1493  0.0656 -0.2270
  395loPI   PO4 6308  17.574   9.840  10.934 -0.0927  0.0678 -0.1308
  395loPI   GL1 6309  17.761   9.578  10.648  0.1923 -0.1583 -0.2251
  395loPI   GL2 6310  18.068   9.732  10.521  0.0732 -0.0850  0.1519
  395loPI   C1A 6311  17.552   9.545  10.267 -0.1059 -0.0685 -0.0985
  395loPI   C2A 6312  17.552   9.570   9.843 -0.1579  0.0809  0.1078
  395loPI   C3A 6313  17.546   9.664   9.393 -0.0360 -0.1448 -0.2666
  395loPI   C4A 6314  17.681   9.692   9.103  0.2410  0.0084  0.2019
  395loPI   C5A 6315  17.640   9.488   8.734  0.1689  0.0028  0.1578
  395loPI   C6A 6316  17.932   9.544   8.305 -0.0369  0.3769 -0.1869
  395loPI   C1B 6317  18.076   9.663  10.020  0.2696 -0.0626  0.0824
  395loPI   C2B 6318  18.001   9.722   9.612 -0.1179 -0.0421 -0.0454
  395loPI   C3B 6319  18.176   9.732   9.203  0.0637 -0.0745 -0.3310
  395loPI   C4B 6320  18.156   9.746   8.744  0.2716 -0.0365  0.1906
  396loPI    C1 6321  11.311   2.501  10.948 -0.1464  0.1812 -0.0755
  396loPI    C2 6322  11.018   2.474  11.219 -0.1095  0.0298 -0.0497
  396loPI    C3 6323  10.977   2.718  10.905 -0.2289  0.0699 -0.0038
  396loPI   PO4 6324  11.344   2.222  10.809  0.1500 -0.0954  0.0336
  396loPI   GL1 6325  11.387   2.063  10.384 -0.2149 -0.1878 -0.0635
  396loPI   GL2 6326  11.366   1.707  10.447 -0.1854 -0.1873  0.0066
  396loPI   C1A 6327  11.369   2.106   9.911 -0.0260  0.0536 -0.2318
  396loPI   C2A 6328  11.396   2.098   9.425 -0.1933 -0.2509 -0.0129
  396loPI   C3A 6329  11.388   2.058   8.952 -0.1322 -0.2875 -0.0348
  396loPI   C4A 6330  11.228   2.082   8.604  0.1251 -0.2412 -0.0605
  396loPI   C5A 6331  10.840   2.359   8.524  0.0573 -0.0141  0.0959
  396loPI   C6A 6332  10.639   2.635   8.377 -0.0031  0.0680  0.0528
  396loPI   C1B 6333  11.273   1.564  10.068  0.2014  0.3138  0.0551
  396loPI   C2B 6334  11.253   1.614   9.645 -0.4666 -0.4709 -0.0352
  396loPI   C3B 6335  11.245   1.586   9.214  0.1920 -0.1438 -0.0649
  396loPI   C4B 6336  11.026   1.631   8.842 -0.4110 -0.1322 -0.1287
  397loPI    C1 6337   9.504  17.092  10.947  0.1548 -0.1409  0.2218
  397loPI    C2 6338   9.828  16.906  10.805 -0.0289 -0.2984  0.0026
  397loPI    C3 6339   9.709  16.840  11.181  0.1949 -0.2357  0.0859
  397loPI   PO4 6340   9.247  17.051  10.770  0.2488  0.0441  0.0665
  397loPI   GL1 6341   9.080  17.035  10.376  0.0595 -0.2959 -0.0893
  397loPI   GL2 6342   9.228  16.917  10.199  0.5071  0.3002  0.0016
  397loPI   C1A 6343   8.872  17.206   9.962  0.1760  0.2109 -0.0813
  397loPI   C2A 6344   8.920  17.292   9.577  0.0401  0.0011 -0.0603
  397loPI   C3A 6345   8.924  17.302   9.162  0.0892  0.0398 -0.1678
  397loPI   C4A 6346   8.880  17.316   8.717  0.0339  0.1060  0.2631
  397loPI   C5A 6347   8.942  17.321   8.170 -0.0231  0.1118  0.0115
  397loPI   C6A 6348   9.161  17.155   7.953  0.1052 -0.0061  0.1769
  397loPI   C1B 6349   9.218  16.920   9.791 -0.1284  0.2553 -0.1915
  397loPI   C2B 6350   9.216  16.931   9.349 -0.0026  0.0108  0.0494
  397loPI   C3B 6351   9.188  16.926   8.919 -0.1454  0.0222 -0.1855
  397loPI   C4B 6352   9.145  16.964   8.483 -0.3122  0.0711  0.0384
  398loPI    C1 6353   9.868   8.329  10.582  0.1967 -0.0872 -0.1787
  398loPI    C2 6354   9.561   8.506  10.767  0.0223 -0.3140 -0.2456
  398loPI    C3 6355   9.885   8.399  10.975  0.0208 -0.1525 -0.1582
  398loPI   PO4 6356   9.603   8.233  10.364  0.2769  0.2167  0.1214
  398loPI   GL1 6357   9.586   8.170   9.926 -0.0961  0.1668  0.1982
  398loPI   GL2 6358   9.812   8.232   9.730  0.0338  0.0817  0.0582
  398loPI   C1A 6359   9.226   8.135   9.694 -0.5881  0.0667 -0.3042
  398loPI   C2A 6360   9.130   8.151   9.302  0.0106 -0.0336  0.0363
  398loPI   C3A 6361   9.145   8.148   8.882  0.2653  0.1694 -0.3855
  398loPI   C4A 6362   9.417   8.140   8.542  0.1787  0.0392  0.4338
  398loPI   C5A 6363   9.443   8.321   8.163  0.0286 -0.0204 -0.2800
  398loPI   C6A 6364   9.249   8.357   7.688 -0.0869 -0.0456 -0.2311
  398loPI   C1B 6365   9.633   8.170   9.364  0.2702 -0.0911  0.1978
  398loPI   C2B 6366   9.745   8.159   8.927  0.0431  0.0735 -0.1987
  398loPI   C3B 6367   9.960   8.176   8.504 -0.1665  0.1297 -0.1980
  398loPI   C4B 6368   9.968   8.182   8.053 -0.0497 -0.0516  0.0380
  399loPI    C1 6369   7.598   8.501  10.609 -0.0505 -0.0693  0.3705
  399loPI    C2 6370   7.902   8.684  10.794  0.0492 -0.1175  0.2556
  399loPI    C3 6371   7.851   8.290  10.836  0.1700 -0.1568  0.0499
  399loPI   PO4 6372   7.658   8.548  10.397  0.0830  0.0625 -0.2367
  399loPI   GL1 6373   7.835   8.575   9.990  0.1508 -0.0174 -0.3740
  399loPI   GL2 6374   8.151   8.640  10.092  0.0177  0.2833 -0.0162
  399loPI   C1A 6375   7.856   8.338   9.611 -0.0081 -0.4269 -0.2168
  399loPI   C2A 6376   7.849   8.340   9.284 -0.1583 -0.0644 -0.2026
  399loPI   C3A 6377   7.967   8.297   8.858  0.1428 -0.1347 -0.1500
  399loPI   C4A 6378   7.797   8.258   8.419 -0.0955 -0.3574  0.0791
  399loPI   C5A 6379   7.660   7.963   8.016 -0.2544  0.3159 -0.1436
  399loPI   C6A 6380   8.041   7.792   7.795 -0.2071  0.0088  0.0347
  399loPI   C1B 6381   8.001   8.852   9.604 -0.1665 -0.0115 -0.3007
  399loPI   C2B 6382   8.078   8.778   9.187 -0.1636 -0.0926 -0.1993
  399loPI   C3B 6383   8.126   8.825   8.748 -0.2540 -0.1124  0.2937
  399loPI   C4B 6384   8.145   8.662   8.263  0.1367  0.1927 -0.0051
  400loPI    C1 6385  16.198   2.911  10.786  0.0689 -0.0923 -0.2602
  400loPI    C2 6386  16.488   2.659  10.673  0.2675  0.0770 -0.1368
  400loPI    C3 6387  16.536   2.887  10.998 -0.0922 -0.0437  0.0067
  400loPI   PO4 6388  16.101   2.995  10.554 -0.0697  0.1491 -0.0498
  400loPI   GL1 6389  16.129   3.012  10.168  0.1350 -0.1666 -0.0924
  400loPI   GL2 6390  16.167   2.633  10.224  0.0846  0.0665  0.1294
  400loPI   C1A 6391  16.042   2.840   9.780  0.1160  0.0021  0.2031
  400loPI   C2A 6392  16.100   2.830   9.339 -0.0029 -0.2184  0.3235
  400loPI   C3A 6393  16.085   2.853   8.985 -0.0249  0.0685 -0.3663
  400loPI   C4A 6394  16.027   2.914   8.567  0.1739  0.1914  0.2386
  400loPI   C5A 6395  15.927   2.722   8.144  0.1540  0.0312 -0.1180
  400loPI   C6A 6396  15.566   2.555   7.963 -0.1915 -0.0577  0.1859
  400loPI   C1B 6397  16.343   2.473   9.852 -0.0463  0.2692 -0.2068
  400loPI   C2B 6398  16.454   2.406   9.487 -0.1432 -0.0578  0.0677
  400loPI   C3B 6399  16.488   2.451   9.029 -0.3187 -0.0675 -0.3348
  400loPI   C4B 6400  16.331   2.511   8.680 -0.3582  0.1662 -0.0036
  401loPI    C1 6401  10.900   6.195  11.011  0.0159 -0.0819 -0.0666
  401loPI    C2 6402  11.196   5.965  11.149 -0.0881 -0.1109  0.1115
  401loPI    C3 6403  11.047   6.257  11.378 -0.0889  0.0077 -0.0391
  401loPI   PO4 6404  10.727   6.004  10.907 -0.1153 -0.2086  0.0296
  401loPI   GL1 6405  10.729   5.853  10.503 -0.3520 -0.1098  0.6416
  401loPI   GL2 6406  10.507   5.622  10.473 -0.0412 -0.1147  0.1031
  401loPI   C1A 6407  10.868   6.040  10.110  0.0283  0.3088 -0.1979
  401loPI   C2A 6408  10.841   6.029   9.693 -0.0503 -0.0493 -0.4561
  401loPI   C3A 6409  10.907   5.978   9.213 -0.0944 -0.1659 -0.2911
  401loPI   C4A 6410  10.792   6.131   8.841  0.1022  0.0582 -0.3766
  401loPI   C5A 6411  10.864   6.223   8.362  0.0869  0.0459  0.4910
  401loPI   C6A 6412  10.966   6.517   8.110  0.1325 -0.0453 -0.0058
  401loPI   C1B 6413  10.668   5.591  10.028 -0.0313 -0.0663 -0.1265
  401loPI   C2B 6414  10.688   5.590   9.533  0.0830 -0.4026 -0.3028
  401loPI   C3B 6415  10.635   5.575   9.106  0.0012  0.1739 -0.2036
  401loPI   C4B 6416  10.689   5.513   8.691 -0.0731  0.0229 -0.0934
  402loPI    C1 6417   2.134  14.878  10.850  0.1482  0.0023 -0.0455
  402loPI    C2 6418   1.747  14.944  10.776  0.1229  0.0598  0.1327
  402loPI    C3 6419   1.886  14.968  11.151  0.2599 -0.1610  0.0981
  402loPI   PO4 6420   2.207  14.661  10.743 -0.3224 -0.1223 -0.1806
  402loPI   GL1 6421   1.909  14.507  10.508  0.3183  0.2944  0.0718
  402loPI   GL2 6422   2.187  14.306  10.448 -0.0608  0.1692 -0.2697
  402loPI   C1A 6423   1.571  14.619  10.319  0.2344  0.0370  0.2321
  402loPI   C2A 6424   1.499  14.566   9.848  0.1130  0.1194  0.0034
  402loPI   C3A 6425   1.443  14.436   9.380 -0.0488  0.4787  0.1439
  402loPI   C4A 6426   1.398  14.500   9.008  0.1096 -0.1424  0.0386
  402loPI   C5A 6427   1.285  14.373   8.653  0.0659 -0.1162  0.1147
  402loPI   C6A 6428   1.071  13.991   8.497 -0.0988 -0.0720 -0.2036
  402loPI   C1B 6429   2.352  14.236  10.073  0.1220 -0.1286 -0.2912
  402loPI   C2B 6430   2.300  14.307   9.710 -0.1955 -0.0195  0.0122
  402loPI   C3B 6431   2.257  14.334   9.330 -0.1860 -0.0417 -0.1293
  402loPI   C4B 6432   2.203  14.300   8.922  0.0211  0.1667  0.0581
  403loPI    C1 6433  13.840  15.471  11.126  0.0565  0.1131  0.0505
  403loPI    C2 6434  14.202  15.353  11.006  0.0382 -0.1425  0.2382
  403loPI    C3 6435  14.155  15.514  11.369  0.0374  0.3161  0.0410
  403loPI   PO4 6436  13.774  15.643  10.932 -0.1603 -0.2649  0.2398
  403loPI   GL1 6437  13.671  15.553  10.504 -0.0798 -0.0207 -0.2015
  403loPI   GL2 6438  13.737  15.858  10.367  0.3417 -0.1682  0.1633
  403loPI   C1A 6439  13.946  15.405  10.222 -0.0343 -0.0800  0.1287
  403loPI   C2A 6440  14.045  15.458   9.769  0.0117  0.3743 -0.2946
  403loPI   C3A 6441  13.961  15.487   9.298  0.0107  0.5400 -0.1495
  403loPI   C4A 6442  13.953  15.441   8.860 -0.0121 -0.0165  0.2015
  403loPI   C5A 6443  13.663  15.416   8.461 -0.0772 -0.1062 -0.1201
  403loPI   C6A 6444  13.598  15.150   8.126 -0.3422 -0.0012 -0.0636
  403loPI   C1B 6445  13.686  15.881   9.887  0.0212  0.0637  0.0193
  403loPI   C2B 6446  13.695  15.877   9.441 -0.1310  0.1735 -0.0468
  403loPI   C3B 6447  13.653  15.863   8.928 -0.2050 -0.1982  0.2221
  403loPI   C4B 6448  13.655  15.968   8.565 -0.2483 -0.0492  0.1343
  404loPI    C1 6449  15.395  14.546  11.243  0.1309 -0.0555 -0.1141
  404loPI    C2 6450  15.059  14.409  11.413  0.0626  0.1497 -0.0802
  404loPI    C3 6451  15.416  14.289  11.549  0.0049  0.0698  0.0014
  404loPI   PO4 6452  15.403  14.582  11.002  0.0020  0.1113  0.1268
  404loPI   GL1 6453  15.126  14.682  10.516 -0.2960  0.1984  0.0503
  404loPI   GL2 6454  14.709  14.711  10.631 -0.2919 -0.1481 -0.1184
  404loPI   C1A 6455  15.085  14.702  10.022  0.0756 -0.0383  0.1864
  404loPI   C2A 6456  15.139  14.747   9.518 -0.2056  0.4736 -0.0738
  404loPI   C3A 6457  15.059  14.766   9.152  0.0478 -0.1402 -0.0930
  404loPI   C4A 6458  15.137  14.737   8.746  0.0004 -0.1285  0.2408
  404loPI   C5A 6459  15.354  14.893   8.367  0.2300  0.0333  0.1786
  404loPI   C6A 6460  15.776  14.697   8.292  0.1299 -0.0800  0.2258
  404loPI   C1B 6461  14.739  15.063  10.184  0.0201  0.0362 -0.1916
  404loPI   C2B 6462  14.859  15.181   9.744  0.1976 -0.0496  0.0705
  404loPI   C3B 6463  14.869  15.219   9.302  0.0413 -0.3547  0.1269
  404loPI   C4B 6464  14.803  15.246   8.887  0.3360  0.0945  0.3696
  405loPI    C1 6465  15.988   7.462  10.931  0.1522  0.1500 -0.1254
  405loPI    C2 6466  16.082   7.296  11.283  0.2075  0.0988 -0.1639
  405loPI    C3 6467  15.730   7.480  11.236  0.3219  0.3684  0.0086
  405loPI   PO4 6468  16.111   7.263  10.750 -0.0814  0.0043  0.1216
  405loPI   GL1 6469  16.244   7.163  10.328  0.3889 -0.1049 -0.0299
  405loPI   GL2 6470  16.496   7.406  10.168  0.1440 -0.4084 -0.1170
  405loPI   C1A 6471  16.194   7.064   9.955 -0.0962  0.0945  0.0980
  405loPI   C2A 6472  16.224   7.046   9.488 -0.0644  0.0035 -0.4523
  405loPI   C3A 6473  16.246   7.046   9.105  0.1562  0.0161 -0.0042
  405loPI   C4A 6474  16.148   6.930   8.674 -0.0651  0.1553 -0.2563
  405loPI   C5A 6475  16.219   7.012   8.212  0.1986  0.2268  0.1414
  405loPI   C6A 6476  16.333   7.232   7.889 -0.2195  0.1219 -0.1125
  405loPI   C1B 6477  16.265   7.518   9.751 -0.2794 -0.1000  0.0276
  405loPI   C2B 6478  16.332   7.516   9.393 -0.0676 -0.2493  0.0058
  405loPI   C3B 6479  16.327   7.523   8.895 -0.0778  0.0994 -0.4508
  405loPI   C4B 6480  16.263   7.476   8.471  0.2935  0.1122 -0.0806
  406loPI    C1 6481   7.031   2.395  11.113  0.1899  0.1560 -0.0526
  406loPI    C2 6482   7.214   2.542  11.437  0.0405  0.2463 -0.0085
  406loPI    C3 6483   6.886   2.721  11.294 -0.1083 -0.0071  0.0088
  406loPI   PO4 6484   7.160   2.392  10.931 -0.0564  0.1861 -0.1181
  406loPI   GL1 6485   7.449   2.589  10.691 -0.3288 -0.2242  0.0309
  406loPI   GL2 6486   7.240   2.744  10.431  0.1066 -0.1771  0.0825
  406loPI   C1A 6487   7.559   2.429  10.225  0.0527  0.1866  0.2070
  406loPI   C2A 6488   7.521   2.365   9.813 -0.0647 -0.1461  0.0650
  406loPI   C3A 6489   7.514   2.323   9.359  0.0799 -0.2085 -0.1021
  406loPI   C4A 6490   7.533   2.257   8.922 -0.0425  0.1746  0.1229
  406loPI   C5A 6491   7.407   2.165   8.482 -0.1302 -0.0612 -0.1841
  406loPI   C6A 6492   7.029   2.362   8.235 -0.1806 -0.1310 -0.1760
  406loPI   C1B 6493   7.184   2.771   9.997 -0.1284  0.0685  0.2733
  406loPI   C2B 6494   7.106   2.637   9.535  0.0638 -0.2107 -0.0941
  406loPI   C3B 6495   7.194   2.598   9.073 -0.3224  0.1534 -0.0587
  406loPI   C4B 6496   7.218   2.665   8.619  0.2768 -0.1927  0.1849
  407loPI    C1 6497   7.567  12.240  10.341  0.2109  0.0836  0.0668
  407loPI    C2 6498   7.361  12.326  10.673 -0.1951 -0.2623 -0.0871
  407loPI    C3 6499   7.720  12.154  10.701 -0.0892 -0.0066  0.1760
  407loPI   PO4 6500   7.626  12.450  10.166 -0.3674 -0.1565  0.1854
  407loPI   GL1 6501   7.671  12.469   9.655 -0.3025 -0.0895 -0.3091
  407loPI   GL2 6502   7.303  12.494   9.703  0.1534 -0.0483 -0.0686
  407loPI   C1A 6503   7.601  12.463   9.093 -0.1460 -0.3921 -0.0825
  407loPI   C2A 6504   7.516  12.645   8.819 -0.0249  0.2721  0.0017
  407loPI   C3A 6505   7.341  12.587   8.426 -0.1047 -0.1077  0.2214
  407loPI   C4A 6506   7.098  12.399   8.171  0.2941 -0.3253 -0.1624
  407loPI   C5A 6507   6.698  12.299   8.120 -0.1910  0.2001 -0.0804
  407loPI   C6A 6508   6.211  12.241   8.108 -0.2085  0.1496  0.1339
  407loPI   C1B 6509   6.938  12.497   9.493  0.2150  0.1434 -0.3792
  407loPI   C2B 6510   7.012  12.495   9.099  0.2042 -0.4250 -0.1157
  407loPI   C3B 6511   6.790  12.707   8.763  0.1435 -0.3825  0.1455
  407loPI   C4B 6512   6.852  12.778   8.391  0.0747  0.0028 -0.1621
  408loPI    C1 6513  12.057  14.478  10.732 -0.0240  0.2191  0.0666
  408loPI    C2 6514  12.090  14.244  11.055  0.0961  0.1972  0.0389
  408loPI    C3 6515  12.027  14.637  11.098  0.0261  0.1809  0.0873
  408loPI   PO4 6516  11.982  14.333  10.559  0.3246  0.0759 -0.3063
  408loPI   GL1 6517  12.096  14.223  10.169 -0.1349 -0.1505 -0.1401
  408loPI   GL2 6518  12.250  14.620  10.121  0.0731  0.1451 -0.1424
  408loPI   C1A 6519  12.107  14.199   9.761  0.1498  0.0034 -0.1522
  408loPI   C2A 6520  12.117  14.209   9.301 -0.1156 -0.2249  0.0516
  408loPI   C3A 6521  12.094  14.113   8.862  0.2177 -0.2124  0.0329
  408loPI   C4A 6522  12.143  14.146   8.413  0.4971 -0.0273  0.1273
  408loPI   C5A 6523  11.974  14.267   8.058 -0.1798 -0.0671  0.2178
  408loPI   C6A 6524  11.564  14.379   8.099 -0.2336 -0.0457  0.1217
  408loPI   C1B 6525  12.235  14.690   9.744 -0.0533  0.1815  0.3934
  408loPI   C2B 6526  12.291  14.705   9.349  0.0474  0.0593  0.0323
  408loPI   C3B 6527  12.312  14.648   8.955  0.1952 -0.0944  0.3224
  408loPI   C4B 6528  12.244  14.648   8.546 -0.4801 -0.0429 -0.2555
  409loPI    C1 6529  10.053   9.573  10.853  0.1877  0.1235 -0.0107
  409loPI    C2 6530  10.014   9.777  11.195 -0.0611 -0.0106  0.0431
  409loPI    C3 6531  10.054   9.379  11.202  0.0760 -0.0000 -0.0784
  409loPI   PO4 6532   9.919   9.789  10.682  0.0858  0.1151  0.0051
  409loPI   GL1 6533   9.891   9.913  10.199  0.0186 -0.1298  0.2164
  409loPI   GL2 6534   9.670   9.762  10.125 -0.1442  0.0451 -0.1790
  409loPI   C1A 6535   9.949  10.152   9.830  0.1091  0.1163 -0.0519
  409loPI   C2A 6536   9.866  10.127   9.429  0.0871  0.1640  0.0021
  409loPI   C3A 6537   9.964  10.102   8.998 -0.1897  0.0142  0.0815
  409loPI   C4A 6538  10.059  10.093   8.580  0.1530 -0.0464 -0.1943
  409loPI   C5A 6539  10.182  10.036   8.219  0.3537  0.0031 -0.2477
  409loPI   C6A 6540   9.930   9.895   7.949 -0.0745  0.2846  0.3071
  409loPI   C1B 6541   9.750   9.658   9.638  0.0890 -0.1574 -0.2774
  409loPI   C2B 6542   9.728   9.663   9.193 -0.0105  0.0024 -0.0134
  409loPI   C3B 6543   9.841   9.612   8.753  0.0764  0.0750 -0.2599
  409loPI   C4B 6544   9.962   9.568   8.305  0.0811 -0.1913  0.0863
  410loPI    C1 6545   4.521   2.741  11.014 -0.1203 -0.1711  0.0060
  410loPI    C2 6546   4.358   2.492  11.282 -0.1726  0.0120  0.1465
  410loPI    C3 6547   4.575   2.805  11.406  0.0591 -0.0745 -0.0334
  410loPI   PO4 6548   4.676   2.669  10.845  0.1916  0.0892  0.0464
  410loPI   GL1 6549   4.935   2.719  10.536  0.2414 -0.0679  0.1154
  410loPI   GL2 6550   5.125   2.408  10.384 -0.0258  0.2134 -0.0817
  410loPI   C1A 6551   4.771   2.843  10.081 -0.1258 -0.3327 -0.0732
  410loPI   C2A 6552   4.807   2.708   9.711  0.0034 -0.0597  0.1524
  410loPI   C3A 6553   4.795   2.670   9.255  0.1630  0.0402  0.1062
  410loPI   C4A 6554   4.748   2.655   8.797  0.1947 -0.3271 -0.2967
  410loPI   C5A 6555   4.797   2.687   8.363  0.2283  0.1668 -0.2149
  410loPI   C6A 6556   5.088   2.445   8.076 -0.0575 -0.1920  0.0390
  410loPI   C1B 6557   5.148   2.418   9.952  0.3192  0.0145 -0.1588
  410loPI   C2B 6558   5.195   2.375   9.491  0.0737  0.1000 -0.1668
  410loPI   C3B 6559   5.131   2.319   9.023  0.3225 -0.0083  0.1253
  410loPI   C4B 6560   5.117   2.315   8.624 -0.1113  0.0975  0.3973
  411loPI    C1 6561  11.998   8.257  10.582  0.0880  0.0823  0.0178
  411loPI    C2 6562  12.042   8.326  10.974 -0.1267  0.2076  0.0215
  411loPI    C3 6563  11.693   8.404  10.795 -0.0525  0.0828 -0.1812
  411loPI   PO4 6564  12.050   8.047  10.472 -0.0568  0.0926  0.2828
  411loPI   GL1 6565  12.055   7.787  10.113 -0.0327  0.0236 -0.0944
  411loPI   GL2 6566  11.697   7.850  10.077 -0.2647 -0.4016 -0.1944
  411loPI   C1A 6567  12.123   7.719   9.716 -0.1643 -0.1698 -0.1414
  411loPI   C2A 6568  12.058   7.669   9.263 -0.3364 -0.1038  0.2044
  411loPI   C3A 6569  12.087   7.690   8.874 -0.0003  0.1603 -0.1266
  411loPI   C4A 6570  12.111   7.548   8.440 -0.0472  0.1447  0.3528
  411loPI   C5A 6571  12.146   7.839   8.043 -0.1089  0.0987 -0.2225
  411loPI   C6A 6572  12.527   8.108   8.075  0.3100 -0.5036 -0.4540
  411loPI   C1B 6573  11.578   8.021   9.699  0.0053  0.0009 -0.1439
  411loPI   C2B 6574  11.684   8.059   9.321 -0.1439  0.0917  0.0847
  411loPI   C3B 6575  11.749   8.090   8.925  0.3657 -0.0368  0.0764
  411loPI   C4B 6576  11.863   8.079   8.519  0.0073 -0.1530  0.4011
  412loPI    C1 6577   9.157   7.773  10.738  0.0041  0.0654 -0.1867
  412loPI    C2 6578   9.501   7.974  10.770  0.0228 -0.0226  0.2257
  412loPI    C3 6579   9.156   8.173  10.730  0.1292  0.0634 -0.3495
  412loPI   PO4 6580   9.183   7.551  10.720 -0.1913 -0.3434  0.0406
  412loPI   GL1 6581   9.129   7.439  10.340 -0.2151 -0.1839 -0.1657
  412loPI   GL2 6582   9.332   7.168  10.138 -0.3223 -0.2940  0.0483
  412loPI   C1A 6583   9.100   7.545   9.914  0.2236  0.1347 -0.2636
  412loPI   C2A 6584   8.993   7.622   9.419  0.1443 -0.3295  0.0008
  412loPI   C3A 6585   8.982   7.607   9.044  0.2858 -0.1776  0.2768
  412loPI   C4A 6586   9.085   7.548   8.598  0.3498  0.1129  0.0804
  412loPI   C5A 6587   9.248   7.711   8.271 -0.0530  0.0761  0.3107
  412loPI   C6A 6588   9.084   8.041   8.096  0.2635 -0.0407  0.0062
  412loPI   C1B 6589   9.422   7.166   9.687  0.1827  0.0923  0.1536
  412loPI   C2B 6590   9.310   7.239   9.266 -0.3469 -0.0662 -0.1859
  412loPI   C3B 6591   9.324   7.214   8.874 -0.0035  0.0079  0.0891
  412loPI   C4B 6592   9.540   7.311   8.500 -0.0748 -0.1592 -0.1027
  413loPI    C1 6593   8.886   0.362  10.806  0.2436  0.0494  0.0778
  413loPI    C2 6594   9.014   0.129  11.105  0.2134 -0.1538 -0.0656
  413loPI    C3 6595   8.638   0.268  11.105  0.2231 -0.1274  0.0063
  413loPI   PO4 6596   8.978   0.235  10.581  0.2868 -0.2653 -0.0162
  413loPI   GL1 6597   9.061   0.038  10.248 -0.0921 -0.0299 -0.2835
  413loPI   GL2 6598   8.802   0.265  10.101  0.1987  0.3375 -0.0254
  413loPI   C1A 6599   9.221   0.259   9.842 -0.0649 -0.0329 -0.1894
  413loPI   C2A 6600   9.261   0.456   9.488 -0.1289 -0.1678 -0.2383
  413loPI   C3A 6601   9.158   0.317   9.099  0.2571 -0.0694  0.4569
  413loPI   C4A 6602   9.104   0.294   8.619 -0.2984 -0.2141 -0.0846
  413loPI   C5A 6603   9.081   0.404   8.147  0.4370 -0.0334  0.0871
  413loPI   C6A 6604   9.289   0.802   7.940 -0.0123  0.1154  0.1723
  413loPI   C1B 6605   8.707   0.160   9.686 -0.0616  0.4073 -0.1767
  413loPI   C2B 6606   8.710   0.247   9.266 -0.0735  0.1927 -0.3447
  413loPI   C3B 6607   8.621   0.208   8.769 -0.1718 -0.1267 -0.0303
  413loPI   C4B 6608   8.626   0.332   8.341 -0.0977 -0.1173  0.2904
  414loPI    C1 6609   9.728  11.390  10.783  0.1549  0.0463  0.0960
  414loPI    C2 6610   9.370  11.554  10.855  0.1167  0.1886 -0.3829
  414loPI    C3 6611   9.405  11.157  10.822  0.0391  0.1610 -0.1564
  414loPI   PO4 6612   9.830  11.614  10.599  0.1748 -0.0191 -0.2186
  414loPI   GL1 6613   9.987  11.541  10.213  0.0500  0.0204  0.0470
  414loPI   GL2 6614   9.725  11.616  10.064 -0.0217 -0.0344 -0.0943
  414loPI   C1A 6615  10.157  11.678   9.773 -0.0880 -0.0849  0.0616
  414loPI   C2A 6616  10.137  11.724   9.338 -0.0625 -0.2077  0.0457
  414loPI   C3A 6617  10.142  11.664   8.965 -0.2921  0.1526 -0.2911
  414loPI   C4A 6618  10.070  11.393   8.642 -0.4968 -0.0956  0.3100
  414loPI   C5A 6619   9.941  11.358   8.150 -0.0099 -0.0060  0.0044
  414loPI   C6A 6620  10.013  11.269   7.761  0.2840 -0.0964 -0.2382
  414loPI   C1B 6621   9.716  11.462   9.630 -0.2681 -0.0064 -0.1761
  414loPI   C2B 6622   9.713  11.421   9.175 -0.1169 -0.3294 -0.1366
  414loPI   C3B 6623   9.523  11.317   8.847  0.2327  0.1058 -0.2146
  414loPI   C4B 6624   9.522  11.281   8.429 -0.0729  0.2853 -0.0066
  415loPI    C1 6625  16.408   2.197  10.816  0.2647 -0.1892  0.1401
  415loPI    C2 6626  16.132   2.118  11.095  0.2332  0.0594  0.1817
  415loPI    C3 6627  16.347   2.455  11.115  0.0961  0.1745 -0.1990
  415loPI   PO4 6628  16.321   2.173  10.491 -0.1285  0.1523  0.0475
  415loPI   GL1 6629  16.255   1.950  10.086  0.0745  0.0051 -0.0667
  415loPI   GL2 6630  16.183   1.709  10.289  0.1554 -0.0226 -0.3051
  415loPI   C1A 6631  16.107   1.976   9.682  0.0168 -0.1825  0.2217
  415loPI   C2A 6632  16.218   2.002   9.279 -0.4212 -0.2357  0.0807
  415loPI   C3A 6633  16.231   1.926   8.810 -0.1010  0.1669  0.0343
  415loPI   C4A 6634  16.230   1.979   8.394  0.0441  0.0981 -0.0028
  415loPI   C5A 6635  16.180   1.710   8.054 -0.2446  0.2499  0.1193
  415loPI   C6A 6636  15.922   1.418   8.032 -0.1227  0.1163  0.4517
  415loPI   C1B 6637  15.955   1.433   9.867 -0.2019 -0.0981 -0.3029
  415loPI   C2B 6638  16.027   1.447   9.368 -0.4456  0.2459  0.0760
  415loPI   C3B 6639  16.041   1.490   9.031  0.4869 -0.0552 -0.3387
  415loPI   C4B 6640  15.998   1.509   8.572  0.3607  0.0167  0.1140
  416loPI    C1 6641   6.604  12.424  10.399 -0.1731  0.1638 -0.1735
  416loPI    C2 6642   6.856  12.590  10.662 -0.2218 -0.0060 -0.0178
  416loPI    C3 6643   6.461  12.608  10.725 -0.2273 -0.1871  0.0064
  416loPI   PO4 6644   6.648  12.560  10.152 -0.0965  0.2010  0.0849
  416loPI   GL1 6645   6.501  12.716   9.751  0.0841 -0.0705 -0.1023
  416loPI   GL2 6646   6.186  13.005   9.895 -0.1432 -0.0315  0.2471
  416loPI   C1A 6647   6.348  12.653   9.349 -0.3319  0.0122  0.2071
  416loPI   C2A 6648   6.352  12.671   8.965 -0.2375 -0.1965  0.1551
  416loPI   C3A 6649   6.336  12.601   8.498  0.0604  0.4770  0.0089
  416loPI   C4A 6650   6.319  12.788   8.131 -0.1672 -0.4350 -0.1530
  416loPI   C5A 6651   6.304  13.022   7.771 -0.0588 -0.0209 -0.0058
  416loPI   C6A 6652   6.473  13.358   7.609  0.1729  0.1835 -0.2184
  416loPI   C1B 6653   6.070  13.005   9.448  0.2763  0.2573 -0.1269
  416loPI   C2B 6654   6.075  13.084   9.045  0.1414  0.0927 -0.2067
  416loPI   C3B 6655   6.077  13.074   8.555 -0.0649 -0.0527 -0.1355
  416loPI   C4B 6656   5.931  13.060   8.142 -0.1714 -0.1162  0.2178
  417loPI    C1 6657   6.256  13.482  10.514 -0.0992 -0.1305  0.0200
  417loPI    C2 6658   6.269  13.152  10.739 -0.1729  0.0895  0.3534
  417loPI    C3 6659   6.557  13.428  10.771  0.1530 -0.1573 -0.2743
  417loPI   PO4 6660   6.250  13.389  10.304 -0.1000 -0.1320 -0.2085
  417loPI   GL1 6661   6.368  13.465   9.845 -0.1433  0.0548 -0.0160
  417loPI   GL2 6662   6.596  13.216   9.931  0.0512  0.0988 -0.0718
  417loPI   C1A 6663   6.371  13.480   9.374  0.0364 -0.0374  0.1658
  417loPI   C2A 6664   6.273  13.525   8.939 -0.1832  0.4189  0.3690
  417loPI   C3A 6665   6.290  13.499   8.538  0.1865  0.0963  0.0175
  417loPI   C4A 6666   6.195  13.454   8.088  0.0218 -0.1984 -0.1768
  417loPI   C5A 6667   5.994  13.454   7.720  0.0923  0.1692  0.0414
  417loPI   C6A 6668   5.924  13.078   7.421  0.1172 -0.0832 -0.1167
  417loPI   C1B 6669   6.624  13.084   9.516 -0.1846 -0.0688  0.2674
  417loPI   C2B 6670   6.610  13.139   9.060  0.0915  0.3008  0.0189
  417loPI   C3B 6671   6.564  13.106   8.687 -0.0924  0.0677  0.1299
  417loPI   C4B 6672   6.578  13.193   8.240  0.3440 -0.1630 -0.2616
  418loPI    C1 6673  15.850   4.600  10.611  0.2554  0.0506 -0.0420
  418loPI    C2 6674  15.844   4.974  10.752 -0.0582  0.0798 -0.1247
  418loPI    C3 6675  15.875   4.666  11.005  0.0654  0.1553 -0.0462
  418loPI   PO4 6676  16.041   4.651  10.444 -0.1031  0.0562  0.0249
  418loPI   GL1 6677  16.135   4.411  10.025 -0.3948 -0.1889  0.1379
  418loPI   GL2 6678  15.831   4.639   9.938  0.0583  0.2681  0.2443
  418loPI   C1A 6679  16.123   4.246   9.681  0.2349 -0.1235 -0.3289
  418loPI   C2A 6680  16.096   4.233   9.239 -0.3124  0.0771  0.1551
  418loPI   C3A 6681  16.129   4.244   8.800 -0.0145  0.1973 -0.1014
  418loPI   C4A 6682  16.066   4.268   8.349 -0.0466 -0.0879  0.2878
  418loPI   C5A 6683  16.184   4.649   7.982 -0.1722  0.1362 -0.0350
  418loPI   C6A 6684  16.215   5.073   8.062  0.0178 -0.2743 -0.1678
  418loPI   C1B 6685  15.739   4.666   9.525  0.0834  0.0477  0.0547
  418loPI   C2B 6686  15.822   4.709   9.127  0.1065  0.2341 -0.2327
  418loPI   C3B 6687  15.783   4.614   8.726 -0.1186  0.2533 -0.2781
  418loPI   C4B 6688  15.785   4.675   8.300  0.0782  0.0245 -0.1034
  419loPI    C1 6689  14.450  17.143  10.963 -0.3579 -0.0985  0.1044
  419loPI    C2 6690  14.834  17.065  11.045 -0.2732  0.0708 -0.1182
  419loPI    C3 6691  14.604  17.247  11.317 -0.1673  0.0653 -0.0243
  419loPI   PO4 6692  14.463  17.007  10.736  0.2106 -0.3611  0.1396
  419loPI   GL1 6693  14.522  16.868  10.300 -0.1909 -0.1426 -0.1676
  419loPI   GL2 6694  14.547  16.520  10.189 -0.2718 -0.2403 -0.3181
  419loPI   C1A 6695  14.559  16.917   9.807  0.1564  0.2644 -0.0583
  419loPI   C2A 6696  14.653  16.963   9.380  0.1036 -0.0843  0.0276
  419loPI   C3A 6697  14.495  16.974   9.008  0.1165  0.2143  0.1642
  419loPI   C4A 6698  14.593  16.975   8.617 -0.1845 -0.2253 -0.0871
  419loPI   C5A 6699  14.382  17.127   8.332 -0.1652 -0.0231  0.2009
  419loPI   C6A 6700  14.191  17.563   8.316 -0.2639  0.1465 -0.1251
  419loPI   C1B 6701  14.400  16.367   9.799  0.0483 -0.0821  0.1914
  419loPI   C2B 6702  14.434  16.484   9.251 -0.2152  0.5099 -0.2392
  419loPI   C3B 6703  14.277  16.592   8.779  0.1695 -0.0471  0.0496
  419loPI   C4B 6704  14.227  16.598   8.311  0.0135 -0.0948  0.2118
  420loPI    C1 6705  17.085  10.038  11.047  0.0075 -0.1599 -0.2428
  420loPI    C2 6706  16.885   9.742  11.228  0.0347 -0.0721 -0.0674
  420loPI    C3 6707  17.125   9.982  11.441 -0.1460  0.2062 -0.1706
  420loPI   PO4 6708  17.115  10.043  10.855 -0.0831 -0.1189 -0.1561
  420loPI   GL1 6709  17.261   9.922  10.566  0.0783  0.1349 -0.0786
  420loPI   GL2 6710  17.516  10.133  10.554 -0.0546  0.0597  0.0008
  420loPI   C1A 6711  17.314   9.967  10.154 -0.1043 -0.0798  0.1598
  420loPI   C2A 6712  17.292   9.992   9.767 -0.2952  0.3229  0.0329
  420loPI   C3A 6713  17.273  10.082   9.282  0.1205  0.0747 -0.6069
  420loPI   C4A 6714  17.324  10.117   8.822  0.0728  0.0894  0.1696
  420loPI   C5A 6715  17.325  10.314   8.457  0.1087  0.0533  0.0279
  420loPI   C6A 6716  17.177  10.170   8.137  0.0113 -0.0477  0.0180
  420loPI   C1B 6717  17.768  10.150  10.269 -0.1194  0.1379 -0.0765
  420loPI   C2B 6718  17.786  10.110   9.851  0.0103 -0.0338  0.0393
  420loPI   C3B 6719  17.769  10.093   9.393 -0.1433  0.3236  0.0586
  420loPI   C4B 6720  17.840  10.181   8.994  0.1105  0.0054  0.0162
  421loPI    C1 6721   0.260   7.795  11.129  0.0615 -0.0943 -0.0206
  421loPI    C2 6722   0.509   8.108  11.130  0.0476 -0.0823 -0.1378
  421loPI    C3 6723   0.199   8.099  11.382  0.0149  0.0253 -0.1733
  421loPI   PO4 6724   0.283   7.657  10.861  0.4174  0.0930 -0.0018
  421loPI   GL1 6725   0.422   7.780  10.450  0.1938 -0.1839  0.1063
  421loPI   GL2 6726   0.427   8.076  10.629 -0.0538  0.1408 -0.0280
  421loPI   C1A 6727   0.394   7.839   9.921 -0.4404 -0.2962 -0.2139
  421loPI   C2A 6728   0.470   7.874   9.537 -0.0045  0.0416 -0.2124
  421loPI   C3A 6729   0.409   8.002   9.125 -0.5713  0.2715  0.0292
  421loPI   C4A 6730   0.441   7.897   8.735 -0.0096 -0.1506 -0.1202
  421loPI   C5A 6731   0.600   8.191   8.465  0.1464 -0.0865  0.1573
  421loPI   C6A 6732   0.733   8.654   8.378  0.1175  0.1332  0.0146
  421loPI   C1B 6733   0.526   8.275  10.317 -0.0185  0.0847  0.2207
  421loPI   C2B 6734   0.588   8.365   9.939  0.2552 -0.0467 -0.0636
  421loPI   C3B 6735   0.646   8.353   9.461 -0.0139 -0.2288 -0.0676
  421loPI   C4B 6736   0.647   8.433   8.933  0.0588  0.1496  0.0909
  422loPI    C1 6737  16.536   3.518  10.730  0.2879  0.2759 -0.0633
  422loPI    C2 6738  16.468   3.480  11.122  0.2956 -0.0530 -0.0909
  422loPI    C3 6739  16.733   3.750  10.990  0.1088  0.2351  0.1103
  422loPI   PO4 6740  16.585   3.238  10.681  0.1521  0.1192 -0.0241
  422loPI   GL1 6741  16.613   3.236  10.259  0.2090 -0.2563  0.0668
  422loPI   GL2 6742  16.637   2.861  10.197 -0.0979 -0.0075  0.2804
  422loPI   C1A 6743  16.303   3.417   9.962 -0.2264  0.1027  0.4573
  422loPI   C2A 6744  16.363   3.360   9.488 -0.0130  0.0234 -0.2238
  422loPI   C3A 6745  16.270   3.310   9.138 -0.1024  0.3088  0.3254
  422loPI   C4A 6746  16.234   3.388   8.666 -0.0941 -0.2613 -0.0114
  422loPI   C5A 6747  16.088   3.337   8.281 -0.0915 -0.2210 -0.2172
  422loPI   C6A 6748  15.665   3.191   8.040  0.1806 -0.0156  0.2654
  422loPI   C1B 6749  16.554   2.987   9.742  0.1944  0.2337  0.2249
  422loPI   C2B 6750  16.583   2.903   9.308 -0.2841  0.0683  0.2260
  422loPI   C3B 6751  16.601   2.914   8.881 -0.2957 -0.0783  0.1028
  422loPI   C4B 6752  16.470   2.970   8.370 -0.0733 -0.0552  0.2478
  423loPI    C1 6753  15.329   7.272  10.752 -0.1483 -0.0771  0.0653
  423loPI    C2 6754  15.176   6.978  10.977 -0.2943  0.0350  0.1143
  423loPI    C3 6755  15.251   7.336  11.139  0.0246 -0.0184  0.0912
  423loPI   PO4 6756  15.176   7.462  10.563  0.0071 -0.1678 -0.1271
  423loPI   GL1 6757  15.226   7.359  10.165 -0.1461  0.3662  0.1320
  423loPI   GL2 6758  14.910   7.312  10.227  0.2772 -0.2137  0.1621
  423loPI   C1A 6759  15.156   7.304   9.662 -0.2823  0.1048 -0.1484
  423loPI   C2A 6760  15.264   7.336   9.225 -0.1659 -0.2480 -0.0436
  423loPI   C3A 6761  15.363   7.344   8.842  0.0189  0.2145 -0.3196
  423loPI   C4A 6762  15.339   7.119   8.520  0.0209 -0.2075  0.3003
  423loPI   C5A 6763  14.944   7.011   8.192 -0.1565 -0.1217 -0.1254
  423loPI   C6A 6764  14.616   7.138   8.050  0.0106 -0.1072 -0.1269
  423loPI   C1B 6765  14.664   7.316   9.899 -0.0450 -0.2106  0.2191
  423loPI   C2B 6766  14.701   7.225   9.551  0.2575 -0.0093  0.1020
  423loPI   C3B 6767  14.750   7.273   9.115  0.0336  0.2637  0.1296
  423loPI   C4B 6768  14.876   7.257   8.583  0.0869  0.3091 -0.1583
  424loPI    C1 6769   1.518   7.973  11.171  0.2725 -0.0012 -0.0378
  424loPI    C2 6770   1.407   7.676  11.416 -0.1008  0.0504 -0.1373
  424loPI    C3 6771   1.519   8.029  11.567  0.1100 -0.0609 -0.0281
  424loPI   PO4 6772   1.351   7.851  10.862  0.2233 -0.0280  0.1089
  424loPI   GL1 6773   1.443   7.995  10.465 -0.2336 -0.0538  0.1614
  424loPI   GL2 6774   1.692   8.120  10.484  0.1683 -0.1938  0.1342
  424loPI   C1A 6775   1.461   8.020   9.949 -0.1463 -0.1028  0.2090
  424loPI   C2A 6776   1.420   8.089   9.510 -0.2717  0.2233  0.0877
  424loPI   C3A 6777   1.547   8.105   9.043  0.1948  0.0768 -0.2293
  424loPI   C4A 6778   1.442   8.231   8.615 -0.1086  0.1795  0.2138
  424loPI   C5A 6779   1.735   8.433   8.384  0.0920 -0.0965 -0.1309
  424loPI   C6A 6780   1.797   8.738   8.037 -0.2309 -0.1109 -0.1949
  424loPI   C1B 6781   1.520   8.421  10.186  0.1441 -0.0852  0.2653
  424loPI   C2B 6782   1.570   8.554   9.764  0.1854 -0.1502  0.1573
  424loPI   C3B 6783   1.690   8.569   9.337  0.0750 -0.1059 -0.1882
  424loPI   C4B 6784   1.708   8.573   8.879  0.4329  0.3428  0.1411
  425loPI    C1 6785   6.547   3.582  10.681  0.2985 -0.4121 -0.0741
  425loPI    C2 6786   6.513   3.613  11.078 -0.0313  0.1338 -0.1335
  425loPI    C3 6787   6.781   3.836  10.882 -0.0414  0.0502 -0.2434
  425loPI   PO4 6788   6.293   3.598  10.609 -0.1352 -0.0162  0.2073
  425loPI   GL1 6789   6.255   3.757  10.239  0.0938 -0.0551  0.0100
  425loPI   GL2 6790   6.428   3.534  10.120 -0.0142  0.0347  0.3452
  425loPI   C1A 6791   6.257   3.898   9.793  0.0767 -0.0859 -0.2017
  425loPI   C2A 6792   6.154   3.956   9.385  0.1509  0.0603 -0.2331
  425loPI   C3A 6793   6.197   3.923   8.940  0.1307  0.0966  0.1501
  425loPI   C4A 6794   6.173   3.820   8.475  0.2683  0.1270  0.2346
  425loPI   C5A 6795   6.077   3.680   8.061  0.0049  0.0161 -0.0297
  425loPI   C6A 6796   5.861   3.832   7.761 -0.0240  0.4696  0.3952
  425loPI   C1B 6797   6.520   3.469   9.645  0.2456  0.3237  0.1613
  425loPI   C2B 6798   6.593   3.455   9.224 -0.0183  0.0443  0.0848
  425loPI   C3B 6799   6.498   3.368   8.772  0.4581 -0.2154 -0.2324
  425loPI   C4B 6800   6.536   3.467   8.332 -0.0008 -0.0490  0.3533
  426loPI    C1 6801   1.798  11.398  10.799 -0.0064 -0.0324 -0.0487
  426loPI    C2 6802   1.680  11.643  11.092  0.0889  0.0609 -0.0873
  426loPI    C3 6803   1.624  11.248  11.126  0.2209  0.0579  0.1168
  426loPI   PO4 6804   2.040  11.371  10.705 -0.0599  0.0123  0.0283
  426loPI   GL1 6805   2.245  11.531  10.402 -0.0898 -0.0422 -0.0236
  426loPI   GL2 6806   2.567  11.425  10.493  0.1933  0.0290  0.1358
  426loPI   C1A 6807   2.256  11.572   9.936  0.1060  0.3260 -0.2663
  426loPI   C2A 6808   2.290  11.587   9.501  0.0662  0.1012 -0.1929
  426loPI   C3A 6809   2.214  11.449   9.105  0.0572 -0.1577  0.0331
  426loPI   C4A 6810   2.168  11.424   8.731 -0.3120 -0.1524  0.0846
  426loPI   C5A 6811   2.270  11.324   8.381  0.0483 -0.1399 -0.0458
  426loPI   C6A 6812   2.582  11.529   8.125  0.1139  0.0131 -0.1798
  426loPI   C1B 6813   2.773  11.593  10.127 -0.0035  0.0406  0.1576
  426loPI   C2B 6814   2.798  11.626   9.671 -0.1009 -0.0123  0.2598
  426loPI   C3B 6815   2.773  11.584   9.145  0.2424 -0.1039 -0.0868
  426loPI   C4B 6816   2.859  11.642   8.783  0.0726  0.3404  0.2656
  427loPI    C1 6817  12.184  11.107  10.883 -0.2017  0.0456 -0.2687
  427loPI    C2 6818  12.252  11.487  10.990  0.0268 -0.0553 -0.0439
  427loPI    C3 6819  12.556  11.228  10.965 -0.1040 -0.1840 -0.3653
  427loPI   PO4 6820  12.052  11.150  10.593  0.2481  0.0694 -0.0396
  427loPI   GL1 6821  12.129  11.268  10.130 -0.0833  0.0220 -0.0872
  427loPI   GL2 6822  12.289  11.514   9.953 -0.0697 -0.1132  0.0406
  427loPI   C1A 6823  12.227  11.065   9.742 -0.0834  0.0627 -0.1409
  427loPI   C2A 6824  12.339  11.103   9.362 -0.0455  0.2446  0.1286
  427loPI   C3A 6825  12.390  10.992   9.009 -0.3057  0.0270 -0.0118
  427loPI   C4A 6826  12.354  10.829   8.631  0.1592  0.1472 -0.0234
  427loPI   C5A 6827  12.276  10.948   8.212 -0.2175  0.0745 -0.0924
  427loPI   C6A 6828  12.242  10.904   7.746 -0.0497  0.1572  0.0968
  427loPI   C1B 6829  12.444  11.602   9.498  0.0553 -0.1259  0.1458
  427loPI   C2B 6830  12.497  11.481   9.080 -0.1442  0.0339 -0.3572
  427loPI   C3B 6831  12.588  11.395   8.708  0.2644 -0.0917 -0.0977
  427loPI   C4B 6832  12.562  11.323   8.350 -0.2495  0.4165 -0.0141
  428loPI    C1 6833  14.907  17.645  11.299  0.0953  0.0793  0.0806
  428loPI    C2 6834  14.718  17.997  11.316  0.0023  0.0389 -0.0876
  428loPI    C3 6835  15.077  17.954  11.488 -0.0130  0.1977 -0.0141
  428loPI   PO4 6836  14.820  17.553  10.946 -0.1192 -0.1456 -0.0629
  428loPI   GL1 6837  14.795  17.329  10.585  0.1310  0.0901  0.0531
  428loPI   GL2 6838  14.991  17.101  10.546 -0.0950  0.3343  0.0600
  428loPI   C1A 6839  14.794  17.474  10.211  0.3965 -0.0070  0.2220
  428loPI   C2A 6840  14.767  17.459   9.819  0.0368 -0.1324 -0.2420
  428loPI   C3A 6841  14.785  17.432   9.459 -0.0346 -0.0932 -0.0339
  428loPI   C4A 6842  14.668  17.410   9.121  0.1313 -0.0947 -0.0225
  428loPI   C5A 6843  14.667  17.464   8.687 -0.0026  0.2883  0.0273
  428loPI   C6A 6844  14.800  17.792   8.338  0.0490 -0.0870 -0.0483
  428loPI   C1B 6845  14.945  17.042  10.062  0.2444 -0.4229  0.0093
  428loPI   C2B 6846  15.095  16.938   9.711  0.0675 -0.1932 -0.1955
  428loPI   C3B 6847  15.108  17.078   9.304 -0.4554 -0.1536  0.0272
  428loPI   C4B 6848  14.999  17.110   8.901 -0.0137 -0.1803 -0.0108
  429loPI    C1 6849   1.117   6.449  10.758 -0.0023  0.1135 -0.0559
  429loPI    C2 6850   0.731   6.438  10.864  0.0028  0.1364 -0.0350
  429loPI    C3 6851   1.001   6.606  11.107  0.1008 -0.3153  0.1791
  429loPI   PO4 6852   1.076   6.373  10.454 -0.1085  0.3012 -0.1373
  429loPI   GL1 6853   1.308   6.293  10.121 -0.2170  0.2076 -0.1329
  429loPI   GL2 6854   1.484   6.634   9.920  0.2004 -0.0973 -0.1453
  429loPI   C1A 6855   1.277   6.279   9.702  0.1340  0.0749  0.3223
  429loPI   C2A 6856   1.358   6.192   9.212  0.0370  0.1797 -0.0205
  429loPI   C3A 6857   1.178   6.249   8.769 -0.3908 -0.2805  0.2020
  429loPI   C4A 6858   1.211   6.286   8.377  0.0007 -0.1940  0.0980
  429loPI   C5A 6859   1.287   6.498   8.051 -0.1999 -0.1461 -0.2757
  429loPI   C6A 6860   1.142   6.476   7.629  0.0164 -0.2359 -0.4954
  429loPI   C1B 6861   1.399   6.721   9.486  0.0299  0.3419  0.2350
  429loPI   C2B 6862   1.466   6.680   9.060  0.0063 -0.2345 -0.0566
  429loPI   C3B 6863   1.386   6.848   8.700 -0.0175  0.2749  0.1224
  429loPI   C4B 6864   1.413   6.916   8.321  0.0721  0.0685 -0.1003
  430loPI    C1 6865   6.555   2.234  11.204 -0.1795 -0.1794 -0.0151
  430loPI    C2 6866   6.824   1.949  11.282 -0.0199 -0.0406 -0.0530
  430loPI    C3 6867   6.790   2.263  11.527  0.0030  0.0500 -0.1651
  430loPI   PO4 6868   6.619   2.209  10.802 -0.5434 -0.1789 -0.2435
  430loPI   GL1 6869   6.844   2.283  10.454 -0.0643 -0.2597  0.1589
  430loPI   GL2 6870   7.177   2.237  10.463  0.0287  0.3886 -0.1460
  430loPI   C1A 6871   6.648   2.668  10.197 -0.0846  0.2187  0.0992
  430loPI   C2A 6872   6.675   2.657   9.815  0.0265 -0.0151 -0.1023
  430loPI   C3A 6873   6.708   2.621   9.315  0.0727 -0.0321  0.0660
  430loPI   C4A 6874   6.650   2.537   8.980  0.0247  0.2972  0.0438
  430loPI   C5A 6875   6.650   2.416   8.580  0.0439 -0.1060  0.2283
  430loPI   C6A 6876   6.549   1.974   8.391 -0.4615  0.3300  0.0039
  430loPI   C1B 6877   7.023   2.253   9.992 -0.0667  0.0168  0.2486
  430loPI   C2B 6878   7.114   2.131   9.594 -0.2188  0.1321  0.0161
  430loPI   C3B 6879   6.930   2.158   9.177  0.1187  0.0051  0.3570
  430loPI   C4B 6880   6.997   2.192   8.865  0.0109  0.0152  0.2506
  431loPI    C1 6881   8.117  14.945  10.383 -0.1486 -0.1382  0.0061
  431loPI    C2 6882   7.838  14.671  10.301 -0.1900 -0.0954  0.0043
  431loPI    C3 6883   7.796  14.911  10.619 -0.2691  0.0652 -0.1259
  431loPI   PO4 6884   8.118  15.085  10.200 -0.2322 -0.2383  0.3678
  431loPI   GL1 6885   7.937  14.880   9.845 -0.2307 -0.0595 -0.2292
  431loPI   GL2 6886   8.049  15.098   9.607  0.1480 -0.0641 -0.1411
  431loPI   C1A 6887   7.434  14.812   9.688  0.0855  0.0178 -0.0726
  431loPI   C2A 6888   7.160  14.842   9.355  0.0885 -0.2130  0.1023
  431loPI   C3A 6889   7.046  14.963   8.925 -0.1647 -0.1239  0.1816
  431loPI   C4A 6890   6.991  14.893   8.485  0.0264  0.1959  0.0391
  431loPI   C5A 6891   7.350  15.146   8.206 -0.3106 -0.0563  0.0327
  431loPI   C6A 6892   7.583  15.244   7.851 -0.0181  0.1710  0.0937
  431loPI   C1B 6893   8.066  15.019   9.192  0.0172  0.0671 -0.1742
  431loPI   C2B 6894   8.149  15.143   8.787 -0.0181 -0.1197  0.0569
  431loPI   C3B 6895   8.305  14.929   8.414  0.1465  0.1614 -0.2004
  431loPI   C4B 6896   8.384  14.681   8.136 -0.0676  0.1327  0.2901
  432loPI    C1 6897   6.251   5.382  10.954  0.2400  0.0910  0.2220
  432loPI    C2 6898   6.503   5.369  11.264  0.1536 -0.0198  0.2883
  432loPI    C3 6899   6.114   5.295  11.319  0.1072  0.1430  0.1852
  432loPI   PO4 6900   6.342   5.213  10.786  0.0475 -0.0988 -0.0525
  432loPI   GL1 6901   6.512   4.881  10.564  0.0290 -0.1564  0.0285
  432loPI   GL2 6902   6.299   4.579  10.718  0.0130  0.1993 -0.0138
  432loPI   C1A 6903   6.655   4.844  10.152 -0.1957 -0.4165  0.1269
  432loPI   C2A 6904   6.673   4.892   9.773  0.1028 -0.0779 -0.3614
  432loPI   C3A 6905   6.639   4.834   9.340 -0.0731  0.0748  0.0533
  432loPI   C4A 6906   6.554   4.811   8.936  0.1864 -0.1057 -0.0255
  432loPI   C5A 6907   6.563   4.797   8.482  0.2994 -0.2963 -0.3010
  432loPI   C6A 6908   6.364   5.117   8.224 -0.1045  0.3659  0.1555
  432loPI   C1B 6909   6.318   4.501  10.275  0.0947  0.1762 -0.0470
  432loPI   C2B 6910   6.462   4.429   9.844  0.3219 -0.1175  0.0469
  432loPI   C3B 6911   6.505   4.377   9.350 -0.2276 -0.0781  0.3269
  432loPI   C4B 6912   6.320   4.331   9.065 -0.0311 -0.0735  0.3780
  433loPI    C1 6913  13.503   6.443  10.898  0.0075 -0.0296  0.0862
  433loPI    C2 6914  13.846   6.371  11.091  0.0397  0.1807  0.1089
  433loPI    C3 6915  13.509   6.436  11.298 -0.0556 -0.2121  0.0851
  433loPI   PO4 6916  13.421   6.274  10.701  0.0167  0.0923  0.0869
  433loPI   GL1 6917  13.494   6.101  10.316 -0.2552 -0.1755  0.0898
  433loPI   GL2 6918  13.195   5.920  10.117 -0.3585  0.0766 -0.2153
  433loPI   C1A 6919  13.733   6.080   9.946 -0.2656  0.0677  0.3429
  433loPI   C2A 6920  13.796   6.207   9.508 -0.1238 -0.0999  0.4048
  433loPI   C3A 6921  13.939   6.171   9.063 -0.0399  0.0210 -0.2407
  433loPI   C4A 6922  14.073   6.084   8.561 -0.0125 -0.0389  0.1344
  433loPI   C5A 6923  14.461   6.144   8.274 -0.2973  0.1077 -0.0891
  433loPI   C6A 6924  14.498   6.076   7.807  0.2170 -0.0781 -0.0797
  433loPI   C1B 6925  13.351   5.974   9.658 -0.2155 -0.0504  0.2093
  433loPI   C2B 6926  13.389   6.003   9.243 -0.1560 -0.2272  0.1746
  433loPI   C3B 6927  13.289   6.101   8.762  0.0666  0.1580 -0.1112
  433loPI   C4B 6928  13.274   5.928   8.345  0.1183  0.0250 -0.0028
  434loPI    C1 6929   2.036   2.733  10.850  0.2365 -0.3268  0.1495
  434loPI    C2 6930   1.652   2.815  10.929  0.2152 -0.1259 -0.1463
  434loPI    C3 6931   1.856   2.565  11.166 -0.1094 -0.2693 -0.0120
  434loPI   PO4 6932   2.048   2.643  10.554 -0.2746  0.0121 -0.1490
  434loPI   GL1 6933   2.201   2.790  10.229  0.0010 -0.0336  0.2674
  434loPI   GL2 6934   1.957   2.723  10.033  0.5611 -0.1180 -0.1099
  434loPI   C1A 6935   2.353   2.600   9.812 -0.3222 -0.0616  0.2157
  434loPI   C2A 6936   2.401   2.601   9.397 -0.1758 -0.3606 -0.3022
  434loPI   C3A 6937   2.319   2.619   9.037  0.0421 -0.0319 -0.1317
  434loPI   C4A 6938   2.351   2.732   8.587 -0.1136  0.1283  0.2922
  434loPI   C5A 6939   2.231   2.892   8.226  0.0777 -0.0387 -0.0082
  434loPI   C6A 6940   2.237   2.616   7.886 -0.0587 -0.2157  0.1274
  434loPI   C1B 6941   1.838   2.577   9.644 -0.1991  0.2288 -0.1685
  434loPI   C2B 6942   1.777   2.590   9.257  0.0733  0.1212  0.1148
  434loPI   C3B 6943   1.825   2.676   8.826  0.2955  0.0486 -0.2765
  434loPI   C4B 6944   1.815   2.697   8.364  0.0754 -0.0832 -0.0145
  435loPI    C1 6945  13.908  13.888  11.172  0.1364 -0.0632  0.1631
  435loPI    C2 6946  14.116  14.196  11.319  0.1180  0.0203  0.0159
  435loPI    C3 6947  14.139  13.837  11.495  0.4234  0.0167 -0.0271
  435loPI   PO4 6948  13.847  13.975  10.849  0.0394 -0.2409 -0.1327
  435loPI   GL1 6949  13.801  13.800  10.517 -0.0171  0.0976 -0.0580
  435loPI   GL2 6950  14.219  13.607  10.353  0.1016 -0.0897 -0.1641
  435loPI   C1A 6951  13.875  14.028  10.068 -0.4082 -0.0437  0.2498
  435loPI   C2A 6952  13.930  14.147   9.600  0.2724  0.3453 -0.0133
  435loPI   C3A 6953  13.910  14.051   9.196 -0.2556 -0.1202 -0.0215
  435loPI   C4A 6954  14.022  14.069   8.782  0.1025 -0.1215 -0.0372
  435loPI   C5A 6955  13.825  13.960   8.380  0.2644 -0.1812  0.0457
  435loPI   C6A 6956  13.548  14.181   8.139  0.0851 -0.0467 -0.1004
  435loPI   C1B 6957  14.194  13.741   9.799  0.0594 -0.0240 -0.1194
  435loPI   C2B 6958  14.161  13.619   9.320 -0.1013 -0.2679  0.1195
  435loPI   C3B 6959  14.194  13.618   8.846 -0.2215  0.1450 -0.0102
  435loPI   C4B 6960  14.258  13.548   8.384 -0.0736 -0.0581 -0.2200
  436loPI    C1 6961  10.086   5.638  11.319 -0.0175  0.0623  0.0653
  436loPI    C2 6962  10.250   5.296  11.446  0.0277  0.0561 -0.0090
  436loPI    C3 6963  10.345   5.642  11.623  0.0549  0.0419  0.0043
  436loPI   PO4 6964  10.011   5.497  11.056 -0.2139 -0.0481 -0.0091
  436loPI   GL1 6965   9.928   5.460  10.652 -0.0785  0.0494  0.2190
  436loPI   GL2 6966   9.632   5.481  10.526  0.1753 -0.1340  0.0233
  436loPI   C1A 6967  10.111   5.491  10.093 -0.3737 -0.1151 -0.0724
  436loPI   C2A 6968  10.166   5.497   9.587 -0.3544  0.1683  0.1910
  436loPI   C3A 6969  10.110   5.574   9.173 -0.1643  0.3028  0.5000
  436loPI   C4A 6970  10.185   5.610   8.759 -0.2204  0.0985 -0.0853
  436loPI   C5A 6971  10.073   5.726   8.362 -0.1824 -0.2294  0.3056
  436loPI   C6A 6972  10.250   5.660   7.987  0.1271  0.2457 -0.3207
  436loPI   C1B 6973   9.587   5.397  10.135  0.2328  0.0439  0.1377
  436loPI   C2B 6974   9.596   5.395   9.718  0.2064  0.0374 -0.0765
  436loPI   C3B 6975   9.622   5.486   9.296  0.2851 -0.0617  0.1056
  436loPI   C4B 6976   9.660   5.503   8.817 -0.0077  0.2386  0.0111
  437loPI    C1 6977  10.081  10.657  10.773 -0.1295 -0.1335  0.0157
  437loPI    C2 6978  10.159  10.696  11.164 -0.0564  0.0132 -0.0129
  437loPI    C3 6979   9.895  10.939  10.987 -0.0890 -0.0526 -0.0551
  437loPI   PO4 6980  10.310  10.632  10.674  0.0196  0.2117  0.2756
  437loPI   GL1 6981  10.171  10.571  10.236 -0.1566 -0.0537  0.0460
  437loPI   GL2 6982  10.243  10.553  10.009 -0.2196  0.2073  0.0423
  437loPI   C1A 6983   9.900  10.863  10.081  0.1991 -0.0805  0.0528
  437loPI   C2A 6984   9.692  10.992   9.748  0.0115  0.2428  0.0575
  437loPI   C3A 6985   9.822  10.959   9.301  0.3066  0.4318 -0.1327
  437loPI   C4A 6986   9.878  10.940   8.838  0.2980  0.1476  0.0646
  437loPI   C5A 6987   9.886  10.939   8.395  0.1576  0.2486  0.1256
  437loPI   C6A 6988  10.150  10.771   8.007 -0.0676 -0.3427  0.0881
  437loPI   C1B 6989  10.051  10.639   9.634  0.1889  0.3085 -0.0266
  437loPI   C2B 6990  10.121  10.523   9.264  0.1351 -0.1734  0.1651
  437loPI   C3B 6991  10.196  10.583   8.809  0.0966  0.3677  0.1291
  437loPI   C4B 6992  10.296  10.501   8.390 -0.1344 -0.2127  0.2088
  438loPI    C1 6993   8.964   1.703  10.739 -0.1775  0.2369  0.0271
  438loPI    C2 6994   9.079   1.621  11.113 -0.0994  0.2932  0.0155
  438loPI    C3 6995   8.738   1.467  10.971  0.1110 -0.1258 -0.0518
  438loPI   PO4 6996   9.099   1.628  10.606  0.0817 -0.2301 -0.0340
  438loPI   GL1 6997   9.043   1.577  10.212 -0.0536 -0.1031 -0.1879
  438loPI   GL2 6998   8.672   1.618  10.008  0.3942  0.4375  0.0115
  438loPI   C1A 6999   9.281   1.705   9.872 -0.0737  0.0600  0.0700
  438loPI   C2A 7000   9.338   1.741   9.484  0.0806 -0.2105  0.1954
  438loPI   C3A 7001   9.286   1.772   9.066 -0.1926 -0.0786 -0.1491
  438loPI   C4A 7002   9.165   1.794   8.630  0.0351 -0.0414  0.0081
  438loPI   C5A 7003   8.855   1.912   8.416  0.0919 -0.2227  0.2420
  438loPI   C6A 7004   8.649   2.128   8.254  0.0394 -0.0572  0.0483
  438loPI   C1B 7005   8.739   1.674   9.667  0.0220  0.3142 -0.0687
  438loPI   C2B 7006   8.586   1.591   9.198  0.1813 -0.0470 -0.0084
  438loPI   C3B 7007   8.743   1.627   8.829  0.1704 -0.5478  0.1431
  438loPI   C4B 7008   8.758   1.441   8.334 -0.3885 -0.2311 -0.1447
  439loPI    C1 7009   7.085  11.893  10.523  0.1699 -0.0444  0.1248
  439loPI    C2 7010   6.967  11.523  10.426  0.1132  0.0276 -0.0864
  439loPI    C3 7011   6.896  11.666  10.793 -0.0885 -0.0798 -0.0824
  439loPI   PO4 7012   6.977  12.014  10.298  0.3889  0.0417  0.0472
  439loPI   GL1 7013   6.594  11.977  10.001 -0.2972  0.1278  0.1187
  439loPI   GL2 7014   6.781  12.151   9.798 -0.0659 -0.0633  0.0717
  439loPI   C1A 7015   6.366  11.796   9.801 -0.0121  0.4138 -0.1801
  439loPI   C2A 7016   6.266  11.782   9.386 -0.3215  0.0557  0.1163
  439loPI   C3A 7017   6.358  11.651   9.008  0.3495 -0.0593 -0.2763
  439loPI   C4A 7018   6.551  11.391   8.686  0.1330 -0.0956 -0.0858
  439loPI   C5A 7019   6.205  11.432   8.357  0.1177 -0.0740  0.0714
  439loPI   C6A 7020   6.039  11.706   8.097  0.0301  0.2903  0.2838
  439loPI   C1B 7021   6.701  12.106   9.354 -0.0727 -0.1118 -0.1739
  439loPI   C2B 7022   6.610  12.045   8.929  0.0429 -0.3156  0.0653
  439loPI   C3B 7023   6.710  11.866   8.493 -0.0152  0.3007  0.1001
  439loPI   C4B 7024   6.512  11.859   8.201 -0.2389 -0.1618  0.4821
  440loPI    C1 7025   1.822   6.814  10.784 -0.2009  0.0500 -0.1337
  440loPI    C2 7026   1.493   6.724  10.993 -0.1398  0.2776  0.0652
  440loPI    C3 7027   1.852   6.603  11.122 -0.1462 -0.0144 -0.1785
  440loPI   PO4 7028   1.810   6.977  10.655 -0.2222  0.3490  0.1906
  440loPI   GL1 7029   1.662   7.105  10.261  0.2737 -0.0645 -0.2144
  440loPI   GL2 7030   1.561   7.430  10.376 -0.2914  0.1387 -0.1545
  440loPI   C1A 7031   1.633   7.165   9.873  0.0649  0.0607 -0.2416
  440loPI   C2A 7032   1.551   7.250   9.447 -0.0095  0.3255 -0.0644
  440loPI   C3A 7033   1.687   7.264   9.123 -0.1866 -0.0472  0.0430
  440loPI   C4A 7034   1.659   7.291   8.640 -0.2465  0.1560  0.1837
  440loPI   C5A 7035   1.482   7.484   8.357  0.0649  0.2261 -0.0970
  440loPI   C6A 7036   1.238   7.763   8.146 -0.1056  0.1725  0.3730
  440loPI   C1B 7037   1.335   7.532  10.076 -0.4809  0.1582 -0.2572
  440loPI   C2B 7038   1.282   7.664   9.576  0.1128  0.2101 -0.2634
  440loPI   C3B 7039   1.234   7.562   9.130 -0.1354  0.0210 -0.1034
  440loPI   C4B 7040   1.397   7.663   8.860 -0.2828  0.3046 -0.0722
  441loPI    C1 7041  14.598   1.025  10.922 -0.1082  0.0550  0.0903
  441loPI    C2 7042  14.677   1.361  11.124 -0.4124  0.0688  0.1912
  441loPI    C3 7043  14.794   1.008  11.270  0.0174  0.1357  0.0245
  441loPI   PO4 7044  14.675   1.085  10.700  0.2463 -0.4964 -0.2573
  441loPI   GL1 7045  14.727   0.698  10.444 -0.0014 -0.1083 -0.2945
  441loPI   GL2 7046  14.910   0.439  10.397  0.0229  0.3007  0.0060
  441loPI   C1A 7047  14.739   0.841   9.986 -0.0805  0.3683 -0.0803
  441loPI   C2A 7048  14.822   0.814   9.515 -0.0016 -0.1709  0.3089
  441loPI   C3A 7049  14.868   0.836   9.100 -0.0128 -0.2119 -0.0598
  441loPI   C4A 7050  14.775   0.808   8.610 -0.0342  0.1471  0.0417
  441loPI   C5A 7051  14.850   1.046   8.166  0.1566  0.2084 -0.2027
  441loPI   C6A 7052  15.003   1.415   8.047  0.2763 -0.0572  0.1875
  441loPI   C1B 7053  15.052   0.459   9.967  0.1651  0.0695  0.1451
  441loPI   C2B 7054  15.189   0.406   9.581  0.4413 -0.1836 -0.0892
  441loPI   C3B 7055  15.178   0.395   9.161  0.0192  0.3932  0.0152
  441loPI   C4B 7056  15.174   0.524   8.773 -0.1062 -0.1537 -0.0481
  442loPI    C1 7057  17.724  11.865  10.922 -0.0643 -0.1738  0.2344
  442loPI    C2 7058  17.697  11.665  11.267 -0.0117 -0.0540  0.3088
  442loPI    C3 7059  17.927  11.991  11.243  0.0234 -0.0896  0.1468
  442loPI   PO4 7060  17.597  11.785  10.746 -0.2620 -0.0364  0.2103
  442loPI   GL1 7061  17.605  11.774  10.363 -0.1249  0.0820 -0.1462
  442loPI   GL2 7062  17.832  11.564  10.399 -0.1264 -0.1736 -0.3189
  442loPI   C1A 7063  17.439  11.727  10.065  0.1670  0.0014 -0.2119
  442loPI   C2A 7064  17.345  11.753   9.646 -0.1301 -0.0840  0.2063
  442loPI   C3A 7065  17.473  11.809   9.260 -0.1664 -0.1288 -0.3114
  442loPI   C4A 7066  17.433  11.897   8.877  0.2160  0.0135 -0.0992
  442loPI   C5A 7067  17.393  12.064   8.491  0.0538 -0.1290 -0.3385
  442loPI   C6A 7068  17.023  12.192   8.203  0.1442 -0.0428 -0.1318
  442loPI   C1B 7069  17.793  11.346  10.162  0.0282  0.0055  0.4721
  442loPI   C2B 7070  17.660  11.392   9.731 -0.2247 -0.1184 -0.1209
  442loPI   C3B 7071  17.849  11.431   9.281 -0.1997 -0.0643  0.0879
  442loPI   C4B 7072  17.893  11.476   8.861  0.0117  0.1856  0.2686
  443loPI    C1 7073   5.700   7.184  10.514 -0.0048 -0.1367 -0.0749
  443loPI    C2 7074   5.904   6.889  10.691 -0.1212 -0.0981  0.1272
  443loPI    C3 7075   5.676   7.134  10.911 -0.0787  0.1011 -0.0476
  443loPI   PO4 7076   5.623   7.022  10.281  0.2976 -0.1407  0.1703
  443loPI   GL1 7077   5.593   6.845   9.989 -0.4432  0.2636  0.0438
  443loPI   GL2 7078   5.836   6.622   9.859 -0.1904  0.0125  0.1491
  443loPI   C1A 7079   5.489   6.974   9.599  0.3260 -0.4999  0.0787
  443loPI   C2A 7080   5.475   6.950   9.094 -0.0668 -0.1248 -0.0023
  443loPI   C3A 7081   5.319   6.899   8.766  0.1272  0.0218  0.3347
  443loPI   C4A 7082   5.300   7.033   8.307 -0.1106  0.1401 -0.1266
  443loPI   C5A 7083   5.162   7.038   7.822 -0.2026  0.3335 -0.3031
  443loPI   C6A 7084   4.696   7.081   7.782  0.0968  0.0579 -0.2376
  443loPI   C1B 7085   5.847   6.518   9.416  0.1710  0.0650 -0.0337
  443loPI   C2B 7086   5.745   6.510   8.974 -0.1571 -0.0764  0.2004
  443loPI   C3B 7087   5.610   6.517   8.520 -0.0731 -0.0368 -0.0725
  443loPI   C4B 7088   5.382   6.630   8.100 -0.1888  0.0063 -0.1925
  444loPI    C1 7089   1.055   8.068  11.358  0.1508 -0.0745  0.1540
  444loPI    C2 7090   0.737   8.023  11.596  0.0975 -0.1272  0.0734
  444loPI    C3 7091   0.906   7.703  11.425  0.0617 -0.0779 -0.0551
  444loPI   PO4 7092   1.078   8.212  11.067 -0.0018 -0.1377  0.2278
  444loPI   GL1 7093   0.995   8.193  10.649  0.1936 -0.0456 -0.0640
  444loPI   GL2 7094   1.049   8.477  10.520 -0.0974  0.1298 -0.3560
  444loPI   C1A 7095   0.969   7.941  10.192 -0.3950 -0.2361 -0.0232
  444loPI   C2A 7096   0.916   8.030   9.758  0.1051 -0.2444  0.0322
  444loPI   C3A 7097   0.956   8.000   9.325 -0.2868 -0.1205  0.2094
  444loPI   C4A 7098   0.890   7.979   9.036 -0.3246  0.0171 -0.1144
  444loPI   C5A 7099   1.014   7.917   8.594  0.1512  0.0892 -0.0113
  444loPI   C6A 7100   1.068   8.266   8.311  0.0137  0.2577  0.3439
  444loPI   C1B 7101   1.045   8.440  10.013  0.0295  0.0583  0.0276
  444loPI   C2B 7102   1.109   8.457   9.652 -0.1790  0.0733  0.3400
  444loPI   C3B 7103   1.213   8.428   9.171 -0.0135 -0.0626  0.3512
  444loPI   C4B 7104   1.119   8.554   8.770 -0.0744  0.0837  0.3476
  445loPI    C1 7105  13.506   0.862  10.757  0.1032 -0.1782 -0.1881
  445loPI    C2 7106  13.183   0.761  10.543  0.0151 -0.0343 -0.1243
  445loPI    C3 7107  13.143   0.980  10.876  0.1869  0.0621 -0.1653
  445loPI   PO4 7108  13.720   0.946  10.515 -0.1815 -0.3146 -0.0378
  445loPI   GL1 7109  13.762   1.040  10.082  0.3219  0.1516 -0.2899
  445loPI   GL2 7110  13.432   1.015  10.146  0.2842  0.2815  0.0756
  445loPI   C1A 7111  13.863   1.024   9.695  0.3602 -0.1662 -0.1661
  445loPI   C2A 7112  13.889   1.092   9.283 -0.2581  0.4723 -0.2285
  445loPI   C3A 7113  13.973   1.136   8.858  0.1467  0.2203 -0.0862
  445loPI   C4A 7114  13.957   1.137   8.389 -0.0382 -0.0679  0.0719
  445loPI   C5A 7115  13.733   1.243   8.049  0.1432  0.1140  0.0262
  445loPI   C6A 7116  13.834   1.052   7.589 -0.1027  0.0348  0.0871
  445loPI   C1B 7117  13.372   0.978   9.785 -0.0169 -0.0830 -0.1370
  445loPI   C2B 7118  13.364   0.996   9.361 -0.1607 -0.4164  0.0819
  445loPI   C3B 7119  13.346   1.078   8.857 -0.1138  0.2450  0.0381
  445loPI   C4B 7120  13.334   1.244   8.396  0.1160  0.2918  0.0524
  446loPI    C1 7121   8.511   1.037  10.844  0.1686  0.1055  0.1330
  446loPI    C2 7122   8.440   0.647  10.895  0.0852  0.1228  0.1515
  446loPI    C3 7123   8.782   0.806  11.026  0.0199  0.1003  0.3515
  446loPI   PO4 7124   8.427   1.064  10.672  0.0894  0.2752  0.1681
  446loPI   GL1 7125   8.183   1.064  10.334 -0.0930  0.1586  0.0363
  446loPI   GL2 7126   8.454   1.076  10.157  0.2467  0.0904  0.3354
  446loPI   C1A 7127   8.015   1.006   9.958 -0.0455  0.0038  0.1624
  446loPI   C2A 7128   8.045   0.943   9.430  0.1111 -0.1104 -0.1016
  446loPI   C3A 7129   8.006   0.976   9.045  0.2808 -0.1599 -0.1030
  446loPI   C4A 7130   7.898   0.964   8.628  0.3060  0.0711  0.0878
  446loPI   C5A 7131   7.929   0.961   8.207 -0.0417  0.0238  0.0846
  446loPI   C6A 7132   8.086   1.220   7.909  0.0366  0.2070 -0.0973
  446loPI   C1B 7133   8.528   1.088   9.703  0.1488  0.0253 -0.1208
  446loPI   C2B 7134   8.495   1.067   9.248 -0.0613  0.0445 -0.0688
  446loPI   C3B 7135   8.575   1.134   8.721 -0.0468  0.0294  0.0113
  446loPI   C4B 7136   8.405   1.113   8.254  0.1659  0.0867  0.1397
  447loPI    C1 7137   6.263  17.452  10.470  0.0024 -0.1684 -0.0277
  447loPI    C2 7138   6.006  17.733  10.347  0.1310 -0.0251  0.0279
  447loPI    C3 7139   5.869  17.387  10.494 -0.0283  0.0066 -0.0440
  447loPI   PO4 7140   6.398  17.391  10.326  0.2104 -0.0457 -0.0903
  447loPI   GL1 7141   6.564  17.019  10.080 -0.2480 -0.1455  0.0543
  447loPI   GL2 7142   6.403  17.225   9.899  0.1515 -0.1562 -0.1924
  447loPI   C1A 7143   6.371  16.766   9.713  0.0641 -0.0306  0.0564
  447loPI   C2A 7144   6.352  16.770   9.288 -0.0345  0.0140  0.2108
  447loPI   C3A 7145   6.316  16.816   8.909  0.1475  0.2902  0.4629
  447loPI   C4A 7146   6.181  16.819   8.445 -0.4357  0.0227  0.2668
  447loPI   C5A 7147   5.952  16.800   8.068  0.1137  0.1305  0.0684
  447loPI   C6A 7148   6.072  16.728   7.606  0.0348 -0.0722  0.1745
  447loPI   C1B 7149   6.465  17.275   9.470  0.0628  0.0549  0.3722
  447loPI   C2B 7150   6.429  17.361   9.041  0.1512 -0.2704 -0.0092
  447loPI   C3B 7151   6.446  17.297   8.624  0.2262 -0.0294 -0.1413
  447loPI   C4B 7152   6.562  17.495   8.135 -0.0116  0.1639  0.0448
  448loPI    C1 7153   6.707  13.925  10.677 -0.1766 -0.0659 -0.0859
  448loPI    C2 7154   6.727  14.174  10.989  0.0494  0.1602 -0.2762
  448loPI    C3 7155   6.910  13.818  11.005 -0.1574  0.0603 -0.0563
  448loPI   PO4 7156   6.783  14.094  10.486  0.1704 -0.2474 -0.0301
  448loPI   GL1 7157   6.818  14.046  10.086 -0.1979 -0.0305 -0.2862
  448loPI   GL2 7158   7.078  13.949  10.088  0.2023  0.2251  0.0597
  448loPI   C1A 7159   6.668  13.878   9.647 -0.1531 -0.1070  0.3357
  448loPI   C2A 7160   6.625  13.914   9.268  0.0857 -0.0441  0.2662
  448loPI   C3A 7161   6.433  13.996   8.870 -0.1193 -0.3506 -0.0464
  448loPI   C4A 7162   6.532  14.014   8.517  0.0860  0.1080  0.0757
  448loPI   C5A 7163   6.490  14.013   8.106  0.4342 -0.1428  0.0005
  448loPI   C6A 7164   6.696  13.880   7.718  0.0068  0.1445 -0.3091
  448loPI   C1B 7165   7.175  13.938   9.634 -0.1665  0.0487  0.1871
  448loPI   C2B 7166   7.177  13.972   9.135  0.1761  0.0086 -0.3639
  448loPI   C3B 7167   7.141  13.978   8.721  0.1132  0.2308  0.0262
  448loPI   C4B 7168   7.134  14.209   8.314  0.1722  0.1314 -0.0539
  449loPI    C1 7169   2.876  10.165  10.542 -0.0541  0.1304 -0.0630
  449loPI    C2 7170   2.961  10.226  10.928 -0.0262 -0.0295 -0.0434
  449loPI    C3 7171   3.249  10.110  10.675 -0.0883 -0.1273 -0.0695
  449loPI   PO4 7172   2.655  10.360  10.481  0.1174  0.0352  0.0259
  449loPI   GL1 7173   2.610  10.780  10.402  0.2330 -0.0864  0.1011
  449loPI   GL2 7174   2.398  10.656  10.157 -0.0820 -0.0534 -0.1886
  449loPI   C1A 7175   2.879  10.773   9.996 -0.0548 -0.2253 -0.0964
  449loPI   C2A 7176   2.992  10.615   9.590  0.3122  0.1538  0.2202
  449loPI   C3A 7177   2.971  10.638   9.148 -0.0451 -0.1284 -0.2609
  449loPI   C4A 7178   2.941  10.651   8.693 -0.2869 -0.0821  0.0995
  449loPI   C5A 7179   2.811  10.573   8.359 -0.1480 -0.0262 -0.1476
  449loPI   C6A 7180   2.900  10.183   8.127  0.1280 -0.1875 -0.0472
  449loPI   C1B 7181   2.400  10.479   9.794 -0.0610  0.0749  0.4444
  449loPI   C2B 7182   2.350  10.552   9.402  0.0068  0.1656  0.0137
  449loPI   C3B 7183   2.434  10.586   8.968 -0.1300  0.0602  0.1036
  449loPI   C4B 7184   2.369  10.666   8.532 -0.2149  0.1384 -0.0946
  450loPI    C1 7185   7.105   7.317  10.635  0.0811 -0.1372 -0.3668
  450loPI    C2 7186   7.168   7.668  10.452  0.2124  0.0345 -0.0027
  450loPI    C3 7187   7.241   7.630  10.844  0.1129 -0.3773 -0.0186
  450loPI   PO4 7188   7.246   7.079  10.524  0.1422  0.3229 -0.1837
  450loPI   GL1 7189   7.194   6.882  10.228 -0.0988 -0.1077 -0.1942
  450loPI   GL2 7190   7.325   6.896   9.976 -0.1697  0.3595 -0.0716
  450loPI   C1A 7191   6.878   6.652   9.965  0.1053  0.1507 -0.0966
  450loPI   C2A 7192   6.837   6.598   9.576  0.1504  0.1089 -0.0231
  450loPI   C3A 7193   6.753   6.665   9.135  0.2344 -0.0283  0.2000
  450loPI   C4A 7194   6.761   6.759   8.742  0.0431  0.3964  0.4270
  450loPI   C5A 7195   6.676   6.773   8.314 -0.0480 -0.1735 -0.1066
  450loPI   C6A 7196   6.415   6.448   8.066 -0.0709 -0.1738  0.0817
  450loPI   C1B 7197   7.318   6.777   9.481 -0.1424  0.1612 -0.2733
  450loPI   C2B 7198   7.256   6.766   9.088 -0.1134 -0.0474  0.3947
  450loPI   C3B 7199   7.244   6.766   8.674 -0.2226 -0.3627  0.2066
  450loPI   C4B 7200   7.390   6.809   8.293 -0.1143  0.0823 -0.2884
  451loPI    C1 7201   9.051   9.162  10.745 -0.0472 -0.1224 -0.2376
  451loPI    C2 7202   8.973   9.397  10.430 -0.0668  0.1396 -0.0403
  451loPI    C3 7203   8.947   9.544  10.801  0.0666 -0.1359  0.0812
  451loPI   PO4 7204   9.241   8.976  10.601  0.0245 -0.2837 -0.0518
  451loPI   GL1 7205   9.297   9.139  10.153  0.3089  0.1564  0.2142
  451loPI   GL2 7206   9.626   9.229  10.007  0.0706 -0.4088  0.3067
  451loPI   C1A 7207   9.160   9.038   9.724 -0.1100 -0.2476 -0.5143
  451loPI   C2A 7208   9.120   9.034   9.237 -0.0082 -0.3635  0.0116
  451loPI   C3A 7209   9.076   9.065   8.813  0.0612 -0.0171 -0.1000
  451loPI   C4A 7210   9.302   8.965   8.467 -0.2120  0.1223 -0.1428
  451loPI   C5A 7211   9.449   8.796   8.118  0.1392 -0.1814 -0.3420
  451loPI   C6A 7212   9.752   8.613   7.745 -0.2361  0.1113  0.3468
  451loPI   C1B 7213   9.600   9.210   9.536  0.2889 -0.0569  0.1999
  451loPI   C2B 7214   9.567   9.141   9.112 -0.1589  0.0162  0.1967
  451loPI   C3B 7215   9.689   9.139   8.713  0.2099  0.1293 -0.0526
  451loPI   C4B 7216   9.825   9.059   8.302 -0.1093 -0.1625 -0.2245
  452loPI    C1 7217   4.055  16.789  10.976 -0.0866 -0.0594 -0.0889
  452loPI    C2 7218   4.336  16.520  11.068 -0.0551  0.0364  0.1004
  452loPI    C3 7219   4.000  16.539  11.284 -0.1287  0.0407 -0.0143
  452loPI   PO4 7220   4.038  16.729  10.727  0.1587 -0.1353 -0.0682
  452loPI   GL1 7221   4.253  16.836  10.399 -0.0930  0.0229 -0.2403
  452loPI   GL2 7222   4.367  16.525  10.377 -0.0991 -0.2283 -0.0242
  452loPI   C1A 7223   4.399  16.947   9.949  0.1867 -0.0892  0.2052
  452loPI   C2A 7224   4.378  16.975   9.455 -0.2498  0.3750 -0.2435
  452loPI   C3A 7225   4.309  16.929   9.036  0.1098 -0.1073  0.0217
  452loPI   C4A 7226   4.285  16.899   8.604 -0.1299  0.0888  0.0013
  452loPI   C5A 7227   4.272  16.622   8.302  0.2639  0.2429  0.1299
  452loPI   C6A 7228   3.964  16.352   8.021  0.1000  0.1300 -0.0895
  452loPI   C1B 7229   4.204  16.481   9.923 -0.0916  0.0799 -0.2224
  452loPI   C2B 7230   4.205  16.506   9.466  0.0652 -0.2298 -0.0167
  452loPI   C3B 7231   4.145  16.423   8.936  0.1193  0.4327 -0.0914
  452loPI   C4B 7232   4.004  16.279   8.586 -0.1614 -0.1727 -0.1892
  453loPI    C1 7233  14.968   8.447  10.954 -0.2152 -0.0950  0.0158
  453loPI    C2 7234  15.103   8.204  11.242  0.0444  0.0676  0.0354
  453loPI    C3 7235  14.854   8.504  11.333 -0.0568 -0.0212  0.0535
  453loPI   PO4 7236  15.209   8.669  10.757  0.2403 -0.0553  0.1700
  453loPI   GL1 7237  15.267   8.563  10.317  0.0006 -0.2404  0.0000
  453loPI   GL2 7238  15.160   8.838  10.226  0.1984  0.1025  0.3879
  453loPI   C1A 7239  15.057   8.355   9.981  0.2450 -0.1106  0.2634
  453loPI   C2A 7240  15.083   8.201   9.555  0.5586  0.3031  0.0389
  453loPI   C3A 7241  15.217   8.163   9.028  0.2192  0.2683  0.1015
  453loPI   C4A 7242  15.252   8.219   8.615 -0.1796 -0.0974  0.0392
  453loPI   C5A 7243  15.293   8.363   8.233  0.0319 -0.0390 -0.0270
  453loPI   C6A 7244  15.419   8.720   8.012  0.2735  0.0501  0.1206
  453loPI   C1B 7245  15.298   8.819   9.829  0.1302  0.1228 -0.0365
  453loPI   C2B 7246  15.368   8.898   9.408 -0.0360  0.1186  0.2238
  453loPI   C3B 7247  15.386   8.717   8.972 -0.2652  0.0447 -0.0948
  453loPI   C4B 7248  15.585   8.801   8.496  0.1026 -0.1372  0.0834
  454loPI    C1 7249   6.257   9.531  10.716 -0.0195 -0.0559  0.0572
  454loPI    C2 7250   6.590   9.313  10.674 -0.0847 -0.1397 -0.0303
  454loPI    C3 7251   6.403   9.327  11.027  0.0105 -0.0930  0.0189
  454loPI   PO4 7252   6.199   9.586  10.485  0.1007  0.0887 -0.1465
  454loPI   GL1 7253   6.442   9.314  10.130  0.0232  0.2918  0.0231
  454loPI   GL2 7254   6.465   9.586  10.054 -0.1235  0.1022  0.0055
  454loPI   C1A 7255   6.684   9.078   9.811 -0.1474 -0.0430 -0.2274
  454loPI   C2A 7256   6.686   9.044   9.372  0.0577  0.1347  0.1247
  454loPI   C3A 7257   6.780   9.035   8.996 -0.2943  0.1410  0.1888
  454loPI   C4A 7258   6.713   8.879   8.609 -0.1591 -0.1360  0.1201
  454loPI   C5A 7259   6.784   8.916   8.209 -0.0332 -0.4793  0.0034
  454loPI   C6A 7260   6.584   9.142   7.914 -0.0529  0.0212 -0.0132
  454loPI   C1B 7261   6.350   9.490   9.646 -0.0030 -0.3306 -0.1255
  454loPI   C2B 7262   6.443   9.437   9.271 -0.1240  0.1293 -0.1749
  454loPI   C3B 7263   6.360   9.321   8.802 -0.0160  0.0606  0.2112
  454loPI   C4B 7264   6.601   9.432   8.319 -0.0666  0.0543 -0.0082
  455loPI    C1 7265  10.511   7.089  10.780  0.1428  0.0555 -0.0371
  455loPI    C2 7266  10.356   6.825  11.037 -0.1293  0.2468  0.0008
  455loPI    C3 7267  10.632   7.087  11.161  0.1698 -0.0387 -0.0460
  455loPI   PO4 7268  10.578   6.903  10.566  0.1767 -0.3148  0.1623
  455loPI   GL1 7269  10.370   7.093  10.199  0.1987 -0.0974 -0.0117
  455loPI   GL2 7270  10.358   7.398  10.093 -0.3836 -0.0604  0.1672
  455loPI   C1A 7271  10.147   6.825   9.820  0.0663  0.0568 -0.1946
  455loPI   C2A 7272  10.187   6.876   9.368 -0.1292 -0.2282 -0.2623
  455loPI   C3A 7273  10.305   6.972   9.020 -0.3946 -0.0799 -0.1268
  455loPI   C4A 7274  10.308   6.940   8.533  0.3037  0.0427  0.0210
  455loPI   C5A 7275  10.403   7.028   8.052  0.1179  0.1442 -0.0302
  455loPI   C6A 7276  10.520   7.434   7.839  0.0118  0.2185 -0.0900
  455loPI   C1B 7277  10.422   7.374   9.614  0.5201 -0.1110 -0.2141
  455loPI   C2B 7278  10.452   7.416   9.232 -0.4114  0.0353  0.1374
  455loPI   C3B 7279  10.535   7.405   8.818  0.2935 -0.2581 -0.0184
  455loPI   C4B 7280  10.570   7.404   8.433  0.2124 -0.1501 -0.0479
  456loPI    C1 7281  14.979   4.909  11.074  0.0679  0.3314  0.1189
  456loPI    C2 7282  14.596   4.843  11.168  0.0314  0.2755 -0.0648
  456loPI    C3 7283  14.875   4.573  11.265 -0.0309  0.1347 -0.2701
  456loPI   PO4 7284  14.916   5.098  10.863  0.0335  0.2372 -0.0990
  456loPI   GL1 7285  14.755   5.064  10.501  0.0127  0.0051 -0.1049
  456loPI   GL2 7286  15.124   4.945  10.360  0.0126 -0.0089 -0.1567
  456loPI   C1A 7287  14.478   4.867  10.225  0.0361 -0.0598  0.1504
  456loPI   C2A 7288  14.411   4.931   9.740 -0.1668 -0.1620 -0.0564
  456loPI   C3A 7289  14.427   5.006   9.326 -0.2602  0.3644 -0.0148
  456loPI   C4A 7290  14.400   4.898   8.837  0.1373  0.0349  0.0433
  456loPI   C5A 7291  14.297   4.723   8.442  0.0471  0.0459 -0.1980
  456loPI   C6A 7292  14.138   4.856   8.039 -0.1056 -0.1196  0.0208
  456loPI   C1B 7293  14.989   4.969   9.913  0.1905 -0.3392 -0.0602
  456loPI   C2B 7294  14.899   5.053   9.524 -0.3438  0.2531  0.0597
  456loPI   C3B 7295  14.912   4.983   9.169  0.3045  0.1456  0.0116
  456loPI   C4B 7296  14.934   4.959   8.703  0.3145 -0.0283  0.1070
  457loPI    C1 7297  10.624   9.146  10.764 -0.3324  0.1718  0.1031
  457loPI    C2 7298  10.840   9.483  10.761 -0.0269 -0.0209  0.0573
  457loPI    C3 7299  10.540   9.440  11.022  0.0138  0.2344  0.1492
  457loPI   PO4 7300  10.548   9.151  10.449  0.1583  0.3400 -0.0085
  457loPI   GL1 7301  10.574   9.335  10.017 -0.1440 -0.3030 -0.1256
  457loPI   GL2 7302  10.671   9.637  10.098 -0.1496 -0.0457  0.3581
  457loPI   C1A 7303  10.638   9.338   9.544  0.5706  0.0723  0.0961
  457loPI   C2A 7304  10.567   9.385   9.200 -0.0817 -0.1233 -0.2365
  457loPI   C3A 7305  10.662   9.290   8.838 -0.1392  0.3239  0.0110
  457loPI   C4A 7306  10.790   9.217   8.436 -0.2193  0.0693  0.0585
  457loPI   C5A 7307  10.994   9.514   8.214  0.1672 -0.1525 -0.0041
  457loPI   C6A 7308  11.233   9.905   8.133 -0.1886  0.1329  0.0693
  457loPI   C1B 7309  10.808   9.756   9.703 -0.0371  0.0329  0.1309
  457loPI   C2B 7310  10.734   9.848   9.360  0.1239  0.5014  0.1377
  457loPI   C3B 7311  10.795   9.770   8.988  0.0416 -0.2763 -0.0549
  457loPI   C4B 7312  10.998   9.829   8.605 -0.0517 -0.3016  0.0077
  458loPI    C1 7313   8.273   8.299  10.514 -0.0021  0.1435 -0.0508
  458loPI    C2 7314   8.344   8.692  10.542  0.1385  0.1138  0.0233
  458loPI    C3 7315   8.353   8.463  10.870  0.2901  0.0103 -0.0521
  458loPI   PO4 7316   8.093   8.243  10.339 -0.1844  0.0753  0.4190
  458loPI   GL1 7317   8.228   8.147  10.000 -0.0489 -0.2305  0.1592
  458loPI   GL2 7318   8.312   7.906  10.028  0.0838  0.0872 -0.0505
  458loPI   C1A 7319   8.413   8.421   9.750 -0.0022  0.4023  0.0040
  458loPI   C2A 7320   8.405   8.433   9.344 -0.0380 -0.1237  0.0617
  458loPI   C3A 7321   8.448   8.451   8.937 -0.0566 -0.1592 -0.0502
  458loPI   C4A 7322   8.548   8.585   8.497 -0.0408 -0.0216 -0.1331
  458loPI   C5A 7323   8.724   8.991   8.352  0.0388 -0.0644  0.0632
  458loPI   C6A 7324   9.120   9.232   8.122  0.0961  0.0175 -0.0550
  458loPI   C1B 7325   8.219   7.907   9.622  0.2692 -0.2129  0.0058
  458loPI   C2B 7326   8.184   7.987   9.168  0.2704  0.1159 -0.3350
  458loPI   C3B 7327   8.250   7.897   8.732  0.3899  0.2558  0.1790
  458loPI   C4B 7328   8.267   7.943   8.260 -0.1496 -0.0767 -0.2297
  459loPI    C1 7329  17.064  10.507  11.128 -0.1903 -0.0552  0.0775
  459loPI    C2 7330  17.027  10.821  11.374 -0.0594 -0.0812  0.1312
  459loPI    C3 7331  17.282  10.526  11.463  0.2124  0.0532 -0.1843
  459loPI   PO4 7332  17.158  10.578  10.899  0.0497  0.3203  0.0988
  459loPI   GL1 7333  17.210  10.486  10.429  0.1908  0.0557 -0.0526
  459loPI   GL2 7334  16.977  10.335  10.445  0.1001 -0.0358  0.2497
  459loPI   C1A 7335  17.423  10.437  10.072 -0.1214  0.2526 -0.0508
  459loPI   C2A 7336  17.518  10.508   9.724 -0.1134  0.0224 -0.0258
  459loPI   C3A 7337  17.445  10.573   9.262  0.2224  0.0802  0.4886
  459loPI   C4A 7338  17.513  10.569   8.802  0.2678  0.2443 -0.0467
  459loPI   C5A 7339  17.823  10.465   8.513  0.1128  0.0683 -0.1133
  459loPI   C6A 7340  18.227  10.511   8.213  0.1870 -0.0037 -0.1132
  459loPI   C1B 7341  16.912  10.343   9.956 -0.3667 -0.2693 -0.0672
  459loPI   C2B 7342  16.985  10.369   9.551 -0.1705 -0.1554 -0.1890
  459loPI   C3B 7343  17.011  10.440   9.079  0.3277  0.0199 -0.1804
  459loPI   C4B 7344  16.889  10.502   8.724 -0.1404  0.0181 -0.0891
  460loPI    C1 7345   1.838   9.865  10.730 -0.0617 -0.0531 -0.1010
  460loPI    C2 7346   1.511   9.691  10.580 -0.0256 -0.1990 -0.0124
  460loPI    C3 7347   1.522   9.797  10.965 -0.1813  0.3284 -0.1452
  460loPI   PO4 7348   1.984  10.052  10.629 -0.3118  0.0910 -0.0125
  460loPI   GL1 7349   2.234  10.212  10.232 -0.0052  0.1174  0.0863
  460loPI   GL2 7350   1.973  10.436  10.284  0.1977 -0.2544 -0.0435
  460loPI   C1A 7351   2.180  10.004   9.842  0.1925 -0.2813 -0.2830
  460loPI   C2A 7352   2.204  10.075   9.375  0.0648  0.0504  0.1563
  460loPI   C3A 7353   2.250  10.101   8.909 -0.0689 -0.2928 -0.0657
  460loPI   C4A 7354   2.089  10.037   8.534 -0.3004  0.1111 -0.3073
  460loPI   C5A 7355   1.930   9.785   8.201  0.0761 -0.3014 -0.1892
  460loPI   C6A 7356   1.773   9.499   7.852 -0.1929  0.0558 -0.2569
  460loPI   C1B 7357   1.938  10.471   9.906  0.0233 -0.0222 -0.0184
  460loPI   C2B 7358   1.846  10.530   9.509 -0.0612  0.0311  0.2605
  460loPI   C3B 7359   1.963  10.547   9.101  0.0236  0.1132  0.1615
  460loPI   C4B 7360   1.952  10.518   8.682 -0.2859 -0.3039  0.1692
  461loPI    C1 7361  10.896  14.999  10.700 -0.0808  0.0746 -0.2060
  461loPI    C2 7362  10.793  15.381  10.642 -0.0486  0.1037 -0.0744
  461loPI    C3 7363  10.829  15.238  11.014 -0.2352 -0.0754 -0.1233
  461loPI   PO4 7364  10.790  14.841  10.506  0.2478  0.0091  0.0461
  461loPI   GL1 7365  10.873  14.600  10.077 -0.1340  0.0391 -0.2354
  461loPI   GL2 7366  10.906  14.958  10.047  0.1328  0.0116  0.0872
  461loPI   C1A 7367  10.706  14.546   9.742 -0.0765 -0.0575 -0.1482
  461loPI   C2A 7368  10.747  14.561   9.398  0.1756 -0.1525 -0.1109
  461loPI   C3A 7369  10.847  14.459   8.989  0.0944  0.0199  0.4610
  461loPI   C4A 7370  10.793  14.356   8.553  0.1172 -0.0814 -0.1114
  461loPI   C5A 7371  10.908  14.180   8.137  0.2725  0.0989  0.0840
  461loPI   C6A 7372  11.111  13.963   7.779  0.1288 -0.1162  0.3648
  461loPI   C1B 7373  10.930  14.983   9.614  0.0172  0.2606 -0.0001
  461loPI   C2B 7374  10.921  15.001   9.155  0.2787 -0.1140 -0.0962
  461loPI   C3B 7375  10.908  14.912   8.734 -0.1747  0.1259  0.0137
  461loPI   C4B 7376  10.951  14.844   8.238 -0.2170 -0.2415  0.2166
  462loPI    C1 7377  15.834  13.749  10.986 -0.0894  0.0141  0.0328
  462loPI    C2 7378  15.491  13.587  11.111 -0.2338  0.2867 -0.0029
  462loPI    C3 7379  15.666  13.875  11.327 -0.0832  0.2238 -0.0400
  462loPI   PO4 7380  15.962  13.467  10.925 -0.1381  0.2481  0.1588
  462loPI   GL1 7381  15.940  13.178  10.619 -0.1118  0.0671  0.0229
  462loPI   GL2 7382  15.728  12.980  10.796 -0.0249  0.1714 -0.1544
  462loPI   C1A 7383  16.021  13.021  10.212  0.0345  0.1143 -0.2253
  462loPI   C2A 7384  15.927  13.097   9.846 -0.4263  0.1402  0.0055
  462loPI   C3A 7385  15.969  13.056   9.390  0.1342  0.2682 -0.2689
  462loPI   C4A 7386  15.909  13.120   8.918  0.1863 -0.5367  0.1580
  462loPI   C5A 7387  15.483  12.942   8.677 -0.0919 -0.4293 -0.3395
  462loPI   C6A 7388  15.428  12.872   8.311 -0.3285  0.0094 -0.0769
  462loPI   C1B 7389  15.540  12.924  10.410  0.0785  0.0873 -0.2859
  462loPI   C2B 7390  15.478  12.998  10.096 -0.2968 -0.0054  0.1162
  462loPI   C3B 7391  15.472  13.003   9.718  0.3005 -0.3739 -0.1716
  462loPI   C4B 7392  15.432  12.936   9.200  0.3375 -0.1985  0.0101
  463loPI    C1 7393  12.372  12.667  11.183  0.1489  0.1751  0.0511
  463loPI    C2 7394  12.745  12.645  11.326  0.1797 -0.1668 -0.0744
  463loPI    C3 7395  12.454  12.425  11.490  0.0704 -0.0375 -0.0930
  463loPI   PO4 7396  12.363  12.571  10.935  0.1322  0.2077  0.2243
  463loPI   GL1 7397  12.483  12.766  10.530 -0.3544 -0.2298  0.2098
  463loPI   GL2 7398  12.285  12.987  10.280 -0.0396  0.1088  0.1278
  463loPI   C1A 7399  12.630  12.621  10.128  0.0634 -0.1605 -0.0612
  463loPI   C2A 7400  12.859  12.475   9.800  0.1941 -0.0674  0.0829
  463loPI   C3A 7401  12.865  12.549   9.341 -0.3434  0.1391  0.0056
  463loPI   C4A 7402  12.895  12.396   8.892 -0.1192  0.1336 -0.2597
  463loPI   C5A 7403  12.974  12.365   8.502 -0.1987 -0.3724 -0.1909
  463loPI   C6A 7404  12.939  12.177   8.076 -0.0588 -0.0045  0.0007
  463loPI   C1B 7405  12.322  12.934   9.885 -0.3214  0.0314 -0.1702
  463loPI   C2B 7406  12.543  12.908   9.411 -0.1109  0.1502 -0.0194
  463loPI   C3B 7407  12.679  12.827   8.991 -0.0763 -0.4879  0.1630
  463loPI   C4B 7408  12.572  12.868   8.587  0.0603  0.3207 -0.0497
  464loPI    C1 7409   8.236   5.230  11.156 -0.0393 -0.1428 -0.1414
  464loPI    C2 7410   7.992   5.109  11.449 -0.1725  0.1747 -0.1174
  464loPI    C3 7411   8.308   5.339  11.534  0.0960 -0.1719 -0.1584
  464loPI   PO4 7412   8.305   5.150  10.957  0.1760  0.0803  0.3064
  464loPI   GL1 7413   8.072   5.120  10.600 -0.0428 -0.1455 -0.0680
  464loPI   GL2 7414   8.212   5.075  10.400 -0.3148  0.1067 -0.1731
  464loPI   C1A 7415   7.704   5.075  10.257 -0.1092  0.0814  0.0598
  464loPI   C2A 7416   7.708   5.059   9.840 -0.0032 -0.0071 -0.1919
  464loPI   C3A 7417   7.608   4.961   9.362 -0.0942 -0.0309  0.1463
  464loPI   C4A 7418   7.570   4.981   8.986  0.0827  0.3133 -0.3600
  464loPI   C5A 7419   7.584   4.958   8.524 -0.1314 -0.1358  0.0277
  464loPI   C6A 7420   7.926   4.901   8.246 -0.2134  0.0139  0.0940
  464loPI   C1B 7421   8.195   5.148   9.951  0.1152 -0.0430 -0.0219
  464loPI   C2B 7422   8.181   5.033   9.508 -0.1317 -0.0286 -0.0678
  464loPI   C3B 7423   8.081   5.177   9.084  0.1703 -0.0981 -0.2149
  464loPI   C4B 7424   8.067   5.077   8.683  0.1510 -0.1572 -0.0126
  465loPI    C1 7425  13.351  12.764  11.257 -0.2052 -0.2246 -0.0144
  465loPI    C2 7426  13.211  12.863  11.618 -0.1290  0.1589 -0.0853
  465loPI    C3 7427  13.480  12.569  11.581 -0.0872  0.1614  0.1776
  465loPI   PO4 7428  13.191  12.702  11.118  0.2544  0.1188  0.1618
  465loPI   GL1 7429  13.355  12.540  10.714  0.1293  0.0850 -0.0085
  465loPI   GL2 7430  13.253  12.838  10.560 -0.3505  0.2100 -0.2472
  465loPI   C1A 7431  13.167  12.594  10.184 -0.0404 -0.0348  0.3872
  465loPI   C2A 7432  13.306  12.556   9.671  0.0626  0.1459 -0.1036
  465loPI   C3A 7433  13.398  12.590   9.244  0.0357 -0.0521 -0.4557
  465loPI   C4A 7434  13.380  12.463   8.849  0.0827 -0.0997 -0.2079
  465loPI   C5A 7435  13.487  12.387   8.366  0.0069 -0.2993  0.0616
  465loPI   C6A 7436  13.736  12.714   8.080 -0.2708  0.1151  0.0968
  465loPI   C1B 7437  13.482  13.030  10.140 -0.1949 -0.0356  0.0701
  465loPI   C2B 7438  13.482  13.181   9.838  0.2588 -0.0237 -0.0308
  465loPI   C3B 7439  13.508  13.090   9.364 -0.3485 -0.3344  0.1064
  465loPI   C4B 7440  13.551  12.973   8.912  0.1250  0.1860 -0.2211
  466loPI    C1 7441   3.450  14.284  10.866 -0.0747  0.0406  0.2871
  466loPI    C2 7442   3.631  14.639  10.905  0.2264 -0.0671 -0.0662
  466loPI    C3 7443   3.691  14.353  11.178  0.0115  0.1366  0.2005
  466loPI   PO4 7444   3.568  14.214  10.616  0.2252 -0.2968  0.2193
  466loPI   GL1 7445   3.677  13.952  10.337 -0.0746 -0.0037 -0.1182
  466loPI   GL2 7446   3.960  13.645  10.242  0.2318 -0.0567 -0.2631
  466loPI   C1A 7447   3.673  14.046   9.969  0.0980  0.1698  0.0327
  466loPI   C2A 7448   3.682  13.982   9.665 -0.0585 -0.1213  0.1655
  466loPI   C3A 7449   3.657  13.999   9.212  0.0392 -0.0466 -0.2991
  466loPI   C4A 7450   3.692  13.985   8.754 -0.0876  0.0624  0.0675
  466loPI   C5A 7451   3.643  13.921   8.409 -0.0342 -0.0712  0.3592
  466loPI   C6A 7452   3.774  13.960   8.031 -0.1250  0.1007  0.2300
  466loPI   C1B 7453   3.944  13.614   9.826  0.0120  0.0529 -0.0636
  466loPI   C2B 7454   3.983  13.554   9.326 -0.2961 -0.2635  0.0292
  466loPI   C3B 7455   3.980  13.605   8.914 -0.0462 -0.1779  0.1561
  466loPI   C4B 7456   4.138  13.758   8.483  0.0060 -0.0887 -0.1617
  467loPI    C1 7457   0.311   1.349  10.596 -0.1436 -0.0062  0.1092
  467loPI    C2 7458   0.637   1.522  10.750 -0.0473 -0.0702 -0.0208
  467loPI    C3 7459   0.306   1.487  10.971  0.1186 -0.2442  0.2038
  467loPI   PO4 7460   0.248   1.477  10.410 -0.1546  0.2621  0.1640
  467loPI   GL1 7461   0.220   1.351  10.097  0.1285 -0.0537  0.0466
  467loPI   GL2 7462   0.209   1.057  10.006  0.2048 -0.1740  0.2457
  467loPI   C1A 7463   0.474   1.409   9.717 -0.0465 -0.1230  0.1739
  467loPI   C2A 7464   0.429   1.439   9.269 -0.1653 -0.2841 -0.2014
  467loPI   C3A 7465   0.346   1.424   8.860 -0.0685  0.1712  0.0120
  467loPI   C4A 7466   0.367   1.539   8.392  0.0960 -0.1530  0.0640
  467loPI   C5A 7467   0.274   1.555   7.952 -0.0291  0.0404  0.0055
  467loPI   C6A 7468   0.254   1.471   7.530 -0.0376  0.1061  0.2949
  467loPI   C1B 7469   0.192   0.906   9.582  0.2373  0.0236 -0.2049
  467loPI   C2B 7470   0.250   0.972   9.136  0.0603  0.0570  0.2124
  467loPI   C3B 7471   0.207   0.957   8.683  0.0009 -0.2375  0.1673
  467loPI   C4B 7472   0.209   1.131   8.252 -0.0714  0.5875 -0.1522
  468loPI    C1 7473   8.998  11.366  10.535 -0.1350  0.1227  0.1036
  468loPI    C2 7474   8.635  11.400  10.702 -0.1499  0.1748  0.0611
  468loPI    C3 7475   8.932  11.222  10.903 -0.2387 -0.0028  0.0366
  468loPI   PO4 7476   8.902  11.282  10.209 -0.3209 -0.1120  0.1166
  468loPI   GL1 7477   8.635  11.502   9.787  0.2375 -0.1313  0.1079
  468loPI   GL2 7478   8.720  11.283   9.756 -0.1940 -0.4260  0.2249
  468loPI   C1A 7479   8.669  11.712   9.391 -0.1196 -0.0921 -0.6069
  468loPI   C2A 7480   8.640  11.674   8.994  0.0447  0.0386  0.0379
  468loPI   C3A 7481   8.690  11.617   8.618  0.0722  0.2423  0.1767
  468loPI   C4A 7482   8.901  11.643   8.202 -0.3175  0.1273  0.2272
  468loPI   C5A 7483   9.282  11.646   7.970 -0.0046  0.0231  0.0599
  468loPI   C6A 7484   9.607  11.793   8.170  0.2804 -0.2293  0.2496
  468loPI   C1B 7485   8.859  11.266   9.291  0.0957  0.2663  0.1555
  468loPI   C2B 7486   8.932  11.261   8.893 -0.0647  0.0096  0.3971
  468loPI   C3B 7487   8.985  11.217   8.458  0.0403  0.4312  0.0797
  468loPI   C4B 7488   9.183  11.118   8.110  0.0784  0.2398 -0.0297
  469loPI    C1 7489  17.751   8.012  11.042  0.1187 -0.3289  0.0177
  469loPI    C2 7490  17.693   8.149  11.414  0.2922  0.2027 -0.1427
  469loPI    C3 7491  17.783   7.764  11.355  0.2906  0.1176  0.3652
  469loPI   PO4 7492  17.846   8.274  10.934  0.2149 -0.0952 -0.1729
  469loPI   GL1 7493  18.043   8.455  10.468  0.0281  0.2600  0.2215
  469loPI   GL2 7494  17.996   8.224  10.172 -0.1182  0.0236  0.4649
  469loPI   C1A 7495  18.197   8.674  10.075  0.1262  0.0099 -0.0645
  469loPI   C2A 7496  18.266   8.770   9.641 -0.2623 -0.3741  0.1347
  469loPI   C3A 7497  18.391   8.844   9.178 -0.1111  0.1430  0.4758
  469loPI   C4A 7498  18.324   8.759   8.641  0.0458 -0.1488 -0.0664
  469loPI   C5A 7499  18.108   8.662   8.323  0.0513 -0.3162 -0.0225
  469loPI   C6A 7500  17.726   8.427   8.109  0.1738 -0.2332 -0.0606
  469loPI   C1B 7501  18.140   8.248   9.655  0.0338  0.0462 -0.3151
  469loPI   C2B 7502  18.139   8.415   9.266  0.0317  0.0409  0.0192
  469loPI   C3B 7503  18.167   8.303   8.803 -0.0767 -0.2888 -0.2616
  469loPI   C4B 7504  18.012   8.198   8.491  0.1293  0.0317  0.2301
  470loPI    C1 7505   1.631   8.979  11.076  0.0625  0.0899  0.2365
  470loPI    C2 7506   1.357   9.226  10.921 -0.1776 -0.2926  0.0351
  470loPI    C3 7507   1.507   9.297  11.284 -0.1901  0.1819 -0.0469
  470loPI   PO4 7508   1.657   8.851  10.819 -0.1498 -0.0286  0.1744
  470loPI   GL1 7509   1.400   8.815  10.518  0.0319 -0.3105  0.4655
  470loPI   GL2 7510   1.338   9.166  10.401 -0.2907 -0.0046 -0.0006
  470loPI   C1A 7511   1.263   8.861  10.055  0.1065 -0.2256  0.2540
  470loPI   C2A 7512   1.282   8.966   9.703 -0.1238 -0.0086  0.5393
  470loPI   C3A 7513   1.348   8.945   9.238 -0.0502 -0.0402 -0.2198
  470loPI   C4A 7514   1.450   9.017   8.906 -0.0058 -0.0007 -0.0095
  470loPI   C5A 7515   1.393   9.143   8.550  0.2096 -0.0121 -0.1355
  470loPI   C6A 7516   1.510   9.534   8.292 -0.4299  0.1255 -0.0365
  470loPI   C1B 7517   1.389   9.530  10.114 -0.0240  0.1400 -0.1613
  470loPI   C2B 7518   1.453   9.479   9.756 -0.0336 -0.0640  0.0424
  470loPI   C3B 7519   1.529   9.456   9.267 -0.2616 -0.0917  0.1320
  470loPI   C4B 7520   1.579   9.504   8.852 -0.0446  0.1789  0.0718
  471loPI    C1 7521  15.650  15.869  11.162  0.0915  0.1887 -0.0002
  471loPI    C2 7522  15.406  16.015  11.444  0.0255  0.1235 -0.0233
  471loPI    C3 7523  15.802  16.039  11.491  0.0155 -0.0076  0.1389
  471loPI   PO4 7524  15.556  15.731  11.056 -0.3622 -0.1850  0.0310
  471loPI   GL1 7525  15.347  15.650  10.714  0.0330 -0.2012  0.0901
  471loPI   GL2 7526  15.605  15.743  10.478 -0.0929  0.0774 -0.1624
  471loPI   C1A 7527  15.189  15.951  10.330 -0.2575 -0.1440  0.2319
  471loPI   C2A 7528  15.212  16.020   9.928  0.2854  0.0293  0.1680
  471loPI   C3A 7529  15.180  16.165   9.448  0.1008  0.1678  0.1536
  471loPI   C4A 7530  15.090  16.174   9.031  0.1965  0.5479  0.0746
  471loPI   C5A 7531  15.156  16.213   8.602 -0.0723  0.1020  0.0118
  471loPI   C6A 7532  15.300  15.905   8.294  0.0610  0.2383  0.2697
  471loPI   C1B 7533  15.547  15.697  10.022  0.0518 -0.2343  0.1193
  471loPI   C2B 7534  15.585  15.771   9.648 -0.1499 -0.0765  0.1535
  471loPI   C3B 7535  15.495  15.763   9.183  0.1410 -0.1632 -0.0025
  471loPI   C4B 7536  15.440  15.834   8.788  0.2271  0.2557 -0.2924
  472loPI    C1 7537  11.964   8.764  10.506 -0.0402 -0.1516  0.1110
  472loPI    C2 7538  11.656   8.906  10.718  0.0566  0.0132  0.1431
  472loPI    C3 7539  12.003   8.824  10.900  0.1254  0.1114  0.0571
  472loPI   PO4 7540  11.820   8.679  10.294 -0.2693 -0.2518  0.0650
  472loPI   GL1 7541  11.772   8.408   9.872 -0.1231  0.0921 -0.3383
  472loPI   GL2 7542  12.013   8.277  10.027 -0.0313 -0.3239 -0.3688
  472loPI   C1A 7543  11.735   8.543   9.489  0.1342  0.1745  0.0147
  472loPI   C2A 7544  11.843   8.571   9.064  0.3950  0.1825  0.0930
  472loPI   C3A 7545  11.911   8.555   8.710 -0.1116 -0.1201  0.2074
  472loPI   C4A 7546  12.225   8.485   8.268  0.0409 -0.1750  0.0980
  472loPI   C5A 7547  12.504   8.681   8.112 -0.0070  0.1159  0.1005
  472loPI   C6A 7548  12.557   8.885   7.671  0.1526 -0.1202 -0.1048
  472loPI   C1B 7549  12.113   8.170   9.532 -0.0646 -0.2080  0.2927
  472loPI   C2B 7550  12.237   8.109   9.179  0.0181 -0.2461  0.0256
  472loPI   C3B 7551  12.358   8.244   8.898 -0.1487  0.2008  0.1394
  472loPI   C4B 7552  12.371   8.031   8.561 -0.1349  0.0983 -0.1368
  473loPI    C1 7553  15.165   6.392  10.995 -0.1306  0.1240 -0.0218
  473loPI    C2 7554  15.509   6.575  11.085 -0.2706  0.3624  0.0361
  473loPI    C3 7555  15.390   6.258  11.298 -0.0331  0.2077 -0.0565
  473loPI   PO4 7556  15.181   6.436  10.677 -0.0051  0.2304 -0.1187
  473loPI   GL1 7557  15.022   6.346  10.264  0.2133  0.2596  0.2283
  473loPI   GL2 7558  15.054   6.032  10.261 -0.0105 -0.1177  0.1339
  473loPI   C1A 7559  14.966   6.317   9.844 -0.0117 -0.0637 -0.0428
  473loPI   C2A 7560  14.952   6.361   9.371  0.4002 -0.2134  0.0896
  473loPI   C3A 7561  14.951   6.347   8.910  0.1621 -0.1992 -0.0046
  473loPI   C4A 7562  14.977   6.298   8.437 -0.0266  0.1287  0.1053
  473loPI   C5A 7563  14.849   6.444   8.107  0.1697 -0.1831  0.1401
  473loPI   C6A 7564  15.138   6.682   7.744  0.1252  0.0047  0.2479
  473loPI   C1B 7565  15.245   5.907   9.931 -0.2839  0.0968  0.0286
  473loPI   C2B 7566  15.308   6.003   9.533 -0.1911 -0.3446 -0.0567
  473loPI   C3B 7567  15.257   6.005   9.143  0.1197  0.1503 -0.0047
  473loPI   C4B 7568  15.259   5.954   8.710 -0.0731  0.4243 -0.2127
  474loPI    C1 7569   2.042  15.409  10.904  0.0447 -0.0087  0.1537
  474loPI    C2 7570   2.387  15.604  10.960  0.0241  0.0741 -0.0041
  474loPI    C3 7571   2.048  15.747  11.118  0.0478  0.0380  0.0800
  474loPI   PO4 7572   2.059  15.346  10.610 -0.0183  0.3291 -0.3357
  474loPI   GL1 7573   1.995  14.995  10.355  0.0185  0.2124  0.2462
  474loPI   GL2 7574   1.702  15.081  10.317  0.0103 -0.1488  0.0223
  474loPI   C1A 7575   2.032  14.613   9.992  0.0348  0.0576 -0.0069
  474loPI   C2A 7576   1.892  14.628   9.563 -0.1256  0.3910  0.0935
  474loPI   C3A 7577   1.920  14.666   9.197  0.0721 -0.0843 -0.2484
  474loPI   C4A 7578   1.872  14.628   8.741  0.1350  0.0759  0.0144
  474loPI   C5A 7579   1.675  14.449   8.421  0.0165  0.0661 -0.0795
  474loPI   C6A 7580   1.532  14.005   8.399 -0.0336  0.2708  0.0691
  474loPI   C1B 7581   1.589  15.051   9.932 -0.0301  0.2049 -0.0099
  474loPI   C2B 7582   1.558  14.911   9.431 -0.1098  0.3807 -0.1719
  474loPI   C3B 7583   1.574  15.029   9.025  0.0391 -0.0637 -0.0261
  474loPI   C4B 7584   1.517  15.016   8.657  0.5223  0.0520  0.0812
  475loPI    C1 7585  14.349   0.571  11.234  0.1002 -0.0883  0.0453
  475loPI    C2 7586  14.267   0.256  11.467 -0.1380 -0.0417  0.0266
  475loPI    C3 7587  13.992   0.542  11.413  0.0345  0.1113 -0.0510
  475loPI   PO4 7588  14.547   0.450  10.939 -0.2499  0.2025 -0.0699
  475loPI   GL1 7589  14.434   0.190  10.544  0.0156  0.2946 -0.0960
  475loPI   GL2 7590  14.584  -0.190  10.500  0.0354 -0.0960 -0.2025
  475loPI   C1A 7591  14.527   0.352  10.115 -0.3667 -0.0298 -0.0762
  475loPI   C2A 7592  14.613   0.395   9.687 -0.0864  0.1844  0.1655
  475loPI   C3A 7593  14.717   0.351   9.259  0.0796 -0.2515 -0.0946
  475loPI   C4A 7594  14.678   0.359   8.844 -0.1895 -0.2316 -0.0379
  475loPI   C5A 7595  14.633   0.264   8.398 -0.2103  0.3618  0.0371
  475loPI   C6A 7596  14.416   0.287   7.982  0.2568  0.3035 -0.0610
  475loPI   C1B 7597  14.435  -0.188  10.063  0.2265 -0.0139 -0.0448
  475loPI   C2B 7598  14.455  -0.151   9.588 -0.1551  0.0813 -0.2211
  475loPI   C3B 7599  14.535  -0.096   9.168  0.0794 -0.0274 -0.1314
  475loPI   C4B 7600  14.439  -0.117   8.743  0.2033 -0.0121  0.2819
  476loPI    C1 7601  10.943  13.100  10.528 -0.0044  0.3138 -0.0581
  476loPI    C2 7602  11.098  12.971  10.873 -0.1406  0.1221 -0.0677
  476loPI    C3 7603  10.744  13.157  10.870 -0.0668  0.2630 -0.0858
  476loPI   PO4 7604  11.148  13.108  10.388  0.1930 -0.0889 -0.0447
  476loPI   GL1 7605  11.323  13.007  10.146  0.3103 -0.0717  0.3154
  476loPI   GL2 7606  10.964  12.761   9.877 -0.0943  0.1733  0.0638
  476loPI   C1A 7607  11.366  12.803   9.705 -0.1688 -0.2194  0.1450
  476loPI   C2A 7608  11.486  12.665   9.272  0.0986  0.4017  0.1262
  476loPI   C3A 7609  11.646  12.604   8.951 -0.1265  0.0626  0.0264
  476loPI   C4A 7610  11.496  12.572   8.603 -0.1734 -0.1209 -0.0489
  476loPI   C5A 7611  11.562  12.802   8.248 -0.3005  0.0854 -0.1911
  476loPI   C6A 7612  11.513  12.997   7.799 -0.0058  0.2919  0.0022
  476loPI   C1B 7613  11.013  12.664   9.441 -0.0000  0.0373 -0.3694
  476loPI   C2B 7614  10.996  12.667   9.004 -0.2132  0.2249 -0.0991
  476loPI   C3B 7615  11.022  12.621   8.633  0.1098 -0.0142  0.2637
  476loPI   C4B 7616  11.144  12.471   8.163  0.1950 -0.0926 -0.0714
  477loPI    C1 7617   1.318   0.568  11.093 -0.0150 -0.2203 -0.1806
  477loPI    C2 7618   1.583   0.731  11.344 -0.0788  0.0822 -0.3053
  477loPI    C3 7619   1.423   0.374  11.426 -0.0071  0.1221  0.0207
  477loPI   PO4 7620   1.485   0.608  10.782 -0.1325 -0.1264  0.0995
  477loPI   GL1 7621   1.665   0.581  10.300 -0.1534  0.0938  0.1390
  477loPI   GL2 7622   1.345   0.306  10.183  0.2387  0.0916 -0.0372
  477loPI   C1A 7623   1.647   0.816   9.945  0.2173 -0.1164  0.1251
  477loPI   C2A 7624   1.710   0.810   9.489 -0.0132 -0.1135  0.0394
  477loPI   C3A 7625   1.573   0.803   9.034 -0.0820  0.1477 -0.0475
  477loPI   C4A 7626   1.543   0.864   8.684  0.0791 -0.5257 -0.0782
  477loPI   C5A 7627   1.605   0.866   8.310 -0.0052 -0.4635 -0.0651
  477loPI   C6A 7628   1.658   0.830   7.868  0.1567  0.0055  0.2182
  477loPI   C1B 7629   1.482   0.344   9.886 -0.2224 -0.2568 -0.2766
  477loPI   C2B 7630   1.375   0.274   9.467 -0.1584 -0.1157 -0.0763
  477loPI   C3B 7631   1.362   0.332   9.096  0.1100  0.0014  0.3391
  477loPI   C4B 7632   1.334   0.354   8.700 -0.0044  0.0530  0.0066
  478loPI    C1 7633   5.530   0.376  10.857  0.1343  0.2475 -0.1214
  478loPI    C2 7634   5.735   0.560  11.147  0.1799  0.1036 -0.0613
  478loPI    C3 7635   5.760   0.163  11.106 -0.1029  0.0820 -0.0400
  478loPI   PO4 7636   5.594   0.508  10.557  0.0087 -0.2505 -0.1689
  478loPI   GL1 7637   5.894   0.615  10.347  0.0606  0.3934 -0.0504
  478loPI   GL2 7638   5.746   0.225  10.208 -0.0130 -0.3528  0.0926
  478loPI   C1A 7639   5.902   0.727   9.912  0.1477 -0.1904 -0.0772
  478loPI   C2A 7640   6.003   0.678   9.461  0.0599  0.0777  0.1990
  478loPI   C3A 7641   5.997   0.562   9.068 -0.1612 -0.2586  0.3525
  478loPI   C4A 7642   5.844   0.661   8.635  0.0476 -0.1076 -0.3838
  478loPI   C5A 7643   5.872   1.045   8.227  0.1113  0.0528  0.3372
  478loPI   C6A 7644   5.492   1.125   7.980 -0.0922  0.2672  0.2136
  478loPI   C1B 7645   5.821   0.219   9.781  0.1174 -0.2026  0.4504
  478loPI   C2B 7646   5.790   0.190   9.322 -0.1173 -0.1375 -0.1132
  478loPI   C3B 7647   5.782   0.107   8.933 -0.1713  0.0952  0.1367
  478loPI   C4B 7648   5.647   0.127   8.518  0.1341  0.1110 -0.2353
  479loPI    C1 7649  13.919   0.005  10.778 -0.0454 -0.1334  0.0588
  479loPI    C2 7650  13.982   0.370  10.928 -0.1095 -0.1465  0.1189
  479loPI    C3 7651  14.237   0.073  11.010  0.1788 -0.0179 -0.2745
  479loPI   PO4 7652  13.880   0.016  10.548 -0.1644 -0.0684 -0.0993
  479loPI   GL1 7653  14.072   0.215  10.203 -0.0685  0.1112 -0.0161
  479loPI   GL2 7654  13.918   0.497  10.274 -0.3211 -0.1137  0.1649
  479loPI   C1A 7655  14.093   0.202   9.791 -0.0666  0.2118  0.2008
  479loPI   C2A 7656  14.249   0.218   9.314  0.0095 -0.2184 -0.0209
  479loPI   C3A 7657  14.128   0.322   8.907  0.0199 -0.0147 -0.0508
  479loPI   C4A 7658  14.111   0.236   8.500  0.0201 -0.0246 -0.1532
  479loPI   C5A 7659  13.936   0.394   8.164 -0.2015  0.2044 -0.1912
  479loPI   C6A 7660  13.910   0.767   8.022 -0.2713  0.1664 -0.0160
  479loPI   C1B 7661  13.718   0.571   9.851 -0.3098  0.0555  0.0007
  479loPI   C2B 7662  13.856   0.560   9.498 -0.7203 -0.1069 -0.1511
  479loPI   C3B 7663  13.795   0.675   9.015 -0.0075 -0.0239  0.3007
  479loPI   C4B 7664  13.727   0.762   8.546  0.1070 -0.1076  0.2190
  480loPI    C1 7665   7.768  10.028  10.630 -0.1156  0.0293 -0.2749
  480loPI    C2 7666   7.433   9.967  10.839 -0.1281 -0.0412 -0.3151
  480loPI    C3 7667   7.786   9.849  10.987 -0.1016  0.1729 -0.2028
  480loPI   PO4 7668   7.741   9.900  10.354 -0.2018 -0.1768 -0.0242
  480loPI   GL1 7669   7.596  10.006  10.076 -0.3005 -0.0218  0.1352
  480loPI   GL2 7670   7.756  10.153   9.806  0.0298 -0.0230  0.1606
  480loPI   C1A 7671   7.436   9.726   9.804  0.1241  0.0604  0.0752
  480loPI   C2A 7672   7.382   9.632   9.376 -0.1038  0.0240  0.1515
  480loPI   C3A 7673   7.399   9.553   8.914  0.2564  0.0155 -0.1708
  480loPI   C4A 7674   7.445   9.741   8.485  0.1808  0.1011 -0.2531
  480loPI   C5A 7675   7.547   9.594   8.061  0.2176  0.4635 -0.0129
  480loPI   C6A 7676   7.730   9.859   7.762  0.0594  0.1728 -0.0989
  480loPI   C1B 7677   7.825  10.213   9.430  0.3586 -0.1852 -0.1060
  480loPI   C2B 7678   7.834  10.136   8.971 -0.1786 -0.1785 -0.1649
  480loPI   C3B 7679   8.130  10.242   8.594  0.2321 -0.1438 -0.1000
  480loPI   C4B 7680   8.294  10.324   8.184  0.3629 -0.0042  0.0324
  481loPI    C1 7681  14.195   1.909  10.940 -0.1737  0.1167  0.1479
  481loPI    C2 7682  14.201   1.662  11.255  0.0208 -0.0132  0.0447
  481loPI    C3 7683  14.245   2.056  11.308  0.1081 -0.0400  0.1752
  481loPI   PO4 7684  14.042   1.733  10.787  0.1782 -0.0657 -0.1266
  481loPI   GL1 7685  14.050   1.749  10.430 -0.1694  0.1044  0.3351
  481loPI   GL2 7686  14.248   1.649  10.258  0.0410  0.1713 -0.0586
  481loPI   C1A 7687  13.797   1.973  10.033 -0.0764  0.0860  0.1248
  481loPI   C2A 7688  13.718   2.091   9.669 -0.0838  0.1390  0.0373
  481loPI   C3A 7689  13.963   1.992   9.255  0.0280 -0.2190 -0.2729
  481loPI   C4A 7690  13.854   1.934   8.896  0.0666 -0.1089  0.0198
  481loPI   C5A 7691  13.923   2.054   8.542  0.0124 -0.3626 -0.1815
  481loPI   C6A 7692  14.106   2.554   8.439 -0.0290 -0.1994  0.0306
  481loPI   C1B 7693  14.077   1.465   9.908  0.0286  0.1091  0.0101
  481loPI   C2B 7694  14.094   1.599   9.489 -0.1876  0.1471  0.0135
  481loPI   C3B 7695  14.142   1.578   9.043 -0.0129  0.1117  0.0217
  481loPI   C4B 7696  14.182   1.524   8.629 -0.3344 -0.1060 -0.2485
  482loPI    C1 7697   0.998  17.705  10.995  0.1000  0.2177  0.0243
  482loPI    C2 7698   1.309  17.453  10.978  0.0314  0.1572 -0.4708
  482loPI    C3 7699   1.044  17.424  11.277  0.2983 -0.0285 -0.2472
  482loPI   PO4 7700   0.893  17.694  10.741 -0.0673  0.0247  0.0159
  482loPI   GL1 7701   0.716  17.562  10.405  0.3553 -0.1849 -0.0000
  482loPI   GL2 7702   0.675  17.193  10.352  0.2904 -0.0544  0.0324
  482loPI   C1A 7703   0.755  17.636   9.997  0.4823 -0.0272  0.1617
  482loPI   C2A 7704   0.842  17.683   9.574  0.0223 -0.0387 -0.0817
  482loPI   C3A 7705   0.729  17.622   9.256  0.0713 -0.1584 -0.0659
  482loPI   C4A 7706   0.712  17.695   8.729  0.2055 -0.4893 -0.1950
  482loPI   C5A 7707   0.685  17.801   8.329 -0.1527  0.0082  0.0793
  482loPI   C6A 7708   0.830  17.575   7.967  0.0478 -0.0607 -0.1018
  482loPI   C1B 7709   0.508  17.138   9.917  0.1382 -0.1709  0.0727
  482loPI   C2B 7710   0.555  17.156   9.483  0.1899 -0.1504  0.0500
  482loPI   C3B 7711   0.472  17.121   9.121 -0.1046  0.2765  0.0745
  482loPI   C4B 7712   0.460  17.274   8.686 -0.2110 -0.0630  0.1191
  483loPI    C1 7713   1.420  17.821  10.671 -0.0737 -0.2404  0.0606
  483loPI    C2 7714   1.746  17.826  10.904 -0.0649 -0.1374  0.0466
  483loPI    C3 7715   1.441  18.074  10.980 -0.0165 -0.0263 -0.1159
  483loPI   PO4 7716   1.511  17.813  10.397  0.0063 -0.2616  0.1878
  483loPI   GL1 7717   1.115  17.847  10.218  0.1335  0.0929 -0.0171
  483loPI   GL2 7718   1.275  17.636   9.990 -0.0393 -0.1502  0.0050
  483loPI   C1A 7719   1.053  18.063   9.858  0.1314 -0.1153  0.1006
  483loPI   C2A 7720   0.931  18.152   9.399 -0.3083 -0.0150 -0.3879
  483loPI   C3A 7721   0.854  18.184   8.893  0.2014 -0.2171 -0.0264
  483loPI   C4A 7722   0.851  18.293   8.484  0.0691  0.2730  0.0518
  483loPI   C5A 7723   0.705  18.183   8.054  0.0892 -0.0523  0.2405
  483loPI   C6A 7724   0.431  17.905   7.690  0.1978 -0.1380  0.1081
  483loPI   C1B 7725   1.285  17.765   9.542 -0.0460 -0.0270  0.2207
  483loPI   C2B 7726   1.180  17.812   9.116 -0.1066  0.0343  0.2284
  483loPI   C3B 7727   1.172  17.874   8.601 -0.1045  0.0298  0.2818
  483loPI   C4B 7728   1.148  17.907   8.154 -0.0131 -0.3606  0.1287
  484loPI    C1 7729   6.410   1.728  11.133  0.1954  0.0658  0.0009
  484loPI    C2 7730   6.518   1.564  11.482 -0.0851  0.0477  0.0812
  484loPI    C3 7731   6.256   1.866  11.475  0.0027  0.1213 -0.1072
  484loPI   PO4 7732   6.704   1.599  10.972 -0.1161  0.0225  0.0138
  484loPI   GL1 7733   6.698   1.795  10.561  0.0586 -0.0218 -0.2056
  484loPI   GL2 7734   6.332   1.685  10.637 -0.0348 -0.0961 -0.1007
  484loPI   C1A 7735   6.920   1.709  10.211  0.0036 -0.1017 -0.2237
  484loPI   C2A 7736   6.904   1.665   9.766 -0.3945  0.0739 -0.0488
  484loPI   C3A 7737   6.895   1.670   9.349 -0.1530  0.3818 -0.1907
  484loPI   C4A 7738   6.866   1.708   8.876  0.1769  0.1091  0.0060
  484loPI   C5A 7739   6.805   1.502   8.426  0.1618 -0.1476 -0.1760
  484loPI   C6A 7740   6.536   1.274   8.228  0.1479  0.2953 -0.1381
  484loPI   C1B 7741   6.361   1.633  10.142 -0.0034  0.5222  0.1443
  484loPI   C2B 7742   6.359   1.584   9.722  0.0302  0.1487 -0.0373
  484loPI   C3B 7743   6.377   1.626   9.316 -0.2883 -0.1677  0.1098
  484loPI   C4B 7744   6.377   1.626   8.811  0.1302  0.1961 -0.0841
  485loPI    C1 7745   9.768   4.059  10.895 -0.0520 -0.0801  0.1174
  485loPI    C2 7746   9.834   3.913  11.262 -0.1560 -0.2208  0.0810
  485loPI    C3 7747   9.525   4.158  11.197  0.0525  0.0662  0.1545
  485loPI   PO4 7748   9.878   3.853  10.740  0.2223 -0.0463 -0.0018
  485loPI   GL1 7749  10.269   3.830  10.501  0.2367 -0.1407  0.0906
  485loPI   GL2 7750  10.211   4.132  10.422 -0.2371 -0.1579 -0.1751
  485loPI   C1A 7751  10.521   3.639  10.140 -0.6000  0.2460  0.0888
  485loPI   C2A 7752  10.409   3.744   9.707  0.0549  0.1778 -0.3217
  485loPI   C3A 7753  10.447   3.810   9.297 -0.1298 -0.2746  0.0127
  485loPI   C4A 7754  10.631   3.716   8.879 -0.1008  0.1143 -0.2319
  485loPI   C5A 7755  10.751   3.706   8.402  0.0562  0.0950  0.0525
  485loPI   C6A 7756  10.505   3.924   8.146  0.2896  0.0265 -0.0240
  485loPI   C1B 7757  10.039   4.123   9.941 -0.3228  0.0468  0.0346
  485loPI   C2B 7758  10.094   4.182   9.455  0.2745 -0.1817 -0.2084
  485loPI   C3B 7759  10.299   4.162   8.986  0.1040  0.0678  0.1966
  485loPI   C4B 7760  10.293   3.898   8.630  0.1918 -0.0266  0.2164
  486loPI    C1 7761   7.035   5.981  11.116  0.0617 -0.0022  0.0325
  486loPI    C2 7762   6.733   6.029  11.374 -0.1529  0.1035 -0.2334
  486loPI    C3 7763   6.914   5.674  11.342 -0.1314  0.0861  0.0515
  486loPI   PO4 7764   6.926   6.115  10.895 -0.1049 -0.2281  0.1134
  486loPI   GL1 7765   6.964   6.015  10.524 -0.1067 -0.4923 -0.0255
  486loPI   GL2 7766   7.296   6.004  10.466  0.0680  0.4953  0.0005
  486loPI   C1A 7767   6.978   5.915  10.110  0.1558 -0.2246 -0.0028
  486loPI   C2A 7768   6.987   5.856   9.627 -0.1570  0.1268  0.4207
  486loPI   C3A 7769   6.878   5.798   9.157 -0.3568  0.0371  0.2004
  486loPI   C4A 7770   6.915   5.854   8.736 -0.1769  0.0087 -0.0158
  486loPI   C5A 7771   7.146   5.766   8.304  0.0056 -0.1197 -0.1185
  486loPI   C6A 7772   7.535   5.882   8.156 -0.0590  0.1462  0.4109
  486loPI   C1B 7773   7.207   6.357  10.227  0.0423  0.2188 -0.3663
  486loPI   C2B 7774   7.248   6.329   9.768  0.1090 -0.2289  0.0794
  486loPI   C3B 7775   7.149   6.309   9.366 -0.0452  0.3525  0.1490
  486loPI   C4B 7776   7.090   6.299   8.916 -0.1691  0.1863  0.0092
  487loPI    C1 7777  14.019  17.139  11.197  0.0334  0.1278 -0.2937
  487loPI    C2 7778  14.256  16.881  11.389  0.1372  0.6077  0.2518
  487loPI    C3 7779  13.865  16.895  11.474  0.0279  0.2789 -0.1621
  487loPI   PO4 7780  13.964  17.120  10.861  0.0463  0.1285  0.3984
  487loPI   GL1 7781  14.039  17.019  10.403  0.0180 -0.0727  0.1075
  487loPI   GL2 7782  14.149  17.335  10.363 -0.2117 -0.0649  0.0579
  487loPI   C1A 7783  14.086  16.832  10.062 -0.0437 -0.1049  0.2605
  487loPI   C2A 7784  14.106  16.744   9.556  0.0156 -0.1251  0.0904
  487loPI   C3A 7785  13.972  16.723   9.183  0.1066 -0.1229 -0.0791
  487loPI   C4A 7786  13.893  16.918   8.784 -0.1874 -0.0593 -0.2179
  487loPI   C5A 7787  13.871  16.986   8.421 -0.3458  0.1113  0.0497
  487loPI   C6A 7788  14.024  17.031   7.976  0.2367 -0.1922  0.2319
  487loPI   C1B 7789  14.358  17.260  10.012  0.3787 -0.1927 -0.2402
  487loPI   C2B 7790  14.310  17.285   9.555 -0.0708  0.0045 -0.3252
  487loPI   C3B 7791  14.203  17.219   9.248 -0.2118  0.0032  0.0018
  487loPI   C4B 7792  14.190  17.351   8.832 -0.2235 -0.1187  0.2897
  488loPI    C1 7793   4.778   3.562  10.968  0.2594  0.0921 -0.0363
  488loPI    C2 7794   4.761   3.191  11.119  0.1474  0.1811  0.1752
  488loPI    C3 7795   4.434   3.421  11.117  0.1764  0.2238 -0.1017
  488loPI   PO4 7796   4.898   3.566  10.726 -0.3005 -0.0516  0.0130
  488loPI   GL1 7797   4.730   3.519  10.282 -0.1373 -0.1452 -0.1419
  488loPI   GL2 7798   4.955   3.272  10.311 -0.2834  0.0763  0.1577
  488loPI   C1A 7799   4.621   3.587   9.877 -0.0572  0.2378 -0.0498
  488loPI   C2A 7800   4.640   3.563   9.376 -0.1251  0.2782  0.0977
  488loPI   C3A 7801   4.602   3.611   8.946 -0.1631 -0.1591 -0.0223
  488loPI   C4A 7802   4.535   3.467   8.578  0.2301  0.0070 -0.3557
  488loPI   C5A 7803   4.513   3.603   8.070 -0.1250  0.0998 -0.0749
  488loPI   C6A 7804   4.848   3.955   7.842 -0.1248 -0.2598  0.0035
  488loPI   C1B 7805   4.971   3.223   9.811  0.3184  0.1683 -0.0867
  488loPI   C2B 7806   5.028   3.164   9.335  0.3060 -0.0928 -0.1127
  488loPI   C3B 7807   4.883   3.137   9.010 -0.0466 -0.4013  0.1652
  488loPI   C4B 7808   4.926   3.105   8.544  0.0220 -0.1022 -0.4369
  489loPI    C1 7809  14.593   2.718  11.001 -0.1480 -0.0713  0.0282
  489loPI    C2 7810  14.411   2.504  11.286  0.0147 -0.1182  0.0983
  489loPI    C3 7811  14.806   2.562  11.302  0.0216 -0.1019 -0.1065
  489loPI   PO4 7812  14.550   2.615  10.765  0.0574  0.0737 -0.2137
  489loPI   GL1 7813  14.729   2.327  10.464 -0.2133  0.1500 -0.1655
  489loPI   GL2 7814  14.391   2.131  10.512 -0.2985  0.1125  0.1149
  489loPI   C1A 7815  14.794   2.275   9.963  0.1359 -0.0031 -0.0381
  489loPI   C2A 7816  14.837   2.182   9.518  0.0087  0.2982 -0.1907
  489loPI   C3A 7817  14.935   2.221   9.075  0.3670 -0.1458  0.0283
  489loPI   C4A 7818  14.914   2.217   8.726 -0.1831  0.2052 -0.0255
  489loPI   C5A 7819  14.952   2.110   8.344  0.0191 -0.1679 -0.2202
  489loPI   C6A 7820  14.975   1.994   7.852  0.0022 -0.0130 -0.1421
  489loPI   C1B 7821  14.255   2.095  10.037  0.0562  0.0310 -0.0544
  489loPI   C2B 7822  14.341   2.191   9.660  0.3059  0.3945  0.0802
  489loPI   C3B 7823  14.398   2.197   9.192  0.0082 -0.3002 -0.0505
  489loPI   C4B 7824  14.357   2.142   8.710  0.0705 -0.2438 -0.0763
  490loPI    C1 7825   6.235   0.417  11.171 -0.0206 -0.0229 -0.0052
  490loPI    C2 7826   6.235   0.035  11.055 -0.2081 -0.0819  0.1831
  490loPI    C3 7827   6.479   0.154  11.349  0.2516  0.0632 -0.2427
  490loPI   PO4 7828   6.228   0.543  10.788 -0.0800 -0.0407 -0.0923
  490loPI   GL1 7829   6.386   0.387  10.418 -0.2221 -0.1553  0.1479
  490loPI   GL2 7830   6.656   0.498  10.443 -0.1347  0.1208 -0.1262
  490loPI   C1A 7831   6.268   0.386   9.986  0.3144 -0.1615 -0.1535
  490loPI   C2A 7832   6.307   0.269   9.646 -0.0937  0.1607 -0.2884
  490loPI   C3A 7833   6.310   0.181   9.316 -0.1674 -0.0415 -0.2512
  490loPI   C4A 7834   6.292   0.173   8.823 -0.1577  0.0944 -0.0160
  490loPI   C5A 7835   6.093   0.194   8.385 -0.2653 -0.0263 -0.3826
  490loPI   C6A 7836   5.882   0.469   8.114  0.0530 -0.0441 -0.2025
  490loPI   C1B 7837   6.851   0.489   9.997  0.1332  0.1637 -0.1805
  490loPI   C2B 7838   6.754   0.381   9.493 -0.1635  0.2452  0.0864
  490loPI   C3B 7839   6.738   0.362   9.053  0.1021 -0.1271 -0.0814
  490loPI   C4B 7840   6.790   0.282   8.565  0.2679 -0.0813 -0.0881
  491loPI    C1 7841   4.920   5.317  10.913 -0.2456 -0.1297 -0.0161
  491loPI    C2 7842   4.615   5.135  11.096 -0.1505  0.1311  0.4168
  491loPI    C3 7843   4.761   5.476  11.243  0.1704  0.1575  0.0532
  491loPI   PO4 7844   4.826   5.355  10.638  0.0946  0.1848  0.3744
  491loPI   GL1 7845   4.784   5.197  10.229  0.0748  0.0188  0.0192
  491loPI   GL2 7846   4.946   4.950  10.306 -0.2439  0.0386  0.3864
  491loPI   C1A 7847   4.672   5.046   9.856 -0.0500  0.1969 -0.1821
  491loPI   C2A 7848   4.786   4.978   9.525  0.2025  0.3775  0.0691
  491loPI   C3A 7849   4.768   5.050   9.152 -0.0553 -0.2426  0.1576
  491loPI   C4A 7850   4.571   4.890   8.689  0.0839 -0.0549 -0.2324
  491loPI   C5A 7851   4.577   4.663   8.301  0.0896 -0.0076 -0.0856
  491loPI   C6A 7852   4.304   4.242   8.256 -0.0514 -0.2817  0.0605
  491loPI   C1B 7853   5.130   4.740   9.907 -0.1638  0.0513  0.0424
  491loPI   C2B 7854   5.116   4.573   9.466  0.0527 -0.1928 -0.0850
  491loPI   C3B 7855   5.060   4.679   8.995 -0.0637 -0.3647  0.1735
  491loPI   C4B 7856   5.034   4.541   8.585 -0.1765 -0.2801  0.0013
  492loPI    C1 7857   8.203   1.470  10.853  0.2000 -0.0475 -0.1326
  492loPI    C2 7858   8.127   1.674  11.189 -0.1265 -0.0137 -0.2240
  492loPI    C3 7859   8.274   1.302  11.209  0.1857  0.1154 -0.0520
  492loPI   PO4 7860   8.065   1.637  10.706  0.0509 -0.0339  0.1348
  492loPI   GL1 7861   7.957   1.570  10.328 -0.0723 -0.1529  0.1037
  492loPI   GL2 7862   7.762   1.320  10.258 -0.2495 -0.1138  0.2162
  492loPI   C1A 7863   8.194   1.532   9.922  0.1470 -0.1787 -0.0015
  492loPI   C2A 7864   8.197   1.485   9.458 -0.0897 -0.0173  0.3982
  492loPI   C3A 7865   8.144   1.484   8.979  0.4695 -0.1127  0.0456
  492loPI   C4A 7866   8.122   1.415   8.529  0.2039 -0.1290  0.0205
  492loPI   C5A 7867   7.937   1.667   8.203 -0.2301  0.0262  0.1473
  492loPI   C6A 7868   7.692   2.021   8.047 -0.0822  0.2830  0.1855
  492loPI   C1B 7869   7.678   1.416   9.780 -0.0569  0.1694 -0.1057
  492loPI   C2B 7870   7.697   1.370   9.256  0.0137 -0.0776  0.4973
  492loPI   C3B 7871   7.696   1.430   8.785  0.0431 -0.0993 -0.2255
  492loPI   C4B 7872   7.610   1.262   8.408 -0.1210 -0.0140 -0.2450
  493loPI    C1 7873  11.177  13.523  10.914  0.1631 -0.0094 -0.0642
  493loPI    C2 7874  11.407  13.687  11.197  0.1142 -0.1603  0.0643
  493loPI    C3 7875  11.142  13.403  11.294 -0.1126 -0.0034 -0.0855
  493loPI   PO4 7876  11.383  13.511  10.707 -0.1909  0.0947  0.4101
  493loPI   GL1 7877  11.465  13.527  10.257  0.0017  0.3113 -0.2041
  493loPI   GL2 7878  11.707  13.333  10.240 -0.2624 -0.0143  0.5122
  493loPI   C1A 7879  11.550  13.383   9.798 -0.1576 -0.0237  0.0318
  493loPI   C2A 7880  11.619  13.187   9.373  0.0131 -0.1261  0.0151
  493loPI   C3A 7881  11.732  13.091   9.001 -0.1987  0.1441  0.2712
  493loPI   C4A 7882  11.762  13.130   8.642 -0.0715 -0.1344  0.1218
  493loPI   C5A 7883  11.984  13.105   8.283 -0.0502  0.1888 -0.0218
  493loPI   C6A 7884  12.329  13.102   8.199  0.0878 -0.0613 -0.0135
  493loPI   C1B 7885  12.003  13.303   9.933 -0.0043 -0.2362 -0.4810
  493loPI   C2B 7886  12.208  13.294   9.575  0.0213  0.0702 -0.0928
  493loPI   C3B 7887  12.182  13.285   9.211 -0.0700  0.1773 -0.0118
  493loPI   C4B 7888  12.258  13.208   8.729 -0.2177  0.2160  0.0439
  494loPI    C1 7889  11.401  17.814  10.547 -0.0699  0.1966  0.0129
  494loPI    C2 7890  11.730  18.033  10.485  0.0796  0.0897  0.4008
  494loPI    C3 7891  11.556  18.031  10.845 -0.2849  0.0583  0.2288
  494loPI   PO4 7892  11.525  17.576  10.469 -0.0469 -0.0146 -0.3064
  494loPI   GL1 7893  11.438  17.239  10.234 -0.2104  0.2871  0.1930
  494loPI   GL2 7894  11.694  17.081  10.359 -0.2216  0.0543 -0.0856
  494loPI   C1A 7895  11.417  17.194   9.759  0.2166  0.1515 -0.2186
  494loPI   C2A 7896  11.375  17.316   9.419  0.2626  0.1001 -0.2791
  494loPI   C3A 7897  11.435  17.396   8.992 -0.2305  0.0748  0.1319
  494loPI   C4A 7898  11.309  17.436   8.594 -0.0398  0.1812 -0.0269
  494loPI   C5A 7899  11.278  17.433   8.201 -0.1980 -0.1003  0.0749
  494loPI   C6A 7900  11.441  17.172   7.840  0.4803 -0.2445  0.0330
  494loPI   C1B 7901  11.832  16.925   9.995 -0.2900  0.0337  0.0356
  494loPI   C2B 7902  11.753  16.825   9.548  0.2722 -0.2770  0.0499
  494loPI   C3B 7903  11.596  16.927   9.137 -0.0642 -0.1011 -0.1308
  494loPI   C4B 7904  11.694  16.985   8.667 -0.0365  0.1542  0.1817
  495loPI    C1 7905   0.653  14.395  11.231 -0.0429 -0.0246 -0.1274
  495loPI    C2 7906   0.845  14.148  11.481  0.1624  0.0453 -0.2137
  495loPI    C3 7907   0.822  14.539  11.564  0.0691  0.0394 -0.2108
  495loPI   PO4 7908   0.715  14.270  10.958  0.1662  0.0047 -0.2454
  495loPI   GL1 7909   0.732  14.044  10.482 -0.1108 -0.0550 -0.3849
  495loPI   GL2 7910   0.834  13.691  10.674  0.0618 -0.2542  0.0451
  495loPI   C1A 7911   0.706  14.000  10.087 -0.1402  0.0059  0.1269
  495loPI   C2A 7912   0.659  13.976   9.771  0.0713 -0.1613 -0.2916
  495loPI   C3A 7913   0.693  13.979   9.384  0.0380 -0.0905  0.1816
  495loPI   C4A 7914   0.653  13.971   8.909  0.2808 -0.1309  0.1134
  495loPI   C5A 7915   0.463  13.776   8.489 -0.0709 -0.1398  0.6793
  495loPI   C6A 7916   0.282  13.879   8.148  0.1584 -0.2938  0.0352
  495loPI   C1B 7917   0.586  13.548  10.271  0.0184  0.1283 -0.0905
  495loPI   C2B 7918   0.593  13.496   9.879 -0.0803  0.0017 -0.0594
  495loPI   C3B 7919   0.525  13.530   9.488 -0.0280  0.0318 -0.1545
  495loPI   C4B 7920   0.500  13.486   9.125  0.2678  0.0539 -0.2230
  496loPI    C1 7921   7.381   4.994  11.051 -0.0570 -0.1391 -0.0839
  496loPI    C2 7922   7.327   5.296  11.309  0.1527 -0.0852 -0.1013
  496loPI    C3 7923   7.417   4.930  11.444 -0.0682 -0.1343 -0.0821
  496loPI   PO4 7924   7.311   5.124  10.788 -0.0238  0.0440  0.0633
  496loPI   GL1 7925   7.109   5.027  10.435  0.0592 -0.1045  0.2613
  496loPI   GL2 7926   6.833   5.267  10.382 -0.1802  0.1774  0.0079
  496loPI   C1A 7927   7.186   4.956  10.036  0.0429  0.0496 -0.1343
  496loPI   C2A 7928   7.114   5.014   9.578 -0.3248 -0.0264  0.1522
  496loPI   C3A 7929   7.099   4.930   9.197  0.0013 -0.1801 -0.0106
  496loPI   C4A 7930   7.026   4.943   8.727 -0.0146  0.1420  0.0093
  496loPI   C5A 7931   6.953   5.040   8.306 -0.0116  0.1814 -0.0025
  496loPI   C6A 7932   6.874   5.419   8.162  0.0955 -0.2351  0.1007
  496loPI   C1B 7933   6.851   5.377   9.936 -0.0680  0.1008 -0.2790
  496loPI   C2B 7934   6.800   5.399   9.453 -0.0099  0.1404  0.2165
  496loPI   C3B 7935   6.757   5.256   8.985 -0.0166 -0.0733  0.0262
  496loPI   C4B 7936   6.719   5.332   8.626  0.0847 -0.1259 -0.1279
  497loPI    C1 7937  14.347  14.778  11.082  0.0974 -0.3290  0.0034
  497loPI    C2 7938  14.016  14.961  11.215  0.0782 -0.2039 -0.2108
  497loPI    C3 7939  14.199  14.687  11.442 -0.0421 -0.1084  0.0043
  497loPI   PO4 7940  14.283  14.886  10.795 -0.2039  0.1779 -0.1280
  497loPI   GL1 7941  13.999  14.755  10.428 -0.1733  0.1202 -0.3501
  497loPI   GL2 7942  13.821  14.910  10.265 -0.0045  0.0198 -0.0087
  497loPI   C1A 7943  14.088  14.544   9.992  0.3816 -0.1019 -0.0099
  497loPI   C2A 7944  14.064  14.658   9.559  0.0341  0.1393  0.0488
  497loPI   C3A 7945  14.093  14.525   9.227  0.2077 -0.0250  0.1148
  497loPI   C4A 7946  14.054  14.604   8.825  0.2655 -0.1457 -0.2248
  497loPI   C5A 7947  14.202  14.859   8.393  0.2248  0.4152  0.0547
  497loPI   C6A 7948  14.180  15.309   8.313  0.0239 -0.1676 -0.2550
  497loPI   C1B 7949  13.740  14.959   9.839 -0.1260 -0.3735 -0.0181
  497loPI   C2B 7950  13.705  15.024   9.385  0.1204  0.1424  0.0589
  497loPI   C3B 7951  13.783  14.999   8.895 -0.1816  0.0552  0.3209
  497loPI   C4B 7952  13.737  14.860   8.543 -0.2539 -0.1453 -0.3005
  498loPI    C1 7953   6.732  15.380  10.878 -0.0308 -0.0779  0.2264
  498loPI    C2 7954   6.948  15.711  10.938 -0.1569  0.0900 -0.2038
  498loPI    C3 7955   7.125  15.352  10.946 -0.0028  0.1697  0.1736
  498loPI   PO4 7956   6.498  15.428  10.563 -0.1177 -0.0803  0.0616
  498loPI   GL1 7957   6.505  15.450  10.157 -0.2947  0.0030 -0.1090
  498loPI   GL2 7958   6.532  15.829  10.226 -0.0343 -0.1641  0.0768
  498loPI   C1A 7959   6.311  15.307   9.826 -0.1105 -0.1903  0.0327
  498loPI   C2A 7960   6.265  15.314   9.352  0.0550 -0.2314 -0.1332
  498loPI   C3A 7961   6.125  15.329   8.960  0.1624 -0.1270 -0.0579
  498loPI   C4A 7962   6.075  15.353   8.471  0.2318  0.1796  0.1024
  498loPI   C5A 7963   5.777  15.298   8.180 -0.0186 -0.0245  0.3132
  498loPI   C6A 7964   5.760  15.378   7.745  0.0183  0.1823 -0.0989
  498loPI   C1B 7965   6.450  15.793   9.779  0.0602  0.0434  0.0403
  498loPI   C2B 7966   6.417  15.824   9.388  0.2470 -0.2384  0.1449
  498loPI   C3B 7967   6.330  15.842   8.998 -0.1496  0.2636 -0.0575
  498loPI   C4B 7968   6.188  15.916   8.575 -0.0253  0.0100 -0.0837
  499loPI    C1 7969   5.562  17.879  10.660 -0.0393  0.1243  0.0417
  499loPI    C2 7970   5.532  17.595  10.940 -0.1849  0.1991  0.1027
  499loPI    C3 7971   5.892  17.714  10.814 -0.1210  0.0877  0.1788
  499loPI   PO4 7972   5.473  17.792  10.436 -0.1490  0.1106 -0.1067
  499loPI   GL1 7973   5.538  17.751  10.022 -0.0481 -0.3182 -0.0950
  499loPI   GL2 7974   5.305  18.021   9.954  0.1622 -0.2422  0.0616
  499loPI   C1A 7975   5.664  17.708   9.692 -0.0479  0.0512  0.1739
  499loPI   C2A 7976   5.633  17.624   9.226 -0.1228 -0.1172 -0.1378
  499loPI   C3A 7977   5.664  17.577   8.784  0.0708 -0.0932 -0.2504
  499loPI   C4A 7978   5.531  17.645   8.354 -0.1204  0.1659 -0.0327
  499loPI   C5A 7979   5.423  18.014   8.044 -0.0587  0.2892 -0.2519
  499loPI   C6A 7980   5.121  18.186   7.883 -0.0193 -0.0062 -0.1528
  499loPI   C1B 7981   5.365  18.088   9.596  0.2443 -0.3354 -0.2560
  499loPI   C2B 7982   5.298  18.022   9.113 -0.0842 -0.0101 -0.0870
  499loPI   C3B 7983   5.120  17.877   8.722 -0.1160 -0.3981  0.1534
  499loPI   C4B 7984   5.050  17.885   8.361 -0.0771  0.1507 -0.0773
  500loPI    C1 7985  12.426   8.974  10.622 -0.0612 -0.0924  0.0939
  500loPI    C2 7986  12.499   8.799  10.975  0.0920  0.0251  0.1217
  500loPI    C3 7987  12.368   9.177  10.962 -0.1025 -0.0429  0.0575
  500loPI   PO4 7988  12.646   8.881  10.492 -0.0232  0.0987 -0.2799
  500loPI   GL1 7989  12.951   9.086  10.205 -0.2508  0.0203 -0.1082
  500loPI   GL2 7990  12.907   8.824  10.036  0.1008  0.0125  0.1279
  500loPI   C1A 7991  13.032   9.246   9.822  0.4597 -0.2757  0.1414
  500loPI   C2A 7992  13.110   9.275   9.454 -0.2617 -0.0007 -0.0016
  500loPI   C3A 7993  13.288   9.268   9.107 -0.0157 -0.0680  0.1980
  500loPI   C4A 7994  13.262   9.206   8.597  0.1156  0.1515 -0.3010
  500loPI   C5A 7995  13.216   9.211   8.163  0.1559 -0.2524 -0.3437
  500loPI   C6A 7996  12.996   8.950   7.924  0.0788 -0.0925 -0.0750
  500loPI   C1B 7997  12.918   8.754   9.579  0.0117 -0.1620  0.2094
  500loPI   C2B 7998  12.969   8.681   9.179 -0.2153 -0.3960 -0.0315
  500loPI   C3B 7999  13.044   8.737   8.744  0.3218 -0.2266  0.1756
  500loPI   C4B 8000  13.104   8.734   8.412  0.0880  0.0824  0.0456
  501loPI    C1 8001   4.852   9.068  10.355  0.1819 -0.2105 -0.0856
  501loPI    C2 8002   4.944   9.132  10.739 -0.0372  0.1521 -0.0896
  501loPI    C3 8003   5.199   8.933  10.503  0.1258 -0.0217  0.2263
  501loPI   PO4 8004   4.602   8.986  10.399 -0.1068  0.1198  0.4060
  501loPI   GL1 8005   4.473   8.731  10.134 -0.1597  0.4950 -0.2434
  501loPI   GL2 8006   4.451   8.468  10.250  0.1664 -0.0677  0.0927
  501loPI   C1A 8007   4.489   8.637   9.706 -0.0932 -0.3165 -0.3238
  501loPI   C2A 8008   4.559   8.588   9.263 -0.0301 -0.0479  0.0003
  501loPI   C3A 8009   4.576   8.634   8.857  0.1853 -0.3714 -0.0624
  501loPI   C4A 8010   4.597   8.813   8.436 -0.4142  0.1379 -0.2100
  501loPI   C5A 8011   4.680   9.051   8.069  0.1550 -0.1944 -0.0397
  501loPI   C6A 8012   4.310   9.261   7.769 -0.1821 -0.0868 -0.4330
  501loPI   C1B 8013   4.286   8.253   9.926 -0.2193 -0.0932  0.0699
  501loPI   C2B 8014   4.450   8.169   9.516  0.0033 -0.4169  0.0058
  501loPI   C3B 8015   4.447   8.155   9.046 -0.1356  0.1924 -0.0531
  501loPI   C4B 8016   4.453   8.126   8.678  0.0818 -0.0822 -0.1350
  502loPI    C1 8017   2.972   4.412  10.953 -0.0385  0.0714 -0.1241
  502loPI    C2 8018   3.065   4.312  11.330  0.0255  0.0194 -0.1536
  502loPI    C3 8019   2.866   4.651  11.256 -0.1458 -0.0591 -0.0574
  502loPI   PO4 8020   3.070   4.223  10.788  0.0222  0.0362  0.1372
  502loPI   GL1 8021   3.260   4.210  10.458 -0.0328  0.1125 -0.1951
  502loPI   GL2 8022   3.037   4.030  10.309 -0.1324 -0.0864  0.3968
  502loPI   C1A 8023   3.395   4.378  10.018 -0.0262 -0.0144 -0.2044
  502loPI   C2A 8024   3.358   4.264   9.625  0.0869  0.0287  0.0963
  502loPI   C3A 8025   3.450   4.299   9.273 -0.3452 -0.1513 -0.0885
  502loPI   C4A 8026   3.422   4.348   8.851  0.1509 -0.0907 -0.6266
  502loPI   C5A 8027   3.396   4.382   8.430  0.3021 -0.0783  0.1314
  502loPI   C6A 8028   3.218   4.414   7.965  0.1479 -0.3353 -0.2352
  502loPI   C1B 8029   3.266   3.853   9.937  0.0958  0.0358  0.2386
  502loPI   C2B 8030   3.210   3.844   9.407 -0.3168  0.1412  0.0380
  502loPI   C3B 8031   3.316   3.768   9.041  0.0692 -0.0328 -0.3877
  502loPI   C4B 8032   3.278   3.855   8.617  0.2032 -0.0680  0.3006
  503loPI    C1 8033  13.776  17.533  10.670  0.0992 -0.3210 -0.0479
  503loPI    C2 8034  13.529  17.427  10.966  0.0954 -0.0303  0.0571
  503loPI    C3 8035  13.885  17.587  11.052  0.1640 -0.0989 -0.0962
  503loPI   PO4 8036  13.643  17.289  10.434  0.1752 -0.0512 -0.0542
  503loPI   GL1 8037  13.537  17.044  10.115 -0.4074 -0.4021 -0.1112
  503loPI   GL2 8038  13.831  17.202   9.955 -0.2209 -0.1036 -0.1428
  503loPI   C1A 8039  13.253  17.057   9.767 -0.1216  0.0839 -0.0650
  503loPI   C2A 8040  13.154  17.089   9.325  0.0657  0.2011 -0.1952
  503loPI   C3A 8041  13.164  17.148   8.898  0.0044 -0.0821 -0.0406
  503loPI   C4A 8042  13.178  17.401   8.479  0.0993  0.0109  0.1001
  503loPI   C5A 8043  13.301  17.685   8.159  0.2266  0.0694  0.1738
  503loPI   C6A 8044  13.732  17.910   8.210  0.3235 -0.1161  0.1375
  503loPI   C1B 8045  13.755  17.077   9.573 -0.3562 -0.0002 -0.1897
  503loPI   C2B 8046  13.652  17.151   9.182 -0.2408  0.2143  0.3450
  503loPI   C3B 8047  13.596  17.384   8.734 -0.2724  0.1545 -0.1882
  503loPI   C4B 8048  13.619  17.403   8.305 -0.3192  0.0363  0.0527
  504loPI    C1 8049   8.407  12.614  10.683  0.0212  0.0695 -0.0475
  504loPI    C2 8050   8.760  12.447  10.766  0.0198  0.0246 -0.1308
  504loPI    C3 8051   8.549  12.623  11.056 -0.0958 -0.3387  0.0114
  504loPI   PO4 8052   8.442  12.588  10.330 -0.1130  0.0499 -0.1077
  504loPI   GL1 8053   8.477  12.387   9.921  0.1436 -0.0128  0.0358
  504loPI   GL2 8054   8.122  12.437   9.813 -0.3581  0.1407  0.0640
  504loPI   C1A 8055   8.621  12.651   9.514 -0.2269 -0.1292  0.3388
  504loPI   C2A 8056   8.530  12.624   9.121 -0.1182  0.3123 -0.1009
  504loPI   C3A 8057   8.510  12.676   8.747  0.0625 -0.2155  0.0309
  504loPI   C4A 8058   8.380  12.615   8.282 -0.0282  0.3522 -0.1731
  504loPI   C5A 8059   8.726  12.621   8.059  0.0149 -0.0890 -0.4203
  504loPI   C6A 8060   9.095  12.503   7.928  0.0974 -0.2014 -0.1968
  504loPI   C1B 8061   8.057  12.509   9.375  0.0834  0.0685 -0.0666
  504loPI   C2B 8062   8.065  12.552   9.008  0.1298  0.3695 -0.1907
  504loPI   C3B 8063   7.960  12.646   8.651 -0.0762  0.1124  0.0818
  504loPI   C4B 8064   7.845  12.711   8.174  0.1437 -0.2425 -0.2071
  505loPI    C1 8065   9.404   1.245  10.763 -0.1196  0.2651  0.0580
  505loPI    C2 8066   9.566   1.015  11.047  0.3045  0.5420  0.0510
  505loPI    C3 8067   9.186   1.136  11.079  0.0595 -0.1766  0.0357
  505loPI   PO4 8068   9.454   1.183  10.540  0.1762 -0.2038 -0.0825
  505loPI   GL1 8069   9.532   1.453  10.218 -0.0304  0.0126  0.2299
  505loPI   GL2 8070   9.780   1.531  10.459  0.0565  0.1057  0.0119
  505loPI   C1A 8071   9.656   1.407   9.777 -0.1508  0.1923 -0.2104
  505loPI   C2A 8072   9.656   1.361   9.350  0.0825  0.0358 -0.4275
  505loPI   C3A 8073   9.474   1.317   8.960  0.2664  0.0565  0.2288
  505loPI   C4A 8074   9.568   1.384   8.551 -0.0333 -0.0753  0.1430
  505loPI   C5A 8075   9.565   1.094   8.275  0.2381 -0.0865 -0.1585
  505loPI   C6A 8076   9.846   0.879   8.113  0.0058 -0.1971  0.1626
  505loPI   C1B 8077   9.886   1.745  10.092 -0.0852  0.0560 -0.2058
  505loPI   C2B 8078   9.921   1.870   9.651 -0.0518  0.2894 -0.0600
  505loPI   C3B 8079   9.783   1.841   9.233 -0.2138  0.1549 -0.3611
  505loPI   C4B 8080   9.687   1.839   8.781 -0.0890  0.0853 -0.0634
  506loPI    C1 8081  14.353  10.851  10.796 -0.2542  0.2825 -0.1761
  506loPI    C2 8082  14.409  10.977  11.172  0.0649  0.1293 -0.1684
  506loPI    C3 8083  14.045  10.995  11.006 -0.0875  0.1572  0.1615
  506loPI   PO4 8084  14.578  10.919  10.707 -0.0415 -0.0339 -0.1551
  506loPI   GL1 8085  14.689  11.032  10.324  0.1633  0.5369 -0.0661
  506loPI   GL2 8086  15.097  11.043  10.239  0.2552  0.1188 -0.2744
  506loPI   C1A 8087  14.744  11.017   9.924 -0.0396  0.0160  0.0840
  506loPI   C2A 8088  14.680  10.948   9.518  0.2014  0.2010 -0.0300
  506loPI   C3A 8089  14.738  10.951   9.126 -0.0065  0.1329  0.1645
  506loPI   C4A 8090  14.691  10.831   8.725  0.0660  0.2257  0.0537
  506loPI   C5A 8091  14.436  10.676   8.411 -0.0408 -0.0609 -0.0866
  506loPI   C6A 8092  14.127  10.373   8.252  0.1810 -0.0313 -0.1421
  506loPI   C1B 8093  15.220  11.116   9.804  0.1519 -0.1986 -0.0145
  506loPI   C2B 8094  15.169  10.959   9.382 -0.0351 -0.0212 -0.1281
  506loPI   C3B 8095  15.245  11.116   8.998  0.0358  0.0909 -0.1219
  506loPI   C4B 8096  15.158  11.009   8.616 -0.3051  0.0116  0.1379
  507loPI    C1 8097  10.542   4.496  11.233 -0.0661  0.1154 -0.0571
  507loPI    C2 8098  10.315   4.747  11.447 -0.0195  0.1702 -0.0716
  507loPI    C3 8099  10.685   4.657  11.570 -0.0693  0.0358 -0.0172
  507loPI   PO4 8100  10.493   4.575  10.952 -0.2244  0.1961 -0.2447
  507loPI   GL1 8101  10.538   4.448  10.583  0.0311 -0.0500 -0.0924
  507loPI   GL2 8102  10.707   4.199  10.474 -0.3041 -0.2008 -0.2578
  507loPI   C1A 8103  10.312   4.602  10.243  0.1387 -0.0040 -0.0344
  507loPI   C2A 8104  10.291   4.600   9.811  0.0739 -0.0027 -0.0104
  507loPI   C3A 8105  10.328   4.593   9.440 -0.0808 -0.1320 -0.2369
  507loPI   C4A 8106  10.183   4.605   9.099  0.0942 -0.3384  0.3145
  507loPI   C5A 8107  10.182   4.434   8.611 -0.0721  0.4344  0.1840
  507loPI   C6A 8108  10.013   4.390   8.290 -0.1993 -0.1125  0.0180
  507loPI   C1B 8109  10.557   4.117  10.061 -0.0874 -0.1447  0.0760
  507loPI   C2B 8110  10.674   4.210   9.591  0.1066  0.2693  0.0153
  507loPI   C3B 8111  10.758   4.203   9.134 -0.2537 -0.0102 -0.2277
  507loPI   C4B 8112  10.732   4.210   8.692 -0.0308  0.0359 -0.0471
  508loPI    C1 8113   5.893   7.719  10.827 -0.1013  0.1157  0.0970
  508loPI    C2 8114   6.267   7.856  10.862 -0.0541 -0.0331  0.1856
  508loPI    C3 8115   5.982   7.989  11.109 -0.1220  0.2877 -0.0597
  508loPI   PO4 8116   5.826   7.696  10.546 -0.0382  0.0654  0.2066
  508loPI   GL1 8117   6.021   7.905  10.226  0.1932  0.2142  0.1492
  508loPI   GL2 8118   6.316   7.724  10.253 -0.0436 -0.3591  0.0469
  508loPI   C1A 8119   5.768   8.027   9.890  0.0034  0.1445  0.3657
  508loPI   C2A 8120   5.768   8.084   9.338  0.1955  0.2068 -0.1487
  508loPI   C3A 8121   5.853   7.906   8.912  0.0384 -0.0198  0.0961
  508loPI   C4A 8122   5.781   7.818   8.597 -0.2663 -0.0820 -0.1854
  508loPI   C5A 8123   5.689   7.609   8.099 -0.0891  0.2461 -0.0380
  508loPI   C6A 8124   5.470   7.411   7.953  0.1673  0.0755  0.0526
  508loPI   C1B 8125   6.279   7.518   9.863  0.1333 -0.0137 -0.1200
  508loPI   C2B 8126   6.209   7.462   9.482 -0.2712 -0.1395 -0.0845
  508loPI   C3B 8127   6.207   7.489   9.024 -0.1870 -0.0199  0.0484
  508loPI   C4B 8128   6.034   7.380   8.536  0.3008 -0.0313 -0.1670
  509loPI    C1 8129  13.203  13.159  10.931  0.0062 -0.0735  0.0879
  509loPI    C2 8130  13.371  13.354  11.237  0.0219  0.0637 -0.0073
  509loPI    C3 8131  13.004  13.201  11.275  0.0581  0.0045  0.1087
  509loPI   PO4 8132  13.202  13.317  10.729  0.0156 -0.0211 -0.3498
  509loPI   GL1 8133  13.231  13.346  10.444 -0.0422 -0.1398 -0.0627
  509loPI   GL2 8134  13.062  13.555  10.299  0.0563 -0.0122  0.0918
  509loPI   C1A 8135  12.988  13.073  10.100 -0.0252  0.2220 -0.0054
  509loPI   C2A 8136  12.948  12.963   9.701  0.2893  0.0666 -0.0280
  509loPI   C3A 8137  13.043  13.006   9.233  0.3416 -0.1756 -0.1475
  509loPI   C4A 8138  13.084  12.836   8.697 -0.1303  0.2619  0.1617
  509loPI   C5A 8139  13.360  12.911   8.384 -0.3508 -0.0550 -0.0523
  509loPI   C6A 8140  13.757  13.201   8.357  0.2730  0.1397 -0.0983
  509loPI   C1B 8141  13.249  13.590   9.871  0.0673 -0.0925  0.5352
  509loPI   C2B 8142  13.207  13.479   9.462  0.0843  0.0518  0.2427
  509loPI   C3B 8143  13.239  13.491   9.025 -0.1100 -0.2059  0.0884
  509loPI   C4B 8144  13.315  13.317   8.616  0.0212 -0.0276  0.0114
  510loPI    C1 8145   3.149  10.631  11.117  0.1688 -0.0931 -0.0069
  510loPI    C2 8146   3.240  10.675  11.505  0.0301 -0.2829  0.0487
  510loPI    C3 8147   3.377  10.359  11.302  0.2271 -0.1064 -0.0981
  510loPI   PO4 8148   3.237  10.905  10.986  0.0775 -0.0497  0.2668
  510loPI   GL1 8149   3.244  11.163  10.558  0.1605  0.3385 -0.1018
  510loPI   GL2 8150   3.013  11.093  10.356  0.0136  0.0332  0.3155
  510loPI   C1A 8151   3.546  11.146  10.166  0.0891 -0.2252  0.2382
  510loPI   C2A 8152   3.569  11.281   9.704  0.0472  0.4175  0.2448
  510loPI   C3A 8153   3.625  11.209   9.329  0.0333 -0.1841  0.0186
  510loPI   C4A 8154   3.601  11.240   8.977  0.0534  0.1361  0.1089
  510loPI   C5A 8155   3.572  11.322   8.590 -0.3981  0.0250 -0.0223
  510loPI   C6A 8156   3.817  11.210   8.209  0.2434 -0.0221 -0.1495
  510loPI   C1B 8157   3.113  11.258   9.981  0.1027 -0.0647  0.0277
  510loPI   C2B 8158   3.093  11.105   9.539  0.1124  0.2329 -0.0458
  510loPI   C3B 8159   3.144  11.142   9.187 -0.0094 -0.2261  0.1769
  510loPI   C4B 8160   3.114  11.140   8.749 -0.0369  0.1746  0.1145
  511loPI    C1 8161  12.047  12.947  10.767  0.0308  0.0306 -0.1945
  511loPI    C2 8162  11.988  13.009  11.157 -0.0971 -0.0667 -0.1980
  511loPI    C3 8163  11.803  12.706  10.972 -0.0428 -0.0165 -0.3358
  511loPI   PO4 8164  12.291  13.113  10.789 -0.3975  0.0447  0.1291
  511loPI   GL1 8165  12.708  13.227  10.485  0.1046  0.5328  0.1397
  511loPI   GL2 8166  12.444  13.512  10.459 -0.0619  0.0215  0.1741
  511loPI   C1A 8167  12.664  13.390   9.987  0.0185  0.1160  0.2924
  511loPI   C2A 8168  12.673  13.370   9.578 -0.1574 -0.0396  0.3416
  511loPI   C3A 8169  12.652  13.326   9.127 -0.0355 -0.2135  0.1878
  511loPI   C4A 8170  12.763  13.303   8.813  0.3046  0.4235  0.0714
  511loPI   C5A 8171  12.805  13.502   8.462 -0.1945  0.0593  0.0198
  511loPI   C6A 8172  12.637  13.569   8.085 -0.0416  0.0876 -0.1809
  511loPI   C1B 8173  12.308  13.743  10.044 -0.1223 -0.0736 -0.1662
  511loPI   C2B 8174  12.365  13.844   9.592 -0.2814  0.2467 -0.1233
  511loPI   C3B 8175  12.353  13.744   9.118 -0.2826  0.0641  0.1075
  511loPI   C4B 8176  12.392  13.704   8.628 -0.1325 -0.1414  0.0499
  512loPI    C1 8177   5.052  17.714  10.798 -0.2188 -0.0165  0.1868
  512loPI    C2 8178   5.188  18.043  10.979  0.1778 -0.1534  0.1475
  512loPI    C3 8179   5.093  17.721  11.196 -0.0172 -0.0829  0.1685
  512loPI   PO4 8180   4.937  17.764  10.621  0.1199  0.2098 -0.0665
  512loPI   GL1 8181   4.873  17.917  10.213 -0.1396 -0.2067 -0.1120
  512loPI   GL2 8182   5.065  17.622  10.150 -0.0606 -0.1056 -0.0975
  512loPI   C1A 8183   4.800  18.045   9.790  0.2860 -0.1955 -0.0591
  512loPI   C2A 8184   4.813  17.850   9.461  0.1151  0.1300 -0.3985
  512loPI   C3A 8185   4.686  17.906   8.997 -0.1525 -0.3370  0.0297
  512loPI   C4A 8186   4.618  17.947   8.590  0.1535 -0.1566 -0.1062
  512loPI   C5A 8187   4.564  17.719   8.149 -0.1521  0.1449 -0.2221
  512loPI   C6A 8188   4.203  17.589   8.019  0.0843  0.1481  0.2121
  512loPI   C1B 8189   5.200  17.537   9.722 -0.1022 -0.1539 -0.1856
  512loPI   C2B 8190   5.126  17.575   9.271 -0.1287 -0.0118  0.1882
  512loPI   C3B 8191   4.987  17.508   8.970 -0.1297 -0.2266  0.1719
  512loPI   C4B 8192   5.114  17.422   8.645  0.0853 -0.0367  0.1674
  513loPI    C1 8193   4.010   0.980  10.874 -0.3683  0.0662  0.0406
  513loPI    C2 8194   3.739   1.075  11.152 -0.1773 -0.0130  0.2575
  513loPI    C3 8195   4.122   1.023  11.256 -0.0386  0.2973 -0.0774
  513loPI   PO4 8196   3.937   1.077  10.612 -0.1748  0.0255  0.2066
  513loPI   GL1 8197   3.978   1.054  10.232  0.4014  0.0945 -0.3543
  513loPI   GL2 8198   3.850   1.354  10.094 -0.1162 -0.0812  0.0348
  513loPI   C1A 8199   4.010   0.801   9.905  0.0014  0.0536  0.1778
  513loPI   C2A 8200   4.081   0.756   9.453  0.1897  0.1093  0.2003
  513loPI   C3A 8201   3.994   0.711   9.055  0.1255 -0.0864 -0.0716
  513loPI   C4A 8202   3.958   0.710   8.618  0.0355  0.1668 -0.1383
  513loPI   C5A 8203   3.921   0.653   8.250  0.1011 -0.3006 -0.3554
  513loPI   C6A 8204   3.724   0.462   7.843  0.0466 -0.0883 -0.0216
  513loPI   C1B 8205   3.767   1.190   9.719  0.1870 -0.0892 -0.1435
  513loPI   C2B 8206   3.721   1.148   9.304 -0.0546  0.1186  0.0817
  513loPI   C3B 8207   3.642   1.078   8.820  0.1757  0.2317  0.1508
  513loPI   C4B 8208   3.616   0.988   8.436  0.0602  0.0300 -0.1075
  514loPI    C1 8209   6.628  16.823  10.598  0.4016  0.0965  0.0379
  514loPI    C2 8210   6.552  16.875  10.987 -0.0753  0.0326 -0.0410
  514loPI    C3 8211   6.614  17.192  10.751  0.0702  0.0784  0.0575
  514loPI   PO4 8212   6.823  16.606  10.632  0.1513 -0.1077  0.0978
  514loPI   GL1 8213   6.814  16.408  10.283  0.1026 -0.0414  0.1436
  514loPI   GL2 8214   6.871  16.640  10.094 -0.1109  0.0884  0.2094
  514loPI   C1A 8215   6.591  16.243   9.934 -0.1980  0.1505  0.1879
  514loPI   C2A 8216   6.740  16.399   9.531 -0.1068  0.2432  0.1628
  514loPI   C3A 8217   6.574  16.340   9.081 -0.1609 -0.1419  0.0640
  514loPI   C4A 8218   6.350  16.396   8.607  0.1367 -0.1393 -0.1645
  514loPI   C5A 8219   6.296  16.188   8.193 -0.0057 -0.0032 -0.1797
  514loPI   C6A 8220   6.088  16.260   7.873 -0.2453  0.1529 -0.2213
  514loPI   C1B 8221   6.900  16.891   9.745 -0.1966 -0.0225 -0.2461
  514loPI   C2B 8222   6.912  16.836   9.298 -0.1086 -0.0524 -0.0563
  514loPI   C3B 8223   6.921  16.691   8.892  0.2574 -0.2504 -0.1714
  514loPI   C4B 8224   6.714  16.701   8.421  0.1740  0.1599 -0.1647
  515loPI    C1 8225   1.957  10.814  11.236 -0.0455  0.0697  0.0302
  515loPI    C2 8226   2.329  10.669  11.224 -0.0502  0.0662 -0.0918
  515loPI    C3 8227   2.021  10.422  11.288 -0.0028  0.1208  0.3841
  515loPI   PO4 8228   1.899  10.870  10.909  0.0955 -0.1268 -0.0782
  515loPI   GL1 8229   1.900  10.961  10.493 -0.1168 -0.1042 -0.0386
  515loPI   GL2 8230   2.088  11.055  10.248 -0.0120 -0.0074 -0.0664
  515loPI   C1A 8231   1.661  10.795  10.177 -0.1235  0.3820  0.1650
  515loPI   C2A 8232   1.521  10.842   9.800  0.0871  0.0088 -0.1990
  515loPI   C3A 8233   1.555  10.810   9.252 -0.0828  0.0367 -0.2463
  515loPI   C4A 8234   1.491  10.985   8.795 -0.0204 -0.3148 -0.0027
  515loPI   C5A 8235   1.623  11.449   8.600  0.3448 -0.1193 -0.1434
  515loPI   C6A 8236   1.722  11.647   8.255  0.2517 -0.2150  0.1373
  515loPI   C1B 8237   2.153  10.933   9.810 -0.0924  0.1442 -0.0653
  515loPI   C2B 8238   2.047  10.979   9.318  0.1032  0.1224 -0.0254
  515loPI   C3B 8239   2.029  10.972   8.893  0.1920 -0.1765 -0.1231
  515loPI   C4B 8240   1.830  11.055   8.464 -0.0792 -0.1770  0.0541
  516loPI    C1 8241  15.427  10.035  11.271  0.0355  0.0150 -0.1581
  516loPI    C2 8242  15.475   9.658  11.393  0.1187  0.0041 -0.2237
  516loPI    C3 8243  15.136   9.852  11.474 -0.0437 -0.1821 -0.4421
  516loPI   PO4 8244  15.536   9.939  10.961  0.2141 -0.1721  0.0720
  516loPI   GL1 8245  15.557  10.133  10.579  0.4343 -0.3578 -0.1055
  516loPI   GL2 8246  15.873  10.327  10.491  0.0442  0.0808  0.2320
  516loPI   C1A 8247  15.376  10.271  10.247 -0.1374  0.1471  0.2851
  516loPI   C2A 8248  15.392  10.160   9.762 -0.1587  0.0088 -0.2157
  516loPI   C3A 8249  15.409  10.113   9.365  0.2725 -0.2291  0.1877
  516loPI   C4A 8250  15.412  10.138   8.963 -0.0054 -0.1304  0.0497
  516loPI   C5A 8251  15.226  10.368   8.562  0.0482  0.0326  0.3152
  516loPI   C6A 8252  14.997  10.648   8.269 -0.1984  0.0303 -0.0277
  516loPI   C1B 8253  15.924  10.183  10.046 -0.0249 -0.1326 -0.1613
  516loPI   C2B 8254  15.918  10.247   9.571 -0.0979 -0.0293  0.0131
  516loPI   C3B 8255  15.847  10.235   9.108  0.1310  0.3117  0.1225
  516loPI   C4B 8256  15.900  10.362   8.658  0.3103 -0.1579 -0.1288
  517loPI    C1 8257  17.596  12.335  11.110  0.0167  0.0669  0.1270
  517loPI    C2 8258  17.548  12.457  11.488  0.0282  0.1040  0.1164
  517loPI    C3 8259  17.476  12.076  11.391  0.1380  0.0669  0.1791
  517loPI   PO4 8260  17.471  12.386  10.952 -0.1418  0.0746  0.0401
  517loPI   GL1 8261  17.332  12.146  10.557 -0.1149 -0.1607  0.0299
  517loPI   GL2 8262  17.579  12.267  10.490 -0.0945  0.0253  0.0511
  517loPI   C1A 8263  17.094  12.171  10.187 -0.0596 -0.2695  0.1328
  517loPI   C2A 8264  17.141  12.240   9.733 -0.3338 -0.0495 -0.1301
  517loPI   C3A 8265  17.084  12.280   9.296 -0.2580 -0.1225 -0.0859
  517loPI   C4A 8266  17.105  12.290   8.813 -0.1161 -0.2021 -0.1050
  517loPI   C5A 8267  17.241  12.614   8.475  0.2695 -0.0949 -0.3373
  517loPI   C6A 8268  17.071  12.707   8.047  0.2132  0.2709 -0.2140
  517loPI   C1B 8269  17.590  12.196  10.023  0.1554 -0.0375  0.1373
  517loPI   C2B 8270  17.607  12.280   9.486  0.0862  0.2298  0.0046
  517loPI   C3B 8271  17.573  12.301   9.041 -0.1711  0.0839 -0.0174
  517loPI   C4B 8272  17.788  12.393   8.707  0.0774 -0.1774  0.0488
  518loPI    C1 8273  15.054  10.041  10.761  0.1815 -0.2140 -0.0706
  518loPI    C2 8274  14.906  10.078  11.131 -0.1985 -0.1079 -0.2280
  518loPI    C3 8275  15.145  10.362  10.981 -0.0055 -0.1737 -0.0505
  518loPI   PO4 8276  14.853   9.847  10.695 -0.0108 -0.2838 -0.1291
  518loPI   GL1 8277  14.859   9.523  10.536  0.2627 -0.1644  0.2189
  518loPI   GL2 8278  14.876   9.322  10.362  0.1903 -0.3460  0.0938
  518loPI   C1A 8279  15.070   9.747  10.106 -0.1258 -0.5140 -0.2547
  518loPI   C2A 8280  15.118   9.722   9.714 -0.2042  0.3172  0.0715
  518loPI   C3A 8281  15.210   9.628   9.301 -0.0819 -0.0790 -0.0610
  518loPI   C4A 8282  15.353   9.627   8.884  0.1291 -0.0483 -0.1688
  518loPI   C5A 8283  15.416   9.628   8.440  0.1748 -0.0986  0.0603
  518loPI   C6A 8284  15.570   9.911   8.246 -0.1232 -0.1788  0.0602
  518loPI   C1B 8285  14.902   9.213  10.020  0.0775  0.0433 -0.3517
  518loPI   C2B 8286  15.010   9.177   9.579  0.0362  0.2213  0.0797
  518loPI   C3B 8287  14.988   9.153   9.143 -0.1547 -0.0354  0.4586
  518loPI   C4B 8288  15.237   9.135   8.768  0.3920  0.0868  0.2557
  519loPI    C1 8289   4.543   9.405  10.944  0.3261 -0.3491  0.1233
  519loPI    C2 8290   4.855   9.585  11.117  0.0953  0.1315  0.0560
  519loPI    C3 8291   4.506   9.561  11.311  0.0456  0.0026 -0.0483
  519loPI   PO4 8292   4.570   9.503  10.701 -0.0638 -0.0426  0.2126
  519loPI   GL1 8293   4.392   9.475  10.281 -0.0617  0.1331 -0.0515
  519loPI   GL2 8294   4.735   9.628  10.233  0.1811  0.0793  0.3382
  519loPI   C1A 8295   4.337   9.670   9.889 -0.1517  0.1736 -0.1081
  519loPI   C2A 8296   4.510   9.617   9.456  0.2285 -0.2873  0.2676
  519loPI   C3A 8297   4.478   9.654   9.019 -0.0245 -0.0820  0.1856
  519loPI   C4A 8298   4.483   9.679   8.558 -0.1841 -0.0394 -0.1232
  519loPI   C5A 8299   4.381   9.709   8.099 -0.1038  0.1650 -0.1260
  519loPI   C6A 8300   4.531   9.925   7.696 -0.1211  0.3546 -0.0859
  519loPI   C1B 8301   4.913   9.690   9.881 -0.1418 -0.1097 -0.2143
  519loPI   C2B 8302   5.020   9.676   9.403 -0.0379 -0.1343 -0.0241
  519loPI   C3B 8303   4.983   9.700   8.937  0.0534 -0.2947 -0.3935
  519loPI   C4B 8304   4.932   9.809   8.458 -0.1418  0.1464 -0.1265
  520loPI    C1 8305   2.954  14.143  11.047 -0.0872  0.0506 -0.3428
  520loPI    C2 8306   3.089  14.505  11.152  0.2768 -0.2162  0.1461
  520loPI    C3 8307   2.754  14.361  11.317  0.2143 -0.1639  0.0651
  520loPI   PO4 8308   2.975  14.166  10.725 -0.0293 -0.1841 -0.2076
  520loPI   GL1 8309   3.188  14.034  10.348  0.0202  0.0672 -0.1657
  520loPI   GL2 8310   3.292  14.296  10.220 -0.1997  0.2076 -0.1992
  520loPI   C1A 8311   3.172  13.946   9.835 -0.1109 -0.0127 -0.2068
  520loPI   C2A 8312   3.140  13.949   9.363 -0.1096 -0.0985 -0.0248
  520loPI   C3A 8313   3.209  14.018   8.957 -0.2532  0.0189 -0.1234
  520loPI   C4A 8314   3.050  14.018   8.549 -0.1626 -0.2901 -0.0735
  520loPI   C5A 8315   2.647  14.070   8.337  0.1526  0.0955  0.2164
  520loPI   C6A 8316   2.214  13.978   8.504  0.0669  0.1614 -0.1378
  520loPI   C1B 8317   3.363  14.433   9.848  0.1208  0.0890 -0.0757
  520loPI   C2B 8318   3.362  14.403   9.394 -0.2093 -0.1609  0.1003
  520loPI   C3B 8319   3.325  14.491   8.971 -0.1140 -0.2148  0.1930
  520loPI   C4B 8320   3.359  14.381   8.552 -0.1051 -0.3784 -0.4997
  521loPI    C1 8321   4.432   1.070  10.571 -0.1193 -0.1009  0.0963
  521loPI    C2 8322   4.647   0.742  10.493 -0.2599 -0.1820  0.0455
  521loPI    C3 8323   4.504   0.804  10.861 -0.2088 -0.1627  0.0623
  521loPI   PO4 8324   4.564   1.237  10.449  0.1637 -0.3364  0.0739
  521loPI   GL1 8325   4.443   1.228  10.067 -0.2856  0.1237 -0.2513
  521loPI   GL2 8326   4.459   0.884  10.057  0.0794  0.2426 -0.0180
  521loPI   C1A 8327   4.255   1.302   9.660 -0.0767 -0.0912  0.1190
  521loPI   C2A 8328   4.212   1.217   9.160  0.0798  0.1413 -0.0024
  521loPI   C3A 8329   4.113   1.183   8.736  0.1591  0.1017 -0.0460
  521loPI   C4A 8330   4.064   1.136   8.287 -0.2595 -0.0350  0.0045
  521loPI   C5A 8331   4.110   1.380   7.823 -0.2943  0.2360  0.1708
  521loPI   C6A 8332   3.860   1.713   7.691  0.1564  0.1129 -0.1488
  521loPI   C1B 8333   4.526   0.886   9.589 -0.0831  0.0328  0.2461
  521loPI   C2B 8334   4.517   0.835   9.108  0.3412  0.2702  0.1551
  521loPI   C3B 8335   4.435   0.770   8.755  0.2072 -0.1291  0.0528
  521loPI   C4B 8336   4.383   0.771   8.304 -0.0128  0.2387 -0.3978
  522loPI    C1 8337   7.796   7.507  10.817 -0.0036  0.1400 -0.2298
  522loPI    C2 8338   7.714   7.855  10.998 -0.1716  0.1408 -0.3059
  522loPI    C3 8339   7.649   7.509  11.189 -0.1049  0.1483 -0.2695
  522loPI   PO4 8340   7.588   7.454  10.558 -0.1777 -0.1946  0.0951
  522loPI   GL1 8341   7.577   7.507  10.158  0.0609  0.2614  0.1229
  522loPI   GL2 8342   7.243   7.370  10.084 -0.1281 -0.0979  0.1948
  522loPI   C1A 8343   7.505   7.392   9.686  0.0128  0.0946  0.0358
  522loPI   C2A 8344   7.449   7.255   9.237 -0.0026  0.0247 -0.1807
  522loPI   C3A 8345   7.492   7.341   8.880 -0.0007 -0.0511 -0.1905
  522loPI   C4A 8346   7.575   7.230   8.453 -0.0839  0.0673  0.1966
  522loPI   C5A 8347   7.897   7.112   8.251  0.3233  0.0981 -0.1920
  522loPI   C6A 8348   8.194   6.949   8.219  0.1038 -0.4328 -0.3079
  522loPI   C1B 8349   6.987   7.152   9.750  0.2191 -0.2294  0.0753
  522loPI   C2B 8350   6.948   7.037   9.356 -0.1697 -0.1407  0.1021
  522loPI   C3B 8351   6.942   7.165   8.874 -0.0174 -0.1562  0.0834
  522loPI   C4B 8352   7.076   7.187   8.514 -0.0706  0.0411  0.2063
  523loPI    C1 8353   4.832   8.689  10.875  0.1281  0.1413  0.0410
  523loPI    C2 8354   4.546   8.945  10.986  0.1905  0.2282  0.0028
  523loPI    C3 8355   4.687   8.676  11.247 -0.0363  0.0801 -0.0242
  523loPI   PO4 8356   4.776   8.595  10.636  0.0350  0.0276  0.0005
  523loPI   GL1 8357   5.019   8.475  10.254  0.0150  0.1162  0.3246
  523loPI   GL2 8358   5.076   8.736  10.031  0.0064 -0.0239 -0.1269
  523loPI   C1A 8359   4.825   8.320   9.889 -0.0596 -0.2347 -0.2668
  523loPI   C2A 8360   4.911   8.209   9.418  0.1406  0.0692  0.0644
  523loPI   C3A 8361   4.992   8.240   8.949 -0.1417 -0.4321 -0.1688
  523loPI   C4A 8362   4.910   8.398   8.545  0.1635  0.1548 -0.0052
  523loPI   C5A 8363   4.560   8.362   8.239 -0.3645 -0.2540 -0.1572
  523loPI   C6A 8364   4.176   8.281   8.173  0.1399  0.1064 -0.1438
  523loPI   C1B 8365   5.018   8.704   9.662 -0.0663  0.3592  0.0003
  523loPI   C2B 8366   5.140   8.759   9.258  0.0860 -0.1291  0.2044
  523loPI   C3B 8367   5.204   8.802   8.841 -0.1271 -0.1741 -0.3322
  523loPI   C4B 8368   5.157   8.810   8.382  0.1113 -0.1359  0.2587
  524loPI    C1 8369   7.432  17.135  10.755  0.0565 -0.1792 -0.0860
  524loPI    C2 8370   7.063  17.009  10.841 -0.0335  0.1158 -0.0280
  524loPI    C3 8371   7.302  17.139  11.133 -0.0166  0.2712 -0.1096
  524loPI   PO4 8372   7.400  17.302  10.511 -0.0613 -0.1519 -0.3243
  524loPI   GL1 8373   7.332  17.435  10.099 -0.0671 -0.0800 -0.3317
  524loPI   GL2 8374   7.658  17.295  10.073 -0.1666  0.3025 -0.1619
  524loPI   C1A 8375   7.030  17.379   9.798  0.0606 -0.0893 -0.3861
  524loPI   C2A 8376   7.021  17.342   9.347 -0.2210 -0.0005 -0.1753
  524loPI   C3A 8377   6.894  17.267   8.963  0.1664 -0.3949  0.0517
  524loPI   C4A 8378   7.022  17.282   8.466  0.0700 -0.0093  0.3644
  524loPI   C5A 8379   7.046  17.605   8.101 -0.4455 -0.1481 -0.1781
  524loPI   C6A 8380   6.926  18.050   8.077  0.0492  0.0933  0.1985
  524loPI   C1B 8381   7.895  17.087   9.820 -0.2451  0.2488 -0.0800
  524loPI   C2B 8382   7.844  17.076   9.349 -0.0861 -0.2764  0.0508
  524loPI   C3B 8383   7.829  17.094   8.847 -0.0309  0.1816  0.4180
  524loPI   C4B 8384   7.850  17.142   8.439 -0.0614  0.0590 -0.0073
  525loPI    C1 8385  14.469  13.339  10.785 -0.3179 -0.0229 -0.1661
  525loPI    C2 8386  14.510  13.083  11.090 -0.0866  0.0031 -0.1738
  525loPI    C3 8387  14.754  13.059  10.774 -0.1821  0.1177 -0.2573
  525loPI   PO4 8388  14.147  13.293  10.713  0.1129  0.2139 -0.1902
  525loPI   GL1 8389  14.004  13.127  10.354  0.2337  0.0836 -0.0499
  525loPI   GL2 8390  13.692  13.238  10.498  0.0386 -0.0717  0.1683
  525loPI   C1A 8391  14.011  13.224   9.989 -0.1405 -0.0843  0.0533
  525loPI   C2A 8392  13.976  13.214   9.553  0.3439 -0.0450  0.1124
  525loPI   C3A 8393  13.973  13.152   9.079  0.0896 -0.1652 -0.2494
  525loPI   C4A 8394  14.146  13.130   8.652  0.1976  0.0784 -0.0196
  525loPI   C5A 8395  14.194  12.941   8.219 -0.2338  0.0646 -0.2610
  525loPI   C6A 8396  14.375  12.837   7.804  0.1458  0.0595 -0.1321
  525loPI   C1B 8397  13.699  13.555  10.083 -0.0045  0.1320 -0.2597
  525loPI   C2B 8398  13.768  13.643   9.637 -0.1463 -0.0149 -0.1062
  525loPI   C3B 8399  13.694  13.603   9.241 -0.0919 -0.0497 -0.1882
  525loPI   C4B 8400  13.695  13.529   8.779  0.0439  0.2318  0.0339
  526loPI    C1 8401  11.390  15.501  10.927 -0.0525  0.0119  0.0606
  526loPI    C2 8402  11.062  15.724  10.874 -0.0474  0.0280  0.0958
  526loPI    C3 8403  11.172  15.613  11.243  0.0274  0.0840  0.0907
  526loPI   PO4 8404  11.345  15.358  10.750 -0.1399 -0.2081 -0.0123
  526loPI   GL1 8405  11.178  15.340  10.330 -0.2074  0.1089  0.1650
  526loPI   GL2 8406  11.565  15.449  10.214 -0.1901 -0.2259  0.2889
  526loPI   C1A 8407  11.178  15.410   9.907  0.0869 -0.2866 -0.2839
  526loPI   C2A 8408  11.141  15.423   9.567  0.1477 -0.0504 -0.1654
  526loPI   C3A 8409  11.094  15.493   9.183  0.0759 -0.2429  0.0757
  526loPI   C4A 8410  11.025  15.450   8.706 -0.0803  0.2542 -0.0607
  526loPI   C5A 8411  10.934  15.320   8.264  0.2193 -0.2865 -0.0160
  526loPI   C6A 8412  10.833  15.221   7.786  0.0289  0.4304  0.0184
  526loPI   C1B 8413  11.690  15.518   9.729 -0.0188  0.1687 -0.1124
  526loPI   C2B 8414  11.625  15.504   9.259 -0.0262 -0.0214  0.0551
  526loPI   C3B 8415  11.512  15.557   8.869  0.3438  0.1268 -0.0129
  526loPI   C4B 8416  11.491  15.541   8.463  0.1089  0.0987 -0.3339
  527loPI    C1 8417   2.434   8.489  10.890 -0.0379  0.0906 -0.0439
  527loPI    C2 8418   2.770   8.407  11.091 -0.1791 -0.0639  0.1329
  527loPI    C3 8419   2.439   8.514  11.289 -0.2329  0.0967 -0.0407
  527loPI   PO4 8420   2.403   8.322  10.753 -0.0363  0.1527 -0.0540
  527loPI   GL1 8421   2.199   8.100  10.471  0.1398  0.4165 -0.1070
  527loPI   GL2 8422   2.386   7.905  10.411  0.1671 -0.0215  0.1397
  527loPI   C1A 8423   1.975   8.182  10.098  0.0015 -0.3718 -0.2836
  527loPI   C2A 8424   1.929   8.158   9.670 -0.0200  0.0875  0.0246
  527loPI   C3A 8425   2.034   8.181   9.170  0.0579 -0.0148 -0.1188
  527loPI   C4A 8426   2.001   8.224   8.720 -0.0076  0.0747  0.0589
  527loPI   C5A 8427   2.105   8.059   8.328  0.0134  0.2355  0.1427
  527loPI   C6A 8428   2.351   7.937   8.094 -0.2861 -0.0597  0.0890
  527loPI   C1B 8429   2.293   7.849   9.914 -0.0831 -0.2070 -0.1586
  527loPI   C2B 8430   2.344   7.840   9.545 -0.1063  0.0982  0.2411
  527loPI   C3B 8431   2.391   7.823   9.087 -0.0865  0.1734  0.0665
  527loPI   C4B 8432   2.356   7.803   8.655  0.0249  0.1813  0.0038
  528loPI    C1 8433  15.045   1.491  10.832 -0.1977  0.0514 -0.0193
  528loPI    C2 8434  15.313   1.648  11.085  0.0717 -0.1184 -0.1934
  528loPI    C3 8435  15.173   1.278  11.146 -0.3328  0.0669  0.0469
  528loPI   PO4 8436  15.167   1.546  10.574  0.2469  0.1688 -0.1212
  528loPI   GL1 8437  15.081   1.262  10.221  0.1470  0.2135  0.0209
  528loPI   GL2 8438  15.483   1.345  10.150 -0.1539 -0.1743 -0.1542
  528loPI   C1A 8439  14.976   1.245   9.799 -0.0258 -0.0614  0.2273
  528loPI   C2A 8440  15.051   1.280   9.343  0.1674  0.0774 -0.0506
  528loPI   C3A 8441  14.965   1.280   8.891 -0.0289 -0.0608  0.1986
  528loPI   C4A 8442  14.942   1.396   8.521 -0.1327 -0.0300 -0.1602
  528loPI   C5A 8443  14.591   1.699   8.341 -0.1411  0.1134  0.0475
  528loPI   C6A 8444  14.442   2.066   8.253  0.0212  0.1821  0.0332
  528loPI   C1B 8445  15.510   1.390   9.676 -0.2472 -0.0339 -0.3408
  528loPI   C2B 8446  15.505   1.441   9.175 -0.0803  0.0759 -0.5322
  528loPI   C3B 8447  15.489   1.434   8.702  0.0407 -0.2739  0.1217
  528loPI   C4B 8448  15.432   1.375   8.305  0.0345  0.2264  0.1300
  529loPI    C1 8449  15.429  17.703  11.200 -0.0912  0.1816 -0.0999
  529loPI    C2 8450  15.585  17.973  11.450  0.0113  0.3228 -0.3133
  529loPI    C3 8451  15.480  17.612  11.586 -0.2075  0.4970 -0.0069
  529loPI   PO4 8452  15.313  17.790  10.968  0.2596  0.1788  0.0265
  529loPI   GL1 8453  15.187  17.674  10.595  0.0635  0.2870  0.1472
  529loPI   GL2 8454  15.194  17.989  10.522 -0.0759 -0.0285 -0.2209
  529loPI   C1A 8455  15.302  17.522  10.267 -0.0346 -0.3239 -0.2188
  529loPI   C2A 8456  15.239  17.593   9.855 -0.0595 -0.0130 -0.2896
  529loPI   C3A 8457  15.284  17.530   9.447 -0.0955  0.1579  0.0401
  529loPI   C4A 8458  15.333  17.524   9.037  0.1603  0.0246  0.1093
  529loPI   C5A 8459  15.307  17.647   8.576  0.2471 -0.0703 -0.0612
  529loPI   C6A 8460  15.576  17.793   8.284 -0.2479 -0.4955 -0.2950
  529loPI   C1B 8461  14.915  17.969  10.156 -0.0507 -0.0842 -0.0691
  529loPI   C2B 8462  14.892  17.958   9.686 -0.1813 -0.3131 -0.2377
  529loPI   C3B 8463  15.005  17.947   9.327  0.0968 -0.1116 -0.1535
  529loPI   C4B 8464  14.904  17.816   8.882  0.0912  0.0144  0.3038
  530loPI    C1 8465  13.054  10.950  10.616  0.0246  0.0801  0.0290
  530loPI    C2 8466  13.406  11.054  10.774 -0.0422  0.1917  0.1050
  530loPI    C3 8467  13.386  10.932  10.394  0.1375 -0.1948  0.2150
  530loPI   PO4 8468  12.938  11.122  10.632 -0.1708 -0.2900  0.3032
  530loPI   GL1 8469  13.018  11.412  10.427  0.1493  0.3867 -0.2469
  530loPI   GL2 8470  13.184  11.609  10.422  0.4932  0.2666 -0.1824
  530loPI   C1A 8471  13.263  11.310  10.016  0.1846  0.0734  0.0517
  530loPI   C2A 8472  13.187  11.223   9.595  0.0018  0.0836  0.1719
  530loPI   C3A 8473  13.357  11.258   9.244  0.1815 -0.1761 -0.0362
  530loPI   C4A 8474  13.308  10.981   8.927  0.1360 -0.1734  0.3381
  530loPI   C5A 8475  13.219  11.003   8.362  0.2872  0.0361  0.0142
  530loPI   C6A 8476  13.002  11.005   7.892 -0.0432  0.1247  0.1116
  530loPI   C1B 8477  13.488  11.755  10.108  0.0118  0.1101  0.1658
  530loPI   C2B 8478  13.439  11.670   9.702 -0.2130  0.3193 -0.0973
  530loPI   C3B 8479  13.491  11.722   9.193 -0.1745 -0.0777 -0.3241
  530loPI   C4B 8480  13.569  11.459   8.816 -0.0938  0.3030 -0.1317
  531loPI    C1 8481  17.532  13.311  11.276  0.1275 -0.1094 -0.2693
  531loPI    C2 8482  17.454  12.985  11.494  0.0124  0.0775 -0.0250
  531loPI    C3 8483  17.776  13.207  11.576 -0.0521  0.1696 -0.0201
  531loPI   PO4 8484  17.556  13.255  11.078 -0.1625  0.1515  0.1236
  531loPI   GL1 8485  17.460  13.147  10.700  0.2707  0.2502  0.1229
  531loPI   GL2 8486  17.062  13.078  10.574 -0.0763 -0.2738 -0.1668
  531loPI   C1A 8487  17.525  13.312  10.308  0.5986  0.1242 -0.0358
  531loPI   C2A 8488  17.502  13.326   9.882  0.1475 -0.2670  0.1028
  531loPI   C3A 8489  17.445  13.348   9.479  0.2748  0.1691 -0.0763
  531loPI   C4A 8490  17.529  13.230   9.090  0.0500 -0.1804  0.0066
  531loPI   C5A 8491  17.395  13.053   8.714 -0.4799 -0.2111  0.3761
  531loPI   C6A 8492  17.672  12.761   8.384 -0.2635  0.3054 -0.1973
  531loPI   C1B 8493  17.115  13.237  10.102 -0.1154 -0.0970  0.0620
  531loPI   C2B 8494  16.987  13.185   9.830 -0.1297 -0.0301  0.3483
  531loPI   C3B 8495  16.907  13.258   9.385 -0.2825 -0.1060 -0.2742
  531loPI   C4B 8496  16.973  13.190   8.978  0.0133  0.0280  0.0002
  532loPI    C1 8497   8.184   4.369  11.095 -0.0075  0.0425  0.2901
  532loPI    C2 8498   8.287   4.735  11.219  0.0489  0.0789  0.1372
  532loPI    C3 8499   8.567   4.452  11.175  0.0342  0.0755  0.0636
  532loPI   PO4 8500   8.025   4.360  10.926  0.2551 -0.1277  0.0678
  532loPI   GL1 8501   8.163   4.257  10.534  0.1099 -0.0807 -0.1890
  532loPI   GL2 8502   8.368   4.380  10.306 -0.0905  0.1084 -0.2578
  532loPI   C1A 8503   7.883   4.292  10.278  0.2024 -0.3211 -0.2040
  532loPI   C2A 8504   7.807   4.208   9.837 -0.2926  0.0208  0.0582
  532loPI   C3A 8505   7.762   4.131   9.337  0.0537 -0.0694  0.3543
  532loPI   C4A 8506   7.779   4.110   8.934 -0.0383  0.2404  0.2438
  532loPI   C5A 8507   7.611   4.191   8.576 -0.1092 -0.0071  0.1242
  532loPI   C6A 8508   7.833   4.321   8.278  0.3195 -0.2097 -0.0427
  532loPI   C1B 8509   8.340   4.247   9.831 -0.0131 -0.3467 -0.1170
  532loPI   C2B 8510   8.282   4.171   9.418 -0.1260  0.1321  0.0128
  532loPI   C3B 8511   8.267   4.207   8.984  0.2610 -0.4881  0.0373
  532loPI   C4B 8512   8.251   4.142   8.613  0.1329  0.2612  0.0125
  533loPI    C1 8513   7.312   2.934  11.175  0.0253 -0.0588  0.0347
  533loPI    C2 8514   7.496   3.258  11.319  0.1666 -0.1799  0.1299
  533loPI    C3 8515   7.630   2.893  11.414  0.1799 -0.2639 -0.2004
  533loPI   PO4 8516   7.268   2.966  10.926  0.1570  0.0757  0.1082
  533loPI   GL1 8517   7.466   3.206  10.667 -0.0495  0.1343 -0.2704
  533loPI   GL2 8518   7.668   2.976  10.360 -0.1784 -0.1703  0.0250
  533loPI   C1A 8519   7.311   3.222  10.225  0.1538  0.0475  0.0731
  533loPI   C2A 8520   7.289   3.236   9.790 -0.0971 -0.0953  0.0699
  533loPI   C3A 8521   7.393   3.198   9.327  0.0045 -0.2116  0.1941
  533loPI   C4A 8522   7.422   3.074   8.851 -0.2189  0.2644 -0.0523
  533loPI   C5A 8523   7.407   3.172   8.484 -0.1661  0.1102  0.0833
  533loPI   C6A 8524   7.620   2.845   8.243 -0.0677  0.2879 -0.1388
  533loPI   C1B 8525   7.660   2.869   9.962  0.3696 -0.3453 -0.4269
  533loPI   C2B 8526   7.603   2.809   9.541 -0.0569 -0.0652 -0.3912
  533loPI   C3B 8527   7.711   2.755   9.148  0.0154  0.5774  0.0775
  533loPI   C4B 8528   7.749   2.711   8.707  0.0179 -0.0763 -0.1339
  534loPI    C1 8529  13.896  11.392  11.246 -0.1140 -0.1348  0.1055
  534loPI    C2 8530  13.722  11.667  11.479 -0.0453  0.1487 -0.1716
  534loPI    C3 8531  13.932  11.369  11.644 -0.2383  0.1794  0.1374
  534loPI   PO4 8532  14.033  11.479  11.027 -0.2264 -0.0369 -0.1137
  534loPI   GL1 8533  13.873  11.276  10.694 -0.3003 -0.0052  0.0174
  534loPI   GL2 8534  14.161  11.254  10.567  0.3523 -0.0438  0.0555
  534loPI   C1A 8535  13.733  11.426  10.330  0.0705  0.3464  0.1915
  534loPI   C2A 8536  13.814  11.308   9.935  0.3178 -0.0964 -0.2561
  534loPI   C3A 8537  13.755  11.222   9.523  0.2888  0.0443 -0.1544
  534loPI   C4A 8538  13.850  11.151   9.103 -0.1409  0.0142 -0.1146
  534loPI   C5A 8539  13.985  11.072   8.632 -0.1444  0.0646 -0.0556
  534loPI   C6A 8540  14.097  11.011   8.136 -0.0927 -0.0547 -0.1787
  534loPI   C1B 8541  14.336  11.429  10.184  0.2246 -0.1448 -0.0277
  534loPI   C2B 8542  14.324  11.409   9.778 -0.0610  0.1478  0.0544
  534loPI   C3B 8543  14.318  11.232   9.335  0.0334 -0.0694 -0.0531
  534loPI   C4B 8544  14.403  11.286   8.956 -0.0045 -0.0020  0.0938
  535loPI    C1 8545   9.319   0.699  10.790 -0.1315  0.0057  0.1362
  535loPI    C2 8546   9.203   0.632  11.167 -0.5730 -0.0899 -0.0109
  535loPI    C3 8547   9.435   0.366  10.979 -0.0345  0.1361  0.3095
  535loPI   PO4 8548   9.121   0.735  10.626 -0.1372  0.1160 -0.0219
  535loPI   GL1 8549   9.184   0.561  10.255 -0.0269 -0.2230  0.1220
  535loPI   GL2 8550   9.465   0.709  10.201 -0.0480  0.1116  0.2344
  535loPI   C1A 8551   8.926   0.685   9.935 -0.0090  0.1628 -0.1134
  535loPI   C2A 8552   8.823   0.681   9.581  0.2526 -0.1016  0.3512
  535loPI   C3A 8553   8.878   0.681   9.197  0.0193  0.1279  0.1109
  535loPI   C4A 8554   8.836   0.675   8.798  0.1337  0.0618  0.3779
  535loPI   C5A 8555   8.752   0.785   8.391  0.0328 -0.2284  0.0123
  535loPI   C6A 8556   8.901   1.038   8.062 -0.0232 -0.1332  0.1378
  535loPI   C1B 8557   9.476   0.836   9.853 -0.1339  0.4621 -0.1925
  535loPI   C2B 8558   9.394   0.915   9.389 -0.2926  0.4188  0.2348
  535loPI   C3B 8559   9.278   0.803   8.951 -0.1206 -0.2598  0.1910
  535loPI   C4B 8560   9.266   0.772   8.471  0.2176  0.1084 -0.0578
  536loPI    C1 8561   2.701   3.141  10.721  0.0303  0.1050  0.2976
  536loPI    C2 8562   2.548   2.777  10.652 -0.0917  0.1766  0.1842
  536loPI    C3 8563   2.807   2.833  10.952  0.1043 -0.0506  0.0606
  536loPI   PO4 8564   2.760   3.216  10.415 -0.1042  0.1332 -0.1450
  536loPI   GL1 8565   2.571   3.080  10.090 -0.2999 -0.5254  0.1184
  536loPI   GL2 8566   2.758   2.795  10.145  0.0476  0.1513 -0.2078
  536loPI   C1A 8567   2.670   3.183   9.619  0.1744 -0.1727 -0.2360
  536loPI   C2A 8568   2.657   3.278   9.229 -0.1607  0.0022  0.1522
  536loPI   C3A 8569   2.626   3.236   8.757 -0.0421  0.0919  0.0513
  536loPI   C4A 8570   2.547   3.335   8.306  0.0274  0.3457 -0.1691
  536loPI   C5A 8571   2.569   3.840   8.053 -0.1693  0.0797  0.1928
  536loPI   C6A 8572   2.316   4.189   8.022  0.3708  0.0524 -0.2204
  536loPI   C1B 8573   2.958   2.795   9.743 -0.0702 -0.1589  0.0788
  536loPI   C2B 8574   2.961   2.880   9.370  0.1647 -0.3233 -0.2497
  536loPI   C3B 8575   2.783   2.812   8.971  0.0189 -0.4359  0.1841
  536loPI   C4B 8576   2.824   2.759   8.451  0.1530  0.2422  0.5066
  537loPI    C1 8577   9.461   9.933  10.610 -0.1770  0.0749 -0.0620
  537loPI    C2 8578   9.218   9.959  10.926 -0.0587 -0.1701  0.0519
  537loPI    C3 8579   9.598  10.078  10.956 -0.0847 -0.0616 -0.0409
  537loPI   PO4 8580   9.314   9.795  10.484  0.2518 -0.0106 -0.1692
  537loPI   GL1 8581   9.001   9.851  10.172 -0.1736  0.0690 -0.2990
  537loPI   GL2 8582   8.943  10.034   9.920 -0.0052  0.1409 -0.1243
  537loPI   C1A 8583   9.193   9.578   9.881  0.0049  0.1945 -0.1704
  537loPI   C2A 8584   9.247   9.581   9.478  0.0263  0.2939 -0.0750
  537loPI   C3A 8585   9.296   9.510   8.978  0.0118  0.0230  0.1435
  537loPI   C4A 8586   9.383   9.468   8.552 -0.0170 -0.1087 -0.2688
  537loPI   C5A 8587   9.514   9.513   8.042  0.0424 -0.3332 -0.0032
  537loPI   C6A 8588   9.829   9.396   7.758  0.0070  0.0615 -0.4270
  537loPI   C1B 8589   8.909   9.955   9.501  0.1183 -0.0638 -0.1264
  537loPI   C2B 8590   8.954   9.891   9.100 -0.1938 -0.1120  0.0795
  537loPI   C3B 8591   9.072   9.897   8.607  0.0657 -0.0093 -0.4372
  537loPI   C4B 8592   9.110   9.802   8.178 -0.0432 -0.0531 -0.1565
  538loPI    C1 8593  16.490   6.861  10.798 -0.0560 -0.0323  0.2170
  538loPI    C2 8594  16.617   7.228  10.700  0.0924 -0.1487 -0.0370
  538loPI    C3 8595  16.492   7.152  11.073  0.2693  0.1032  0.0761
  538loPI   PO4 8596  16.324   6.820  10.590 -0.2124 -0.0931  0.0352
  538loPI   GL1 8597  16.551   6.729  10.188  0.1587 -0.0591 -0.0896
  538loPI   GL2 8598  16.804   7.039  10.273  0.2610 -0.0915 -0.1447
  538loPI   C1A 8599  16.586   6.728   9.654 -0.0326  0.0130  0.0300
  538loPI   C2A 8600  16.564   6.590   9.273 -0.1013 -0.0205  0.0283
  538loPI   C3A 8601  16.558   6.606   8.912 -0.1871  0.0969  0.0583
  538loPI   C4A 8602  16.527   6.608   8.472  0.1289 -0.0528 -0.0411
  538loPI   C5A 8603  16.132   6.490   8.157 -0.0695 -0.0600  0.1795
  538loPI   C6A 8604  15.782   6.357   8.223  0.0055  0.0544  0.4438
  538loPI   C1B 8605  16.698   7.209   9.777 -0.3270  0.2013 -0.0308
  538loPI   C2B 8606  16.731   7.111   9.340 -0.1527 -0.0808  0.0556
  538loPI   C3B 8607  16.646   7.111   8.797 -0.1788  0.0044 -0.0057
  538loPI   C4B 8608  16.673   7.070   8.366  0.0185 -0.0885 -0.2703
  539loPI    C1 8609   3.167   0.295  10.819 -0.2915 -0.0944 -0.1452
  539loPI    C2 8610   3.226  -0.098  10.782 -0.0688 -0.0843  0.0721
  539loPI    C3 8611   3.537   0.145  10.843 -0.2349  0.0921  0.2270
  539loPI   PO4 8612   3.009   0.367  10.519 -0.0227 -0.0894  0.1312
  539loPI   GL1 8613   2.776   0.336  10.131  0.1650  0.0636 -0.1192
  539loPI   GL2 8614   2.560   0.428   9.968 -0.1639  0.0058 -0.3220
  539loPI   C1A 8615   2.941   0.099   9.754  0.1561  0.0971  0.2857
  539loPI   C2A 8616   2.918   0.061   9.305  0.1801  0.2572  0.4266
  539loPI   C3A 8617   2.799  -0.024   8.885  0.0019 -0.2330  0.2656
  539loPI   C4A 8618   2.676   0.043   8.535  0.2670 -0.3230  0.1036
  539loPI   C5A 8619   2.805   0.192   8.132 -0.0256 -0.1488 -0.1163
  539loPI   C6A 8620   2.926   0.560   7.993  0.1950  0.2430 -0.0477
  539loPI   C1B 8621   2.525   0.540   9.513  0.0629  0.2999 -0.1670
  539loPI   C2B 8622   2.404   0.484   9.094  0.0204 -0.2787  0.1077
  539loPI   C3B 8623   2.330   0.393   8.669 -0.0897  0.1518 -0.1128
  539loPI   C4B 8624   2.404   0.374   8.271 -0.1414  0.3593  0.0588
  540loPI    C1 8625   3.821   4.819  10.723  0.1786 -0.1813 -0.0750
  540loPI    C2 8626   3.827   4.555  11.024  0.0086  0.0702  0.1539
  540loPI    C3 8627   4.123   4.822  10.986  0.1072 -0.0580  0.0064
  540loPI   PO4 8628   3.885   4.663  10.524 -0.0025  0.0081  0.1129
  540loPI   GL1 8629   3.754   4.739  10.118 -0.0822 -0.0760  0.0373
  540loPI   GL2 8630   3.797   5.054  10.121  0.4412  0.2778 -0.0788
  540loPI   C1A 8631   3.626   4.694   9.665  0.1454  0.2296  0.0452
  540loPI   C2A 8632   3.560   4.774   9.299  0.0444 -0.0059  0.1444
  540loPI   C3A 8633   3.546   4.854   8.909  0.4048  0.0279 -0.0804
  540loPI   C4A 8634   3.554   4.833   8.433  0.1469  0.1637  0.0704
  540loPI   C5A 8635   3.800   5.021   8.067 -0.1506  0.1709  0.0735
  540loPI   C6A 8636   3.820   5.390   7.734  0.3396  0.0212  0.0934
  540loPI   C1B 8637   3.763   5.236   9.638  0.4115  0.0158  0.1676
  540loPI   C2B 8638   3.703   5.253   9.135 -0.2914 -0.2680 -0.0525
  540loPI   C3B 8639   3.813   5.332   8.651 -0.0107  0.1472 -0.0902
  540loPI   C4B 8640   3.608   5.552   8.272  0.2375 -0.0194  0.0494
  541POPI    C1 8641   3.663  15.683  10.722 -0.0705 -0.0754  0.3469
  541POPI    C2 8642   3.919  15.570  11.008 -0.1350  0.0319  0.4480
  541POPI    C3 8643   3.654  15.308  10.862  0.2163 -0.1620  0.1422
  541POPI   PO4 8644   3.752  15.920  10.554 -0.0347 -0.1357 -0.1212
  541POPI   GL1 8645   3.620  16.035  10.160  0.0424  0.2988  0.0815
  541POPI   GL2 8646   3.506  15.809   9.937  0.3065 -0.0688 -0.0103
  541POPI   C1A 8647   3.982  15.972   9.852  0.1508 -0.2415 -0.1268
  541POPI   D2A 8648   3.967  15.924   9.420 -0.0956 -0.3515 -0.2622
  541POPI   C3A 8649   3.760  15.995   9.068 -0.1483 -0.2783  0.0526
  541POPI   C4A 8650   3.897  15.746   8.718 -0.0257  0.5386 -0.1553
  541POPI   C1B 8651   3.488  15.829   9.500  0.4868  0.1559  0.2578
  541POPI   C2B 8652   3.338  15.768   9.165  0.1791  0.2239  0.1440
  541POPI   C3B 8653   3.263  15.791   8.718 -0.0041 -0.4645 -0.1761
  541POPI   C4B 8654   3.404  15.589   8.369 -0.2829 -0.1984 -0.1372
  542POPI    C1 8655  17.213   8.843  11.063 -0.2588  0.3932 -0.1108
  542POPI    C2 8656  17.400   8.975  11.391 -0.2743  0.0637  0.0350
  542POPI    C3 8657  17.037   8.809  11.421 -0.1226 -0.3014 -0.0957
  542POPI   PO4 8658  17.135   9.000  10.871 -0.1408  0.1540  0.0180
  542POPI   GL1 8659  17.097   8.913  10.495 -0.0669  0.1663  0.1812
  542POPI   GL2 8660  17.123   8.598  10.484 -0.0906 -0.3224 -0.0185
  542POPI   C1A 8661  16.802   8.950  10.134 -0.0187 -0.1604  0.0623
  542POPI   D2A 8662  16.886   8.968   9.764 -0.1385 -0.0881  0.0275
  542POPI   C3A 8663  16.887   9.073   9.335  0.0488 -0.0342  0.0399
  542POPI   C4A 8664  17.050   9.055   8.968 -0.2303  0.2536 -0.0670
  542POPI   C1B 8665  17.122   8.549  10.016  0.0110 -0.1965  0.0974
  542POPI   C2B 8666  17.350   8.631   9.675  0.0733 -0.3576  0.0202
  542POPI   C3B 8667  17.331   8.726   9.159  0.1566 -0.1231  0.1710
  542POPI   C4B 8668  17.205   8.607   8.741 -0.1758  0.0690  0.1242
  543POPI    C1 8669  12.819  17.416  10.972  0.1286  0.0313 -0.0621
  543POPI    C2 8670  12.702  17.103  11.192 -0.1888  0.0147 -0.2489
  543POPI    C3 8671  12.770  17.456  11.367 -0.0519 -0.0987 -0.0698
  543POPI   PO4 8672  12.750  17.190  10.704 -0.2528 -0.3497  0.0720
  543POPI   GL1 8673  12.745  17.307  10.391 -0.1390  0.1640  0.4751
  543POPI   GL2 8674  12.513  17.295  10.214  0.0951  0.1362 -0.0379
  543POPI   C1A 8675  12.876  17.572  10.037 -0.1609 -0.1077 -0.1142
  543POPI   D2A 8676  12.919  17.455   9.663  0.1947 -0.0389  0.0683
  543POPI   C3A 8677  12.830  17.496   9.290 -0.0057 -0.3915 -0.1181
  543POPI   C4A 8678  12.865  17.577   8.913 -0.2054  0.0010  0.0755
  543POPI   C1B 8679  12.412  17.419   9.858  0.1974  0.4871 -0.2238
  543POPI   C2B 8680  12.432  17.440   9.472  0.3105 -0.3184 -0.4040
  543POPI   C3B 8681  12.399  17.507   9.019  0.0529 -0.1419  0.2171
  543POPI   C4B 8682  12.385  17.634   8.615 -0.5934 -0.0845 -0.2645
  544POPI    C1 8683  17.468  17.781  11.066  0.2111  0.2309  0.0333
  544POPI    C2 8684  17.709  17.529  11.264  0.2642  0.1919 -0.0801
  544POPI    C3 8685  17.724  17.922  11.339  0.1898  0.1632  0.0884
  544POPI   PO4 8686  17.447  17.735  10.867  0.1028 -0.1264 -0.0482
  544POPI   GL1 8687  17.353  17.737  10.432 -0.0599  0.0663  0.1040
  544POPI   GL2 8688  17.407  17.439  10.483  0.0991  0.0945  0.0093
  544POPI   C1A 8689  17.416  17.861   9.988  0.2715  0.1140  0.1395
  544POPI   D2A 8690  17.300  17.730   9.503 -0.0778  0.0563  0.0443
  544POPI   C3A 8691  17.302  17.978   9.089  0.2351  0.2662 -0.1049
  544POPI   C4A 8692  17.375  17.803   8.642  0.1663 -0.3104  0.1828
  544POPI   C1B 8693  17.155  17.348  10.100  0.1096 -0.4070 -0.3137
  544POPI   C2B 8694  17.021  17.316   9.678  0.0259  0.0212 -0.0656
  544POPI   C3B 8695  17.094  17.368   9.222 -0.3647 -0.0284 -0.0282
  544POPI   C4B 8696  17.166  17.363   8.795  0.0545  0.0077  0.2230
  545POPI    C1 8697   1.175   7.065  10.843 -0.0211  0.1000 -0.0179
  545POPI    C2 8698   1.066   7.374  11.072 -0.2271 -0.1530  0.2326
  545POPI    C3 8699   1.288   7.079  11.227 -0.0299 -0.1330 -0.0054
  545POPI   PO4 8700   1.257   7.066  10.669  0.1103 -0.2416  0.0914
  545POPI   GL1 8701   1.150   7.053  10.233 -0.1142  0.0324  0.0090
  545POPI   GL2 8702   1.064   6.770  10.055 -0.0178 -0.0900  0.2081
  545POPI   C1A 8703   1.096   7.121   9.730 -0.0538  0.3160  0.0322
  545POPI   D2A 8704   1.062   7.098   9.388 -0.0683 -0.0036  0.0713
  545POPI   C3A 8705   1.045   7.106   8.990  0.3411 -0.0945 -0.3551
  545POPI   C4A 8706   1.106   7.246   8.582 -0.0885 -0.0095 -0.1195
  545POPI   C1B 8707   0.945   6.631   9.679  0.0516  0.1859  0.2937
  545POPI   C2B 8708   0.957   6.595   9.236 -0.0772 -0.1689 -0.0256
  545POPI   C3B 8709   0.942   6.652   8.725  0.2019  0.0999  0.1090
  545POPI   C4B 8710   0.953   6.786   8.285 -0.2119 -0.0214 -0.0315
  546POPI    C1 8711  16.286   5.488  10.693  0.0094  0.0410  0.1736
  546POPI    C2 8712  16.255   5.189  10.956  0.2002 -0.1615 -0.0295
  546POPI    C3 8713  16.410   5.539  11.070  0.0289 -0.1561  0.1949
  546POPI   PO4 8714  16.354   5.425  10.499  0.0434  0.2475 -0.1379
  546POPI   GL1 8715  16.167   5.131  10.197  0.3671  0.0289  0.0260
  546POPI   GL2 8716  16.308   4.899  10.078  0.3654  0.1337  0.1389
  546POPI   C1A 8717  16.033   5.246   9.780 -0.0838  0.1002  0.0765
  546POPI   D2A 8718  15.895   5.120   9.413  0.0969  0.1967 -0.1808
  546POPI   C3A 8719  15.923   5.171   9.013  0.1021 -0.0910 -0.1229
  546POPI   C4A 8720  15.969   5.136   8.515  0.0176  0.1658 -0.0177
  546POPI   C1B 8721  16.206   4.758   9.686 -0.0592  0.0320 -0.0893
  546POPI   C2B 8722  16.277   4.678   9.341  0.0844  0.1593 -0.1795
  546POPI   C3B 8723  16.280   4.771   8.882  0.1331 -0.2606  0.1426
  546POPI   C4B 8724  16.314   4.709   8.465  0.2344  0.1197  0.1496
  547POPI    C1 8725  16.467   7.708  10.663  0.2606  0.0999 -0.1763
  547POPI    C2 8726  16.293   7.980  10.899 -0.2450 -0.1442 -0.2532
  547POPI    C3 8727  16.459   7.653  11.059  0.0410  0.0288 -0.1891
  547POPI   PO4 8728  16.545   7.839  10.476  0.2258 -0.1720  0.4730
  547POPI   GL1 8729  16.861   8.123  10.209  0.1872  0.1744 -0.1951
  547POPI   GL2 8730  17.180   7.952  10.171  0.0467  0.2122  0.2551
  547POPI   C1A 8731  16.905   8.149   9.807  0.3153 -0.1365 -0.1271
  547POPI   D2A 8732  17.214   8.200   9.513  0.1254  0.2344 -0.0229
  547POPI   C3A 8733  17.162   8.186   9.056  0.1031 -0.0040  0.0336
  547POPI   C4A 8734  17.062   8.045   8.720  0.2385 -0.0902  0.1031
  547POPI   C1B 8735  17.270   7.708   9.786 -0.0156 -0.2298 -0.0090
  547POPI   C2B 8736  17.372   7.728   9.468  0.1883 -0.2874 -0.2357
  547POPI   C3B 8737  17.404   7.765   9.036 -0.1951 -0.2805 -0.0118
  547POPI   C4B 8738  17.397   7.547   8.628  0.0222 -0.4341  0.2440
  548POPI    C1 8739  13.388  17.953  10.986  0.0944 -0.2446  0.0368
  548POPI    C2 8740  13.012  17.874  11.100  0.0174  0.0634  0.0045
  548POPI    C3 8741  13.320  17.756  11.327 -0.1000 -0.1357  0.0621
  548POPI   PO4 8742  13.313  17.918  10.695  0.0579  0.0585  0.1331
  548POPI   GL1 8743  13.321  17.740  10.305  0.1996  0.0989  0.0901
  548POPI   GL2 8744  13.524  18.029  10.251  0.3489  0.2843  0.2557
  548POPI   C1A 8745  13.384  17.575   9.941 -0.1226 -0.0901  0.1045
  548POPI   D2A 8746  13.376  17.544   9.558 -0.2417 -0.3573 -0.0074
  548POPI   C3A 8747  13.378  17.628   9.102 -0.2002 -0.1503 -0.2035
  548POPI   C4A 8748  13.344  17.767   8.675 -0.2837  0.0262 -0.0127
  548POPI   C1B 8749  13.630  18.001   9.859  0.2656 -0.0577 -0.0056
  548POPI   C2B 8750  13.606  18.090   9.424 -0.0075 -0.3839 -0.0176
  548POPI   C3B 8751  13.529  18.155   8.957 -0.0411  0.1101  0.2056
  548POPI   C4B 8752  13.507  18.228   8.545 -0.0480  0.1159 -0.2059
  549POPI    C1 8753   3.528  11.281  11.203 -0.0243  0.2148 -0.2258
  549POPI    C2 8754   3.230  11.147  11.434 -0.0272 -0.0070 -0.3555
  549POPI    C3 8755   3.610  11.078  11.537 -0.0197  0.2209 -0.2231
  549POPI   PO4 8756   3.347  11.441  11.037  0.0718  0.0267 -0.0636
  549POPI   GL1 8757   3.540  11.618  10.657 -0.0227  0.0483  0.3025
  549POPI   GL2 8758   3.802  11.528  10.463 -0.0259  0.2340 -0.1633
  549POPI   C1A 8759   3.209  11.565  10.336 -0.1398  0.1566 -0.2420
  549POPI   D2A 8760   3.229  11.729   9.865 -0.2974 -0.1297 -0.2246
  549POPI   C3A 8761   3.240  11.626   9.401 -0.2805  0.1292 -0.1279
  549POPI   C4A 8762   3.301  11.693   8.918 -0.2951  0.4609 -0.0825
  549POPI   C1B 8763   3.672  11.689  10.086  0.1519 -0.0138  0.3056
  549POPI   C2B 8764   3.707  11.796   9.615 -0.0160 -0.0077 -0.1942
  549POPI   C3B 8765   3.717  11.699   9.231  0.0657 -0.1370 -0.0049
  549POPI   C4B 8766   3.756  11.703   8.794 -0.0220  0.0820  0.4539
  550POPI    C1 8767  16.306  15.953  11.590 -0.0085  0.1601  0.2073
  550POPI    C2 8768  16.167  15.626  11.775 -0.0155  0.1293  0.1477
  550POPI    C3 8769  16.258  15.953  11.987  0.4502 -0.0714  0.2709
  550POPI   PO4 8770  16.556  15.837  11.360  0.1636  0.0242  0.1063
  550POPI   GL1 8771  16.542  15.548  11.044  0.0544  0.0904 -0.0286
  550POPI   GL2 8772  16.856  15.480  10.821  0.0627 -0.4232 -0.3142
  550POPI   C1A 8773  16.570  15.852  10.617  0.1133 -0.1365 -0.1713
  550POPI   D2A 8774  16.636  15.820  10.161  0.1386 -0.2556 -0.0488
  550POPI   C3A 8775  16.550  15.917   9.666  0.0637  0.0116 -0.0207
  550POPI   C4A 8776  16.490  15.875   9.157  0.0951  0.0142 -0.0549
  550POPI   C1B 8777  16.979  15.482  10.461 -0.1581 -0.0203  0.0787
  550POPI   C2B 8778  16.843  15.423   9.973  0.1779 -0.3436 -0.1691
  550POPI   C3B 8779  16.779  15.507   9.555  0.1253  0.1598 -0.0975
  550POPI   C4B 8780  16.859  15.510   9.175  0.0020 -0.1570 -0.0833
  551POPI    C1 8781  16.533   5.903  10.672  0.1862 -0.1370 -0.0806
  551POPI    C2 8782  16.813   5.718  10.889  0.1622 -0.0373  0.0363
  551POPI    C3 8783  16.586   6.002  11.056 -0.1256 -0.2369 -0.0093
  551POPI   PO4 8784  16.586   5.870  10.484 -0.0418  0.0484  0.1755
  551POPI   GL1 8785  16.454   5.833  10.102 -0.1934 -0.0362 -0.0507
  551POPI   GL2 8786  16.200   5.691  10.093  0.1590  0.0115  0.1386
  551POPI   C1A 8787  16.781   5.775   9.798  0.0472  0.2173 -0.0307
  551POPI   D2A 8788  16.776   5.736   9.363 -0.0636 -0.1855  0.2849
  551POPI   C3A 8789  16.769   5.710   8.935  0.1406  0.1292 -0.2806
  551POPI   C4A 8790  16.611   5.789   8.607  0.1193  0.0276 -0.0611
  551POPI   C1B 8791  16.305   5.718   9.647  0.0378 -0.2189 -0.1370
  551POPI   C2B 8792  16.329   5.725   9.174 -0.1773  0.0068 -0.3708
  551POPI   C3B 8793  16.089   5.629   8.761  0.2538 -0.4295  0.0681
  551POPI   C4B 8794  16.117   5.529   8.333 -0.0464 -0.1141  0.1482
  552POPI    C1 8795   1.801   5.531  10.861  0.2391  0.1552  0.0529
  552POPI    C2 8796   1.493   5.749  10.993  0.1115  0.0729 -0.1053
  552POPI    C3 8797   1.652   5.467  11.227  0.0326  0.0798 -0.0430
  552POPI   PO4 8798   1.763   5.538  10.561 -0.0562 -0.1490 -0.0412
  552POPI   GL1 8799   1.540   5.546  10.114 -0.1204 -0.1362 -0.0986
  552POPI   GL2 8800   1.557   5.892  10.015  0.1255  0.1747  0.1560
  552POPI   C1A 8801   1.782   5.430   9.847 -0.0241  0.3274  0.1166
  552POPI   D2A 8802   1.910   5.331   9.501 -0.2827  0.4783  0.1731
  552POPI   C3A 8803   1.942   5.428   9.080  0.1212  0.0297 -0.0848
  552POPI   C4A 8804   1.943   5.380   8.784  0.0009 -0.0698  0.0681
  552POPI   C1B 8805   1.544   5.833   9.540  0.2643 -0.0797  0.0318
  552POPI   C2B 8806   1.594   5.794   9.195 -0.2447  0.1690  0.0768
  552POPI   C3B 8807   1.568   5.918   8.813  0.1023 -0.2648  0.3602
  552POPI   C4B 8808   1.649   5.856   8.414  0.1917 -0.0947 -0.2302
  553POPI    C1 8809   9.589  13.843  10.610 -0.0704 -0.1258 -0.1249
  553POPI    C2 8810   9.512  13.572  10.894  0.2654 -0.2673 -0.1641
  553POPI    C3 8811   9.568  13.955  10.993  0.1414 -0.2733 -0.0681
  553POPI   PO4 8812   9.556  13.699  10.366  0.2892  0.2583 -0.1672
  553POPI   GL1 8813   9.523  13.824   9.987  0.3103 -0.1206 -0.0778
  553POPI   GL2 8814   9.657  14.114   9.913  0.4193 -0.2443  0.1434
  553POPI   C1A 8815   9.634  13.770   9.579 -0.0583 -0.1658  0.0606
  553POPI   D2A 8816   9.690  13.736   9.136 -0.0511  0.0075 -0.0135
  553POPI   C3A 8817   9.675  13.799   8.791 -0.0200 -0.1792  0.0689
  553POPI   C4A 8818   9.625  13.656   8.434  0.3385  0.2151 -0.0712
  553POPI   C1B 8819   9.795  14.188   9.452  0.0484 -0.0010 -0.1120
  553POPI   C2B 8820   9.847  14.242   9.015  0.1162  0.1530  0.0843
  553POPI   C3B 8821   9.721  14.207   8.576  0.0617 -0.1719  0.1052
  553POPI   C4B 8822   9.739  14.171   8.120 -0.0267 -0.1834 -0.1604
  554POPI    C1 8823   1.852   3.534  10.555  0.1114  0.0657 -0.3447
  554POPI    C2 8824   1.805   3.150  10.453 -0.1607 -0.0048  0.0261
  554POPI    C3 8825   1.921   3.245  10.823 -0.0742  0.2722 -0.0699
  554POPI   PO4 8826   1.943   3.609  10.292  0.1777  0.0414  0.0783
  554POPI   GL1 8827   1.931   3.885   9.974  0.1898  0.0294 -0.2015
  554POPI   GL2 8828   1.623   3.840   9.805  0.3678 -0.2954  0.2059
  554POPI   C1A 8829   1.972   3.968   9.488 -0.1223  0.1618  0.0751
  554POPI   D2A 8830   1.907   4.011   9.052 -0.2048 -0.0914  0.0164
  554POPI   C3A 8831   2.018   4.126   8.754  0.1332 -0.0672  0.2049
  554POPI   C4A 8832   1.979   3.983   8.294 -0.1472  0.1983 -0.0268
  554POPI   C1B 8833   1.489   3.850   9.446  0.3917  0.1066  0.1169
  554POPI   C2B 8834   1.380   3.834   9.032 -0.0092  0.0496 -0.2102
  554POPI   C3B 8835   1.417   4.029   8.673 -0.1452  0.2561 -0.2641
  554POPI   C4B 8836   1.355   3.969   8.238  0.0346  0.4552 -0.1158
  555POPI    C1 8837   9.658   7.427  10.788 -0.2134 -0.2172 -0.0215
  555POPI    C2 8838   9.472   7.172  11.034 -0.1271 -0.2299  0.0306
  555POPI    C3 8839   9.468   7.564  11.113  0.1112 -0.2575  0.1891
  555POPI   PO4 8840   9.570   7.277  10.554 -0.3637  0.2023 -0.0908
  555POPI   GL1 8841   9.852   7.100  10.248 -0.2529  0.0124 -0.1901
  555POPI   GL2 8842   9.838   7.389  10.050  0.1064  0.3199 -0.3555
  555POPI   C1A 8843   9.687   6.781   9.996 -0.1965 -0.0872 -0.1129
  555POPI   D2A 8844   9.708   6.744   9.565 -0.2358  0.2523 -0.0880
  555POPI   C3A 8845   9.691   6.900   9.191 -0.3530 -0.1473  0.1563
  555POPI   C4A 8846   9.778   6.911   8.767  0.4170  0.1439 -0.2143
  555POPI   C1B 8847   9.871   7.225   9.612 -0.0375 -0.1196 -0.1489
  555POPI   C2B 8848   9.929   7.358   9.175  0.2619  0.2685 -0.0533
  555POPI   C3B 8849   9.979   7.327   8.655  0.1534  0.1852 -0.1087
  555POPI   C4B 8850   9.965   7.361   8.197  0.3242  0.0273 -0.2009
  556POPI    C1 8851   4.343   7.679  10.529  0.0778  0.0467  0.0562
  556POPI    C2 8852   4.382   7.282  10.508  0.1423  0.0487  0.1336
  556POPI    C3 8853   4.284   7.454  10.855  0.0234  0.0931  0.0787
  556POPI   PO4 8854   4.048   7.712  10.374 -0.2496  0.1619 -0.2915
  556POPI   GL1 8855   3.742   7.545  10.148 -0.0715  0.1434  0.1035
  556POPI   GL2 8856   3.614   7.208  10.167 -0.2289  0.2342 -0.2748
  556POPI   C1A 8857   3.685   7.672   9.787 -0.1234 -0.2379 -0.0894
  556POPI   D2A 8858   3.713   7.705   9.331  0.2892 -0.0477 -0.1583
  556POPI   C3A 8859   3.702   7.586   8.926 -0.1409  0.0654 -0.0491
  556POPI   C4A 8860   3.645   7.689   8.527 -0.1706 -0.1374 -0.0864
  556POPI   C1B 8861   3.843   7.144   9.781 -0.0678  0.0510  0.1662
  556POPI   C2B 8862   3.838   7.182   9.337  0.1052 -0.1017  0.1636
  556POPI   C3B 8863   3.958   7.189   8.854 -0.0341  0.0767 -0.1922
  556POPI   C4B 8864   3.966   7.350   8.454 -0.4627  0.0069  0.2784
  557POPI    C1 8865   5.238  16.694  10.758 -0.2457 -0.0143  0.1689
  557POPI    C2 8866   5.447  16.412  10.568 -0.1013  0.1798  0.0359
  557POPI    C3 8867   5.179  16.308  10.847  0.1980 -0.0706  0.2376
  557POPI   PO4 8868   5.186  16.861  10.592  0.0811  0.0430  0.1210
  557POPI   GL1 8869   5.295  16.746  10.137  0.0105  0.0901  0.2306
  557POPI   GL2 8870   5.575  16.571  10.114 -0.0647  0.1925 -0.1867
  557POPI   C1A 8871   5.226  16.559   9.659 -0.1750 -0.1638  0.2686
  557POPI   D2A 8872   5.096  16.603   9.270 -0.0560 -0.3233  0.1676
  557POPI   C3A 8873   5.143  16.599   8.833 -0.1586 -0.1013 -0.0931
  557POPI   C4A 8874   4.981  16.481   8.491 -0.1461 -0.0274  0.1604
  557POPI   C1B 8875   5.641  16.268   9.809  0.3129  0.0654 -0.3233
  557POPI   C2B 8876   5.426  16.192   9.374  0.0798  0.0276  0.0449
  557POPI   C3B 8877   5.549  16.189   8.881  0.2569  0.1623  0.2424
  557POPI   C4B 8878   5.387  16.139   8.489 -0.1212 -0.0561 -0.0326
  558POPI    C1 8879   6.141  16.947  10.559 -0.2510  0.1754  0.0648
  558POPI    C2 8880   6.069  17.173  10.881 -0.0163  0.0658  0.1962
  558POPI    C3 8881   5.991  16.781  10.891 -0.1001  0.0794  0.0856
  558POPI   PO4 8882   6.050  17.033  10.214  0.0070 -0.0304  0.0290
  558POPI   GL1 8883   5.799  17.327  10.022 -0.0334  0.0065  0.1568
  558POPI   GL2 8884   5.471  17.212   9.998 -0.3004  0.2499  0.1492
  558POPI   C1A 8885   5.983  17.251   9.637  0.1956 -0.2470  0.1205
  558POPI   D2A 8886   5.978  17.237   9.176  0.1351  0.1382 -0.0900
  558POPI   C3A 8887   5.995  17.133   8.755 -0.0754 -0.1136  0.2299
  558POPI   C4A 8888   5.978  17.263   8.367  0.1375 -0.0169 -0.1051
  558POPI   C1B 8889   5.493  17.119   9.597  0.0374 -0.1583 -0.3423
  558POPI   C2B 8890   5.397  17.135   9.142  0.1148 -0.0789 -0.0875
  558POPI   C3B 8891   5.413  17.020   8.799 -0.1254 -0.0406 -0.1017
  558POPI   C4B 8892   5.517  17.111   8.431 -0.2585  0.1378  0.1072
  559POPI    C1 8893  10.481  12.267  10.621 -0.0458  0.0861  0.0725
  559POPI    C2 8894  10.331  11.934  10.784  0.0480 -0.1623 -0.3351
  559POPI    C3 8895  10.692  12.066  10.895 -0.0685 -0.0868 -0.0355
  559POPI   PO4 8896  10.573  12.259  10.313 -0.0084  0.0346 -0.3444
  559POPI   GL1 8897  10.827  12.285  10.065 -0.1338 -0.0388 -0.0106
  559POPI   GL2 8898  11.039  12.142  10.218 -0.0784 -0.0484 -0.0579
  559POPI   C1A 8899  10.761  12.231   9.643 -0.0203 -0.0756  0.0273
  559POPI   D2A 8900  10.817  12.231   9.215  0.0496 -0.0002  0.1757
  559POPI   C3A 8901  10.793  12.185   8.776 -0.1346 -0.2534  0.0551
  559POPI   C4A 8902  10.828  11.996   8.375 -0.3076  0.0122 -0.2053
  559POPI   C1B 8903  11.238  12.326   9.797 -0.0780 -0.3132 -0.1484
  559POPI   C2B 8904  11.241  12.234   9.350 -0.2036 -0.2083 -0.2222
  559POPI   C3B 8905  11.296  12.209   8.921  0.0371  0.0366  0.0274
  559POPI   C4B 8906  11.292  12.155   8.542 -0.0276 -0.2504 -0.1319
  560POPI    C1 8907   6.988  10.095  10.747 -0.1084  0.0747  0.2522
  560POPI    C2 8908   6.792  10.147  11.092 -0.1289  0.1465  0.2299
  560POPI    C3 8909   7.155  10.308  11.041 -0.0659  0.0180  0.2692
  560POPI   PO4 8910   6.904  10.205  10.533 -0.0084  0.1518 -0.1423
  560POPI   GL1 8911   7.006  10.463  10.192  0.0938 -0.4892 -0.0872
  560POPI   GL2 8912   6.829  10.588   9.975 -0.0719 -0.1562  0.0115
  560POPI   C1A 8913   7.084  10.138   9.901  0.1977 -0.0199 -0.1460
  560POPI   D2A 8914   7.087  10.065   9.394  0.0890  0.0521 -0.1405
  560POPI   C3A 8915   7.336  10.037   8.945 -0.1392  0.0006  0.0168
  560POPI   C4A 8916   7.332  10.239   8.513  0.0753  0.2614  0.0101
  560POPI   C1B 8917   6.944  10.603   9.567  0.2058 -0.0181 -0.0846
  560POPI   C2B 8918   6.867  10.461   9.074  0.1854 -0.0675 -0.0927
  560POPI   C3B 8919   6.890  10.177   8.727 -0.1022  0.2302  0.2480
  560POPI   C4B 8920   6.861  10.074   8.351 -0.1080 -0.4450 -0.1462
  561POPI    C1 8921  17.970   0.092  10.923  0.1924  0.0022  0.0283
  561POPI    C2 8922  18.298   0.047  11.148  0.0717 -0.1377  0.1781
  561POPI    C3 8923  18.085  -0.273  11.037  0.0323 -0.0545  0.0107
  561POPI   PO4 8924  18.048   0.234  10.673  0.0928 -0.0646 -0.0725
  561POPI   GL1 8925  18.095   0.219  10.315  0.3589 -0.0185  0.2244
  561POPI   GL2 8926  17.907   0.088  10.093  0.0058  0.2942  0.1034
  561POPI   C1A 8927  18.059   0.437   9.801 -0.1662  0.2699 -0.0899
  561POPI   D2A 8928  17.980   0.377   9.461 -0.0432 -0.3081 -0.0387
  561POPI   C3A 8929  18.010   0.507   9.102 -0.1203  0.0895 -0.0688
  561POPI   C4A 8930  17.964   0.461   8.614  0.1190  0.2864 -0.2792
  561POPI   C1B 8931  17.819  -0.141   9.629  0.3203 -0.0685  0.0549
  561POPI   C2B 8932  17.775  -0.023   9.181 -0.0413  0.0506 -0.1267
  561POPI   C3B 8933  17.854  -0.033   8.767  0.1797 -0.3670  0.0725
  561POPI   C4B 8934  17.742  -0.028   8.331 -0.0719 -0.0007  0.0662
  562POPI    C1 8935  16.874   2.394  10.912  0.0899 -0.4064  0.0537
  562POPI    C2 8936  17.136   2.244  11.174  0.1662 -0.2480  0.0690
  562POPI    C3 8937  16.778   2.370  11.300  0.2040 -0.1695  0.0988
  562POPI   PO4 8938  16.928   2.340  10.673  0.0595  0.2528  0.0711
  562POPI   GL1 8939  16.722   2.365  10.230  0.1981 -0.1093  0.0812
  562POPI   GL2 8940  16.757   2.108  10.089  0.2311 -0.5232  0.3189
  562POPI   C1A 8941  16.855   2.543   9.801  0.1318 -0.3764 -0.1288
  562POPI   D2A 8942  16.950   2.557   9.381  0.3205  0.0435  0.0296
  562POPI   C3A 8943  16.980   2.506   8.859  0.3761  0.3319  0.1216
  562POPI   C4A 8944  16.783   2.548   8.435  0.0508 -0.1426  0.0396
  562POPI   C1B 8945  16.582   2.021   9.710 -0.0572  0.1744 -0.1810
  562POPI   C2B 8946  16.762   2.099   9.311 -0.0166  0.0758 -0.0206
  562POPI   C3B 8947  16.763   2.064   8.917 -0.0325 -0.0417 -0.0483
  562POPI   C4B 8948  16.762   2.074   8.535 -0.0598 -0.2045  0.2773
  563POPI    C1 8949  11.474  10.419  10.740  0.0235 -0.0669  0.0119
  563POPI    C2 8950  11.103  10.395  10.591  0.0269  0.0857 -0.0223
  563POPI    C3 8951  11.208  10.169  10.904 -0.0437 -0.0820 -0.1191
  563POPI   PO4 8952  11.550  10.584  10.450 -0.3176 -0.0828 -0.1376
  563POPI   GL1 8953  11.523  10.635  10.069 -0.2185  0.0709 -0.1174
  563POPI   GL2 8954  11.187  10.461  10.072  0.1308  0.0105 -0.1594
  563POPI   C1A 8955  11.532  10.397   9.710  0.1111 -0.1823  0.1818
  563POPI   D2A 8956  11.498  10.365   9.305  0.0721  0.1789  0.1016
  563POPI   C3A 8957  11.597  10.356   8.905 -0.0188  0.1211 -0.1595
  563POPI   C4A 8958  11.789  10.351   8.513  0.0305  0.1594 -0.1014
  563POPI   C1B 8959  11.050  10.359   9.586 -0.1871  0.0938  0.1435
  563POPI   C2B 8960  10.988  10.300   9.174  0.1448  0.0177 -0.0709
  563POPI   C3B 8961  11.084  10.349   8.792 -0.1398 -0.0110  0.2064
  563POPI   C4B 8962  11.327  10.199   8.552 -0.0534  0.0048  0.1750
  564POPI    C1 8963  17.002   4.258  10.493  0.0131 -0.2614 -0.3159
  564POPI    C2 8964  16.824   3.905  10.550 -0.0261 -0.1720  0.1512
  564POPI    C3 8965  17.116   4.024  10.796 -0.0283  0.1316  0.0120
  564POPI   PO4 8966  16.973   4.271  10.240  0.1766  0.2034 -0.0205
  564POPI   GL1 8967  17.042   4.094   9.875 -0.1490  0.1612  0.1511
  564POPI   GL2 8968  17.441   4.207  10.084 -0.1394 -0.2904  0.0676
  564POPI   C1A 8969  16.949   3.920   9.554 -0.0713  0.0596  0.1137
  564POPI   D2A 8970  16.888   3.862   9.178 -0.2591  0.0149 -0.0886
  564POPI   C3A 8971  16.914   4.016   8.708 -0.2623  0.1848 -0.3288
  564POPI   C4A 8972  16.808   3.914   8.245 -0.2109 -0.1257 -0.0588
  564POPI   C1B 8973  17.437   4.059   9.552 -0.3717 -0.1091 -0.0748
  564POPI   C2B 8974  17.458   4.008   9.206  0.3040  0.3061  0.3415
  564POPI   C3B 8975  17.431   3.999   8.797  0.1268  0.0471 -0.0412
  564POPI   C4B 8976  17.323   4.012   8.303  0.2123  0.1640 -0.0081
  565POPI    C1 8977  11.575  14.485  10.925  0.1542 -0.0465  0.0954
  565POPI    C2 8978  11.541  14.169  11.169 -0.1833 -0.1019 -0.0165
  565POPI    C3 8979  11.562  14.539  11.321 -0.0909 -0.1561  0.1044
  565POPI   PO4 8980  11.510  14.412  10.698 -0.0947  0.0628 -0.1632
  565POPI   GL1 8981  11.333  14.547  10.256 -0.1432 -0.1463 -0.0429
  565POPI   GL2 8982  11.414  14.951  10.140  0.2523  0.0043  0.0523
  565POPI   C1A 8983  11.294  14.585   9.824 -0.2005 -0.2819  0.0946
  565POPI   D2A 8984  11.248  14.590   9.337 -0.1030  0.4579 -0.0477
  565POPI   C3A 8985  11.344  14.499   8.917  0.1640 -0.3127 -0.1801
  565POPI   C4A 8986  11.295  14.391   8.481  0.0734  0.0526  0.0834
  565POPI   C1B 8987  11.492  15.085   9.768  0.1530 -0.1516 -0.0378
  565POPI   C2B 8988  11.439  15.077   9.272  0.2020  0.1286  0.3117
  565POPI   C3B 8989  11.410  15.023   8.878 -0.1924  0.1154  0.1336
  565POPI   C4B 8990  11.378  15.054   8.433  0.1023 -0.1159  0.1281
  566POPI    C1 8991   7.920  10.362  10.249 -0.0178  0.0588 -0.3368
  566POPI    C2 8992   7.891  10.758  10.207  0.1831  0.1076 -0.0436
  566POPI    C3 8993   7.922  10.597  10.572 -0.0232 -0.1892 -0.1530
  566POPI   PO4 8994   8.134  10.275  10.081  0.0602 -0.0199  0.3343
  566POPI   GL1 8995   8.269  10.406   9.815  0.0244 -0.1070  0.1462
  566POPI   GL2 8996   8.565  10.385   9.718 -0.4050 -0.0876  0.1638
  566POPI   C1A 8997   8.225  10.497   9.393  0.1929  0.3840  0.0825
  566POPI   D2A 8998   8.330  10.579   8.961  0.3966  0.2312  0.2434
  566POPI   C3A 8999   8.320  10.680   8.527  0.3444  0.0729 -0.1577
  566POPI   C4A 9000   8.471  10.786   8.180 -0.1066  0.1902  0.1284
  566POPI   C1B 9001   8.643  10.321   9.241 -0.3540 -0.0925 -0.0066
  566POPI   C2B 9002   8.656  10.261   8.813 -0.1147  0.0205  0.0863
  566POPI   C3B 9003   8.664  10.215   8.419  0.2289  0.0927 -0.0313
  566POPI   C4B 9004   8.718  10.041   7.990  0.1566 -0.3736 -0.1152
  567POPI    C1 9005   3.072  15.131  10.639  0.0221 -0.0902  0.1998
  567POPI    C2 9006   2.898  15.231  10.985 -0.1630 -0.1414  0.1226
  567POPI    C3 9007   3.216  14.989  10.984  0.0771  0.1659  0.2846
  567POPI   PO4 9008   2.960  15.077  10.485 -0.0309  0.1632  0.0586
  567POPI   GL1 9009   2.888  15.203  10.088 -0.2683  0.1935  0.3123
  567POPI   GL2 9010   3.234  15.344   9.935  0.2585 -0.0871  0.0764
  567POPI   C1A 9011   2.769  15.307   9.717  0.1315 -0.1820  0.0520
  567POPI   D2A 9012   2.675  15.228   9.319  0.1660  0.1217  0.0460
  567POPI   C3A 9013   2.583  15.203   8.858  0.0541  0.2222 -0.2784
  567POPI   C4A 9014   2.398  15.278   8.502  0.2629 -0.0955  0.0498
  567POPI   C1B 9015   3.235  15.312   9.511  0.0140 -0.3123  0.1582
  567POPI   C2B 9016   3.132  15.233   9.104  0.2089 -0.0337  0.2537
  567POPI   C3B 9017   3.099  15.288   8.704  0.1095 -0.0528 -0.0426
  567POPI   C4B 9018   2.882  15.222   8.304  0.3008  0.0108  0.1355
  568POPI    C1 9019  14.907   1.965  10.745  0.0158  0.0411 -0.0329
  568POPI    C2 9020  14.666   2.194  10.968  0.1457  0.1717 -0.0248
  568POPI    C3 9021  14.794   1.842  11.109 -0.1589  0.0316 -0.0895
  568POPI   PO4 9022  15.100   2.037  10.705 -0.2920 -0.2111  0.0737
  568POPI   GL1 9023  15.320   1.918  10.335 -0.1000 -0.2636  0.4666
  568POPI   GL2 9024  15.227   2.266  10.226  0.0588 -0.0053 -0.2174
  568POPI   C1A 9025  15.193   1.729   9.905 -0.0134 -0.0797  0.3221
  568POPI   D2A 9026  15.230   1.759   9.369 -0.0446  0.0702 -0.0546
  568POPI   C3A 9027  15.165   1.763   8.946  0.0583  0.1380 -0.0395
  568POPI   C4A 9028  15.276   1.809   8.508  0.0492  0.2365  0.2528
  568POPI   C1B 9029  15.300   2.252   9.817 -0.0928  0.2272 -0.1824
  568POPI   C2B 9030  15.355   2.297   9.404 -0.1607 -0.2176  0.0891
  568POPI   C3B 9031  15.405   2.337   8.906 -0.2051  0.1850  0.0395
  568POPI   C4B 9032  15.407   2.351   8.406  0.2592  0.2850 -0.2964
  569POPI    C1 9033   3.549   0.679  10.674  0.0443 -0.0526 -0.1034
  569POPI    C2 9034   3.859   0.533  10.881  0.0213  0.0006 -0.0314
  569POPI    C3 9035   3.514   0.615  11.067 -0.0355 -0.0560 -0.1109
  569POPI   PO4 9036   3.645   0.665  10.451 -0.0347  0.0927  0.1372
  569POPI   GL1 9037   3.508   0.787  10.034 -0.1012 -0.0403 -0.0016
  569POPI   GL2 9038   3.256   0.675  10.140 -0.0187 -0.2126 -0.1290
  569POPI   C1A 9039   3.586   0.630   9.659  0.1251 -0.1170  0.2854
  569POPI   D2A 9040   3.518   0.671   9.188  0.1624  0.1775  0.1602
  569POPI   C3A 9041   3.493   0.558   8.757 -0.1493  0.3392  0.2334
  569POPI   C4A 9042   3.429   0.573   8.258  0.1800  0.1150  0.2780
  569POPI   C1B 9043   2.984   0.647   9.781  0.2664 -0.0145  0.1240
  569POPI   C2B 9044   3.037   0.526   9.379  0.4617  0.1921  0.1818
  569POPI   C3B 9045   2.927   0.501   8.983  0.0191 -0.0611  0.0783
  569POPI   C4B 9046   2.852   0.532   8.507  0.2844  0.2451 -0.0395
  570POPI    C1 9047  10.387   3.661  11.035  0.2940  0.0542  0.0855
  570POPI    C2 9048  10.357   3.935  11.324 -0.3623 -0.0291  0.1107
  570POPI    C3 9049  10.278   4.035  10.945  0.0823 -0.0231  0.0146
  570POPI   PO4 9050  10.601   3.637  10.915 -0.1275 -0.2800 -0.1139
  570POPI   GL1 9051  10.762   3.419  10.590  0.3153  0.1034  0.1987
  570POPI   GL2 9052  10.943   3.100  10.551 -0.0188 -0.0018 -0.0823
  570POPI   C1A 9053  10.515   3.100  10.294  0.2189  0.1005 -0.4871
  570POPI   D2A 9054  10.294   3.194   9.937 -0.2200 -0.1663 -0.1969
  570POPI   C3A 9055  10.297   3.317   9.543 -0.1763 -0.2612  0.1913
  570POPI   C4A 9056  10.394   3.311   9.164  0.0716 -0.2695 -0.1073
  570POPI   C1B 9057  10.942   3.294  10.134  0.2011 -0.0715 -0.1891
  570POPI   C2B 9058  10.782   3.393   9.699  0.2461  0.3478  0.1405
  570POPI   C3B 9059  10.846   3.404   9.236  0.0253  0.0915  0.1480
  570POPI   C4B 9060  11.033   3.375   8.783 -0.1957  0.0549  0.0817
  571POPI    C1 9061   3.107  12.627  10.933 -0.1750  0.0818 -0.1199
  571POPI    C2 9062   2.724  12.511  10.934 -0.1499 -0.0035 -0.2589
  571POPI    C3 9063   3.016  12.238  10.938 -0.0891  0.0625 -0.0105
  571POPI   PO4 9064   3.136  12.790  10.792 -0.0884  0.1225  0.3393
  571POPI   GL1 9065   3.247  12.407  10.498  0.0683 -0.3691 -0.2444
  571POPI   GL2 9066   3.378  12.153  10.511 -0.0228  0.1445 -0.2360
  571POPI   C1A 9067   3.130  12.664  10.096 -0.1633 -0.1945 -0.1229
  571POPI   D2A 9068   3.127  12.546   9.682 -0.1940 -0.0405  0.0899
  571POPI   C3A 9069   3.081  12.527   9.288  0.0197  0.0851  0.0216
  571POPI   C4A 9070   3.042  12.515   8.734  0.1956 -0.2130 -0.0478
  571POPI   C1B 9071   3.419  12.254  10.027 -0.0102  0.0104 -0.0816
  571POPI   C2B 9072   3.476  12.227   9.640  0.0309 -0.1347 -0.0142
  571POPI   C3B 9073   3.440  12.114   9.211 -0.3071  0.2667 -0.1617
  571POPI   C4B 9074   3.427  12.131   8.803 -0.1192 -0.3571 -0.4107
  572POPI    C1 9075   2.652  14.806  11.176  0.0721  0.0372  0.0114
  572POPI    C2 9076   2.963  14.950  11.382  0.0379  0.0887  0.0270
  572POPI    C3 9077   2.628  14.845  11.574  0.1065 -0.1283  0.0303
  572POPI   PO4 9078   2.733  14.734  10.914  0.1926  0.0889  0.3290
  572POPI   GL1 9079   2.625  14.547  10.470  0.1083  0.0392 -0.0798
  572POPI   GL2 9080   2.443  14.798  10.368 -0.0896 -0.2033 -0.0760
  572POPI   C1A 9081   2.863  14.317  10.102 -0.1595 -0.0282  0.1312
  572POPI   D2A 9082   2.828  14.320   9.650  0.2910 -0.2704  0.4661
  572POPI   C3A 9083   2.822  14.313   9.267  0.2861 -0.0913 -0.1307
  572POPI   C4A 9084   2.719  14.413   8.767 -0.0621  0.0606  0.2108
  572POPI   C1B 9085   2.537  14.710   9.960  0.1860 -0.0004  0.2695
  572POPI   C2B 9086   2.558  14.725   9.527  0.1670  0.1680  0.1273
  572POPI   C3B 9087   2.448  14.778   9.114 -0.0230  0.0994 -0.0693
  572POPI   C4B 9088   2.350  14.715   8.726 -0.1255  0.1919  0.3998
  573POPI    C1 9089   4.212   5.151  10.582 -0.1187  0.0439 -0.1956
  573POPI    C2 9090   4.349   4.881  10.320  0.2125 -0.1278  0.1465
  573POPI    C3 9091   4.528   4.925  10.676 -0.1533  0.1892  0.2985
  573POPI   PO4 9092   4.142   5.326  10.443 -0.0467 -0.2230 -0.1781
  573POPI   GL1 9093   4.092   5.451  10.078  0.0876 -0.0723  0.1455
  573POPI   GL2 9094   4.420   5.475   9.895 -0.1902 -0.4715 -0.4928
  573POPI   C1A 9095   4.052   5.709   9.708  0.1298  0.2028 -0.0781
  573POPI   D2A 9096   4.080   5.501   9.339  0.0352 -0.6301  0.4302
  573POPI   C3A 9097   4.038   5.734   8.940 -0.1441 -0.1020  0.0148
  573POPI   C4A 9098   3.941   5.891   8.419  0.0384 -0.0174 -0.2099
  573POPI   C1B 9099   4.503   5.409   9.524  0.0379 -0.0621  0.2443
  573POPI   C2B 9100   4.387   5.415   8.989  0.0893  0.1912  0.0193
  573POPI   C3B 9101   4.381   5.474   8.624  0.0358  0.1536  0.2916
  573POPI   C4B 9102   4.254   5.112   8.413 -0.1333  0.0078  0.1640
  574DPPI    C1 9103  16.428   9.667  11.139 -0.0692  0.4368  0.0939
  574DPPI    C2 9104  16.322   9.317  11.301 -0.0266  0.2413 -0.2884
  574DPPI    C3 9105  16.362   9.641  11.533  0.1445 -0.0521  0.1049
  574DPPI   PO4 9106  16.330   9.603  10.849 -0.1450 -0.3817 -0.3703
  574DPPI   GL1 9107  16.392   9.512  10.446  0.0381 -0.1047 -0.1937
  574DPPI   GL2 9108  16.120   9.331  10.351  0.1746  0.0733 -0.1878
  574DPPI   C1A 9109  16.479   9.304  10.077  0.1601 -0.1256  0.1450
  574DPPI   C2A 9110  16.512   9.367   9.635  0.2559 -0.0734  0.1438
  574DPPI   C3A 9111  16.585   9.494   9.247  0.1835 -0.0011  0.1373
  574DPPI   C4A 9112  16.750   9.455   8.844  0.2092  0.1070  0.0865
  574DPPI   C1B 9113  15.881   9.427   9.951 -0.4196  0.5001  0.0673
  574DPPI   C2B 9114  16.050   9.346   9.532  0.4681  0.1272  0.0880
  574DPPI   C3B 9115  16.131   9.298   9.170  0.0324 -0.2276  0.0176
  574DPPI   C4B 9116  16.252   9.378   8.784 -0.1880  0.1517  0.1946
  575DPPI    C1 9117   1.954  14.413  11.042  0.2504 -0.0149 -0.1423
  575DPPI    C2 9118   2.167  14.487  11.373 -0.0762 -0.1228  0.0968
  575DPPI    C3 9119   1.769  14.528  11.377 -0.0577  0.1767 -0.3734
  575DPPI   PO4 9120   2.007  14.191  10.907  0.1015  0.0461  0.3125
  575DPPI   GL1 9121   1.798  14.015  10.602  0.0194  0.1570 -0.1283
  575DPPI   GL2 9122   1.606  13.787  10.511 -0.3079  0.2590 -0.1556
  575DPPI   C1A 9123   1.870  14.170  10.131  0.0941 -0.0674  0.0771
  575DPPI   C2A 9124   1.810  14.140   9.682 -0.0610  0.2717  0.1102
  575DPPI   C3A 9125   1.840  14.113   9.266 -0.1642 -0.1931 -0.2520
  575DPPI   C4A 9126   1.754  14.123   8.849  0.0911 -0.2935  0.1741
  575DPPI   C1B 9127   1.656  13.707  10.076 -0.2272  0.0511 -0.0247
  575DPPI   C2B 9128   1.527  13.649   9.612 -0.1417 -0.0865 -0.1834
  575DPPI   C3B 9129   1.619  13.704   9.198 -0.2044  0.1161  0.3592
  575DPPI   C4B 9130   1.493  13.504   8.874  0.0925  0.0783 -0.5280
  576DPPI    C1 9131   0.611  10.367  11.164 -0.0786  0.1234 -0.0618
  576DPPI    C2 9132   0.375  10.369  11.486 -0.0563 -0.0840 -0.0425
  576DPPI    C3 9133   0.772  10.353  11.530 -0.0640 -0.4590 -0.0815
  576DPPI   PO4 9134   0.430  10.236  10.993  0.0793 -0.0145  0.0113
  576DPPI   GL1 9135   0.430  10.142  10.564  0.0671 -0.0428  0.2758
  576DPPI   GL2 9136   0.240  10.502  10.553  0.1397  0.2087  0.0477
  576DPPI   C1A 9137   0.304  10.100  10.136  0.1227  0.1427  0.0430
  576DPPI   C2A 9138   0.333  10.222   9.637 -0.2369  0.1094  0.0381
  576DPPI   C3A 9139   0.376  10.205   9.144  0.0719 -0.1241  0.0925
  576DPPI   C4A 9140   0.361  10.184   8.709  0.1910 -0.1888 -0.3217
  576DPPI   C1B 9141   0.064  10.597  10.201 -0.0152  0.0633  0.0622
  576DPPI   C2B 9142   0.013  10.580   9.730 -0.0630 -0.3922 -0.0357
  576DPPI   C3B 9143  -0.061  10.686   9.282 -0.0431 -0.0081 -0.1980
  576DPPI   C4B 9144   0.075  10.627   8.887  0.0341 -0.0899 -0.1088
  577DPPI    C1 9145   4.718   6.394  10.458 -0.0253 -0.1095  0.0633
  577DPPI    C2 9146   4.496   6.528  10.763 -0.1411 -0.0964 -0.0266
  577DPPI    C3 9147   4.882   6.629  10.738 -0.1738  0.0433  0.0236
  577DPPI   PO4 9148   4.666   6.103  10.490 -0.3240  0.1883 -0.0854
  577DPPI   GL1 9149   4.962   5.740  10.324 -0.1830  0.2305  0.3145
  577DPPI   GL2 9150   5.195   5.919  10.199 -0.3946 -0.1858  0.0088
  577DPPI   C1A 9151   4.977   5.569   9.915 -0.1473  0.3241  0.1164
  577DPPI   C2A 9152   4.949   5.547   9.478 -0.1632  0.1092  0.3716
  577DPPI   C3A 9153   4.898   5.539   9.117 -0.0952  0.0132  0.1215
  577DPPI   C4A 9154   4.866   5.527   8.722  0.0464 -0.0408 -0.0555
  577DPPI   C1B 9155   5.188   5.938   9.743  0.1334  0.1868 -0.0155
  577DPPI   C2B 9156   5.160   6.028   9.373  0.1388 -0.0090 -0.1277
  577DPPI   C3B 9157   5.027   5.967   8.950  0.0593 -0.0646  0.1281
  577DPPI   C4B 9158   4.970   5.988   8.482  0.0849 -0.1828 -0.1805
  578DPPI    C1 9159   4.772   7.393  11.010  0.3622 -0.0860 -0.0762
  578DPPI    C2 9160   4.617   7.055  10.863 -0.2130  0.1478 -0.0340
  578DPPI    C3 9161   4.755   7.066  11.239 -0.1460 -0.0498 -0.0516
  578DPPI   PO4 9162   4.857   7.471  10.752 -0.0526  0.0055 -0.1651
  578DPPI   GL1 9163   4.754   7.545  10.315 -0.1057  0.0425  0.1195
  578DPPI   GL2 9164   4.700   7.340  10.149  0.0820  0.0030 -0.0583
  578DPPI   C1A 9165   4.640   7.772  10.025 -0.0707  0.0741 -0.1790
  578DPPI   C2A 9166   4.765   7.773   9.620 -0.1291 -0.1282 -0.0616
  578DPPI   C3A 9167   4.813   7.744   9.190  0.2514 -0.0538 -0.0232
  578DPPI   C4A 9168   4.741   7.724   8.807 -0.0722 -0.1255 -0.0074
  578DPPI   C1B 9169   4.676   7.296   9.698 -0.1687  0.0115  0.0807
  578DPPI   C2B 9170   4.575   7.301   9.366 -0.2372  0.2066 -0.3734
  578DPPI   C3B 9171   4.598   7.253   8.967  0.0896 -0.0570 -0.1453
  578DPPI   C4B 9172   4.461   7.392   8.537 -0.1596 -0.0116  0.1047
  579DPPI    C1 9173   5.793  10.988  10.909  0.2107 -0.0909 -0.1080
  579DPPI    C2 9174   6.104  10.746  10.978  0.0227 -0.2438  0.2283
  579DPPI    C3 9175   5.900  10.901  11.285 -0.1999 -0.1004  0.0113
  579DPPI   PO4 9176   5.741  10.876  10.608  0.1681  0.1260 -0.2198
  579DPPI   GL1 9177   5.418  10.881  10.308  0.1159  0.2635  0.0133
  579DPPI   GL2 9178   5.294  10.650  10.079  0.0681  0.0358 -0.0123
  579DPPI   C1A 9179   5.378  11.019   9.822 -0.1684  0.1386 -0.2953
  579DPPI   C2A 9180   5.399  11.080   9.403 -0.0977 -0.0119 -0.1851
  579DPPI   C3A 9181   5.330  11.126   8.969 -0.1076 -0.0336 -0.2558
  579DPPI   C4A 9182   5.370  11.307   8.524 -0.3848 -0.1184  0.1085
  579DPPI   C1B 9183   5.346  10.618   9.575 -0.1117 -0.0316  0.0504
  579DPPI   C2B 9184   5.344  10.644   9.084 -0.0665  0.0302 -0.1060
  579DPPI   C3B 9185   5.481  10.742   8.669  0.1571  0.1338 -0.2151
  579DPPI   C4B 9186   5.677  10.612   8.195  0.0236  0.1518  0.0164
  580DPPI    C1 9187   1.102  12.704  11.313  0.1454 -0.0472  0.2607
  580DPPI    C2 9188   0.882  12.980  11.502  0.0391 -0.0527  0.1464
  580DPPI    C3 9189   1.268  12.933  11.596  0.0674  0.1588  0.1424
  580DPPI   PO4 9190   1.119  12.718  11.051 -0.0468 -0.1278 -0.0914
  580DPPI   GL1 9191   1.449  12.766  10.799  0.0433  0.2201 -0.1273
  580DPPI   GL2 9192   1.503  12.471  10.728 -0.4067 -0.0314  0.1050
  580DPPI   C1A 9193   1.352  12.776  10.332 -0.1637 -0.0255 -0.2607
  580DPPI   C2A 9194   1.235  12.687   9.901  0.2745  0.0209 -0.1872
  580DPPI   C3A 9195   1.245  12.767   9.571  0.0108 -0.0233  0.0783
  580DPPI   C4A 9196   1.151  12.671   9.107  0.1717  0.1886 -0.3535
  580DPPI   C1B 9197   1.606  12.318  10.254  0.1689  0.2172  0.0509
  580DPPI   C2B 9198   1.620  12.350   9.869  0.2113 -0.5490  0.1280
  580DPPI   C3B 9199   1.586  12.329   9.411  0.2529  0.0621 -0.2118
  580DPPI   C4B 9200   1.557  12.263   8.997 -0.1400  0.1049  0.0372
  581DPPI    C1 9201   3.008   1.468  10.760  0.2757 -0.0739 -0.0359
  581DPPI    C2 9202   2.692   1.224  10.732  0.3124 -0.1214 -0.0375
  581DPPI    C3 9203   2.649   1.590  10.888  0.2547 -0.1243 -0.0462
  581DPPI   PO4 9204   3.150   1.529  10.533 -0.0886 -0.1176 -0.1348
  581DPPI   GL1 9205   3.176   1.797  10.131  0.0448  0.2976 -0.1658
  581DPPI   GL2 9206   3.432   1.545   9.956 -0.0960 -0.1340 -0.0879
  581DPPI   C1A 9207   3.099   1.918   9.800  0.0514 -0.0494  0.0246
  581DPPI   C2A 9208   3.050   1.911   9.350 -0.0193 -0.0148  0.0032
  581DPPI   C3A 9209   2.905   1.949   8.912  0.2853 -0.0435 -0.1131
  581DPPI   C4A 9210   2.995   1.952   8.446 -0.1869 -0.0664 -0.0039
  581DPPI   C1B 9211   3.372   1.601   9.505  0.2145 -0.0303 -0.3250
  581DPPI   C2B 9212   3.324   1.545   9.035  0.2289  0.0111 -0.0857
  581DPPI   C3B 9213   3.291   1.446   8.593 -0.3679  0.0928 -0.1420
  581DPPI   C4B 9214   3.157   1.546   8.146 -0.1457 -0.0835 -0.1366
  582DPPI    C1 9215   8.469  13.061  10.426 -0.0657 -0.1042 -0.4100
  582DPPI    C2 9216   8.693  13.061  10.758 -0.4683 -0.1215 -0.1305
  582DPPI    C3 9217   8.828  12.885  10.425  0.0844  0.1869 -0.0809
  582DPPI   PO4 9218   8.395  13.298  10.266 -0.0420 -0.1361 -0.0419
  582DPPI   GL1 9219   8.309  13.456   9.850  0.0161  0.2365  0.3577
  582DPPI   GL2 9220   8.063  13.230   9.850  0.0327 -0.0354 -0.1910
  582DPPI   C1A 9221   8.425  13.436   9.448 -0.4227 -0.4065 -0.0252
  582DPPI   C2A 9222   8.411  13.605   9.090 -0.0527  0.0430  0.0784
  582DPPI   C3A 9223   8.365  13.560   8.670 -0.2834 -0.1607  0.3976
  582DPPI   C4A 9224   8.337  13.525   8.203 -0.0740 -0.0978 -0.0953
  582DPPI   C1B 9225   8.244  13.005   9.496 -0.1849 -0.0813  0.0861
  582DPPI   C2B 9226   8.286  13.058   9.105  0.0891 -0.1653 -0.0093
  582DPPI   C3B 9227   8.172  13.096   8.719  0.2498  0.2253  0.2191
  582DPPI   C4B 9228   8.118  13.110   8.345  0.0233  0.2362  0.0708
  583DPPI    C1 9229   4.938   4.327  10.766  0.0447  0.1100  0.0237
  583DPPI    C2 9230   4.639   4.073  10.844  0.1106  0.0070 -0.0565
  583DPPI    C3 9231   4.875   4.201  11.141  0.1152 -0.0737 -0.0252
  583DPPI   PO4 9232   4.806   4.468  10.522  0.1955 -0.1959 -0.0793
  583DPPI   GL1 9233   4.555   4.403  10.182 -0.1688 -0.1778 -0.1161
  583DPPI   GL2 9234   4.184   4.392  10.148  0.1782  0.0278 -0.0192
  583DPPI   C1A 9235   4.519   4.500   9.808  0.0008 -0.0059 -0.0064
  583DPPI   C2A 9236   4.526   4.475   9.448 -0.1103  0.3328 -0.1358
  583DPPI   C3A 9237   4.632   4.470   9.108  0.0368  0.0495 -0.3084
  583DPPI   C4A 9238   4.399   4.438   8.759 -0.1012  0.2237  0.2626
  583DPPI   C1B 9239   4.055   4.412   9.669 -0.0374 -0.1661 -0.2244
  583DPPI   C2B 9240   4.052   4.391   9.238  0.1727  0.0101 -0.0706
  583DPPI   C3B 9241   3.903   4.292   8.828 -0.1231 -0.1861  0.1958
  583DPPI   C4B 9242   3.859   4.162   8.447 -0.1688  0.0391  0.2043
  584DPPI    C1 9243  17.298   1.828  10.918 -0.2768  0.2317  0.3001
  584DPPI    C2 9244  17.580   2.091  11.024  0.0744  0.0552 -0.1648
  584DPPI    C3 9245  17.428   1.841  11.296  0.1265  0.3719  0.1622
  584DPPI   PO4 9246  17.171   1.915  10.785  0.1141 -0.2076 -0.1030
  584DPPI   GL1 9247  17.162   1.927  10.306  0.3284 -0.1567  0.0901
  584DPPI   GL2 9248  17.340   1.767  10.178 -0.3249  0.0764 -0.1320
  584DPPI   C1A 9249  17.268   2.243   9.947  0.2612  0.2148  0.0943
  584DPPI   C2A 9250  17.225   2.159   9.550 -0.0655  0.2358  0.1768
  584DPPI   C3A 9251  17.234   2.106   9.161  0.0511 -0.1891 -0.1621
  584DPPI   C4A 9252  17.241   2.134   8.707  0.0198 -0.2485 -0.1519
  584DPPI   C1B 9253  17.532   1.788   9.788  0.0969 -0.0793  0.1402
  584DPPI   C2B 9254  17.594   1.807   9.382 -0.3275 -0.0015  0.0374
  584DPPI   C3B 9255  17.521   1.726   8.893 -0.0349 -0.0096  0.0045
  584DPPI   C4B 9256  17.571   1.826   8.459 -0.1851 -0.0829  0.1456
  585DPPI    C1 9257  11.594   7.892  10.723  0.1181  0.0404 -0.1218
  585DPPI    C2 9258  11.947   7.831  10.901 -0.0166  0.0809  0.1638
  585DPPI    C3 9259  11.645   7.996  11.106 -0.2299 -0.0358 -0.0512
  585DPPI   PO4 9260  11.619   7.688  10.563 -0.4216  0.1967 -0.1046
  585DPPI   GL1 9261  11.356   7.527  10.248 -0.0339 -0.2044 -0.0314
  585DPPI   GL2 9262  11.293   7.178  10.126  0.4407 -0.0496 -0.0328
  585DPPI   C1A 9263  11.357   7.530   9.786  0.0842 -0.1726  0.0890
  585DPPI   C2A 9264  11.417   7.525   9.392 -0.0110 -0.1606 -0.1258
  585DPPI   C3A 9265  11.529   7.587   9.033 -0.5661 -0.4966  0.1322
  585DPPI   C4A 9266  11.616   7.605   8.594 -0.1174  0.3063  0.3334
  585DPPI   C1B 9267  11.255   7.056   9.692  0.0079 -0.1396 -0.2549
  585DPPI   C2B 9268  11.278   6.938   9.306 -0.1678 -0.1283 -0.1100
  585DPPI   C3B 9269  11.356   7.132   9.054  0.2484  0.1832  0.0643
  585DPPI   C4B 9270  11.426   7.102   8.633  0.0323 -0.0792 -0.1086
  586DPPI    C1 9271  14.876  14.804  11.110 -0.2563 -0.0757  0.0409
  586DPPI    C2 9272  15.048  14.977  11.427 -0.0584  0.1139 -0.1665
  586DPPI    C3 9273  14.692  14.798  11.465 -0.0010  0.0666  0.1781
  586DPPI   PO4 9274  15.052  14.919  10.945  0.0405 -0.2461  0.2333
  586DPPI   GL1 9275  15.145  15.180  10.561  0.0229 -0.2254 -0.1304
  586DPPI   GL2 9276  14.952  15.521  10.446  0.1026 -0.2877 -0.2216
  586DPPI   C1A 9277  15.328  15.092  10.163 -0.0969  0.0182 -0.1805
  586DPPI   C2A 9278  15.346  15.241   9.713  0.3134  0.1835  0.0843
  586DPPI   C3A 9279  15.370  15.234   9.296 -0.0170  0.2757 -0.1312
  586DPPI   C4A 9280  15.313  15.297   8.882  0.1564 -0.1007  0.1724
  586DPPI   C1B 9281  15.088  15.532  10.018  0.0910 -0.3197  0.0703
  586DPPI   C2B 9282  15.035  15.661   9.502 -0.1409 -0.2130  0.0322
  586DPPI   C3B 9283  14.965  15.706   9.075  0.2686  0.2726  0.0723
  586DPPI   C4B 9284  14.963  15.676   8.712  0.4120  0.1000  0.0028
  587DPPI    C1 9285  10.097   6.030  11.067 -0.0257 -0.0858 -0.0030
  587DPPI    C2 9286  10.431   6.028  11.287  0.0055 -0.0508 -0.0496
  587DPPI    C3 9287  10.218   6.365  11.250 -0.0319 -0.0718 -0.0243
  587DPPI   PO4 9288  10.232   5.893  10.800  0.0076  0.0473  0.0961
  587DPPI   GL1 9289  10.359   6.058  10.270 -0.1104  0.2901 -0.1027
  587DPPI   GL2 9290   9.992   5.949  10.356 -0.2299  0.2047 -0.0514
  587DPPI   C1A 9291  10.345   5.891   9.815  0.2107 -0.1519 -0.0168
  587DPPI   C2A 9292  10.379   5.950   9.417  0.2392 -0.0874  0.0714
  587DPPI   C3A 9293  10.364   6.002   8.967  0.0985 -0.2746 -0.3211
  587DPPI   C4A 9294  10.495   5.967   8.534 -0.0836  0.0111  0.1167
  587DPPI   C1B 9295   9.862   5.840   9.913  0.1983 -0.4025 -0.0699
  587DPPI   C2B 9296   9.869   5.924   9.523 -0.1073 -0.0862  0.2661
  587DPPI   C3B 9297   9.754   5.939   9.128  0.0510 -0.0531  0.2916
  587DPPI   C4B 9298   9.707   6.007   8.700 -0.1761 -0.3427  0.0169
  588DPPI    C1 9299  10.500  13.955  10.609 -0.1039 -0.0237 -0.0001
  588DPPI    C2 9300  10.347  13.642  10.804  0.1029 -0.1046  0.0352
  588DPPI    C3 9301  10.742  13.700  10.800  0.0568  0.2413  0.1572
  588DPPI   PO4 9302  10.436  13.894  10.380  0.4207  0.0204 -0.3520
  588DPPI   GL1 9303  10.560  14.093   9.943 -0.2952  0.0424  0.1545
  588DPPI   GL2 9304  10.664  13.774   9.976 -0.0965 -0.3527 -0.0802
  588DPPI   C1A 9305  10.590  14.094   9.451  0.0311 -0.1767  0.0223
  588DPPI   C2A 9306  10.644  14.049   8.983 -0.1617 -0.1595 -0.2433
  588DPPI   C3A 9307  10.652  13.869   8.551  0.1958 -0.1456  0.2400
  588DPPI   C4A 9308  10.708  13.706   8.135 -0.1504 -0.5860 -0.0460
  588DPPI   C1B 9309  10.818  13.715   9.683  0.4991  0.0839 -0.2614
  588DPPI   C2B 9310  10.827  13.685   9.248  0.3760 -0.0702 -0.1620
  588DPPI   C3B 9311  10.858  13.522   8.910  0.0398  0.2184 -0.0536
  588DPPI   C4B 9312  10.956  13.495   8.515 -0.0059 -0.1344  0.0921
  589DPPI    C1 9313   9.496  12.206  10.467  0.0776  0.0607 -0.0167
  589DPPI    C2 9314   9.549  11.994  10.802  0.0195  0.0472 -0.0158
  589DPPI    C3 9315   9.199  12.175  10.733  0.0963  0.2121  0.0226
  589DPPI   PO4 9316   9.669  12.142  10.356 -0.0075  0.0667  0.1336
  589DPPI   GL1 9317   9.808  12.171   9.983  0.3510 -0.2661  0.4352
  589DPPI   GL2 9318   9.844  12.430   9.801 -0.2563  0.0603 -0.0969
  589DPPI   C1A 9319   9.680  11.953   9.617 -0.1949 -0.2507  0.0971
  589DPPI   C2A 9320   9.739  11.937   9.102 -0.1909  0.0987 -0.1607
  589DPPI   C3A 9321   9.745  11.871   8.734  0.0397 -0.1790 -0.1142
  589DPPI   C4A 9322   9.800  12.206   8.345 -0.1826  0.1149 -0.0805
  589DPPI   C1B 9323   9.804  12.373   9.383 -0.0808  0.3902 -0.2014
  589DPPI   C2B 9324   9.779  12.395   8.915 -0.0512 -0.0139  0.0626
  589DPPI   C3B 9325   9.867  12.665   8.580 -0.2465  0.1404  0.3700
  589DPPI   C4B 9326  10.181  12.969   8.260 -0.1839 -0.3379  0.1072
  590DPPI    C1 9327   5.357   3.470  10.884 -0.0962  0.1065  0.0646
  590DPPI    C2 9328   5.302   3.254  11.216  0.1600 -0.0414  0.0144
  590DPPI    C3 9329   5.145   3.131  10.869  0.1171 -0.0279  0.0289
  590DPPI   PO4 9330   5.610   3.449  10.793 -0.1807 -0.3969  0.1330
  590DPPI   GL1 9331   5.729   3.511  10.452 -0.1214  0.1952 -0.1426
  590DPPI   GL2 9332   5.962   3.319  10.270  0.2698  0.0177  0.0251
  590DPPI   C1A 9333   5.722   3.741  10.089 -0.1511 -0.1144  0.0749
  590DPPI   C2A 9334   5.753   3.801   9.634 -0.0191  0.0914 -0.1948
  590DPPI   C3A 9335   5.666   3.684   9.263 -0.1589 -0.1758 -0.0969
  590DPPI   C4A 9336   5.681   3.824   8.836  0.0951 -0.0226  0.1498
  590DPPI   C1B 9337   6.037   3.427   9.806 -0.2989  0.0483  0.0224
  590DPPI   C2B 9338   6.049   3.343   9.390 -0.1333 -0.0479 -0.1315
  590DPPI   C3B 9339   6.040   3.434   8.995  0.2634  0.3429 -0.4180
  590DPPI   C4B 9340   6.016   3.324   8.565  0.0232  0.0860 -0.2179
  591DPPI    C1 9341   4.202   6.855  10.480  0.3578  0.1248 -0.1313
  591DPPI    C2 9342   3.919   7.131  10.543  0.0365 -0.1919 -0.1590
  591DPPI    C3 9343   4.127   6.985  10.851  0.2933  0.1645 -0.1579
  591DPPI   PO4 9344   4.207   6.792  10.241  0.0732 -0.0508 -0.0355
  591DPPI   GL1 9345   4.342   6.439  10.028  0.0044  0.2171  0.3597
  591DPPI   GL2 9346   4.540   6.701   9.881 -0.2454  0.4923 -0.3331
  591DPPI   C1A 9347   4.316   6.456   9.505 -0.0450  0.0037  0.1727
  591DPPI   C2A 9348   4.323   6.433   9.059  0.2821  0.0368 -0.0269
  591DPPI   C3A 9349   4.116   6.368   8.597 -0.0126 -0.1543  0.0643
  591DPPI   C4A 9350   3.881   6.414   8.213 -0.2469  0.0829 -0.1968
  591DPPI   C1B 9351   4.303   6.985   9.610  0.3707 -0.0080  0.2376
  591DPPI   C2B 9352   4.223   6.951   9.164  0.0177 -0.1839 -0.1769
  591DPPI   C3B 9353   4.294   6.837   8.741  0.0296 -0.1441 -0.1592
  591DPPI   C4B 9354   4.230   6.795   8.371  0.0666 -0.1312  0.3122
  592DPPI    C1 9355  11.891   3.237  11.122 -0.2019 -0.0196  0.0546
  592DPPI    C2 9356  12.148   3.023  11.342 -0.0810  0.1958  0.1252
  592DPPI    C3 9357  11.801   3.142  11.500 -0.1420  0.0648  0.0904
  592DPPI   PO4 9358  11.944   3.163  10.829  0.2773  0.1471 -0.0630
  592DPPI   GL1 9359  11.806   2.962  10.532 -0.0279  0.2778  0.0810
  592DPPI   GL2 9360  12.052   2.810  10.402  0.2987 -0.0327 -0.1657
  592DPPI   C1A 9361  11.701   3.034  10.130 -0.2584  0.0390  0.0168
  592DPPI   C2A 9362  11.612   3.096   9.661 -0.1693 -0.0545 -0.0807
  592DPPI   C3A 9363  11.760   3.021   9.193 -0.3225  0.0076 -0.0055
  592DPPI   C4A 9364  11.837   2.955   8.770  0.1724  0.1608  0.0801
  592DPPI   C1B 9365  12.081   2.675   9.917 -0.2934  0.0027 -0.0098
  592DPPI   C2B 9366  11.968   2.697   9.511 -0.0416 -0.2046  0.0951
  592DPPI   C3B 9367  12.167   2.655   9.059  0.1256 -0.0053 -0.0958
  592DPPI   C4B 9368  12.097   2.500   8.572  0.1363  0.0144  0.2937
  593DPPI    C1 9369  13.220   1.513  10.645  0.1728 -0.0996 -0.2146
  593DPPI    C2 9370  12.932   1.441  10.912  0.1550 -0.0410 -0.2179
  593DPPI    C3 9371  13.313   1.466  11.031  0.1532 -0.0691 -0.2062
  593DPPI   PO4 9372  13.132   1.326  10.473 -0.1527  0.0982 -0.0635
  593DPPI   GL1 9373  13.059   1.340  10.072 -0.3020  0.1384  0.0276
  593DPPI   GL2 9374  12.931   0.942  10.138 -0.0017  0.0540  0.1075
  593DPPI   C1A 9375  13.076   1.493   9.631 -0.1462 -0.3161 -0.2442
  593DPPI   C2A 9376  13.068   1.444   9.165  0.2403 -0.1854  0.3680
  593DPPI   C3A 9377  13.046   1.534   8.720 -0.2300 -0.0879 -0.1774
  593DPPI   C4A 9378  12.981   1.707   8.331  0.1108  0.0825  0.1208
  593DPPI   C1B 9379  12.884   0.972   9.627  0.4756  0.1630 -0.3688
  593DPPI   C2B 9380  12.907   1.005   9.213 -0.6723  0.0074  0.0481
  593DPPI   C3B 9381  12.847   1.071   8.755  0.1607 -0.2911 -0.1679
  593DPPI   C4B 9382  12.889   1.134   8.325  0.3322 -0.1210  0.0871
  594PYPI    C1 9383   7.470  15.285  10.445  0.1427  0.1487 -0.3347
  594PYPI    C2 9384   7.382  15.607  10.224 -0.1203  0.2073 -0.1492
  594PYPI    C3 9385   7.371  15.630  10.623 -0.2313 -0.0556 -0.1352
  594PYPI   PO4 9386   7.604  15.152  10.221  0.2257  0.2130  0.1350
  594PYPI   GL1 9387   7.662  15.301   9.867 -0.0979  0.0645  0.0561
  594PYPI   GL2 9388   7.964  15.558   9.913 -0.0581 -0.0997  0.0650
  594PYPI   C1A 9389   7.618  15.223   9.408  0.1619 -0.1641 -0.0252
  594PYPI   C2A 9390   7.596  14.995   9.069  0.3225 -0.0072 -0.1336
  594PYPI   D3A 9391   7.531  14.972   8.686  0.1992 -0.0599 -0.1401
  594PYPI   C4A 9392   7.832  15.164   8.385  0.0898 -0.2208  0.0444
  594PYPI   C1B 9393   7.850  15.616   9.563  0.2031 -0.2061 -0.3619
  594PYPI   C2B 9394   8.010  15.529   9.193 -0.0137  0.1770 -0.0303
  594PYPI   C3B 9395   8.105  15.695   8.902  0.0538  0.1376 -0.2926
  594PYPI   C4B 9396   8.420  15.870   8.677  0.1873  0.0405  0.0233
  595PYPI    C1 9397  16.236  10.747  11.010  0.0100  0.2503 -0.0147
  595PYPI    C2 9398  16.233  10.594  11.380 -0.0957  0.0862 -0.0824
  595PYPI    C3 9399  16.534  10.830  11.263 -0.2218  0.4011  0.2143
  595PYPI   PO4 9400  16.158  10.476  10.885 -0.1561 -0.0390 -0.1059
  595PYPI   GL1 9401  16.381  10.322  10.579 -0.1768  0.1094  0.1815
  595PYPI   GL2 9402  16.540  10.222  10.275 -0.1369 -0.1740  0.1852
  595PYPI   C1A 9403  16.649  10.713  10.241 -0.0453  0.0187  0.1106
  595PYPI   C2A 9404  16.611  10.743   9.832  0.1544 -0.3568  0.0700
  595PYPI   D3A 9405  16.600  10.918   9.443  0.0663 -0.1889 -0.2769
  595PYPI   C4A 9406  16.633  10.799   9.060 -0.0318 -0.0728  0.0412
  595PYPI   C1B 9407  16.395  10.313   9.925 -0.0985 -0.0123  0.0771
  595PYPI   C2B 9408  16.451  10.407   9.484  0.2509 -0.1556  0.2767
  595PYPI   C3B 9409  16.382  10.345   9.060  0.1430  0.2614  0.2889
  595PYPI   C4B 9410  16.362  10.562   8.590 -0.0828 -0.1008  0.4980
  596PYPI    C1 9411  11.159  10.895  10.616  0.1320  0.1305  0.2701
  596PYPI    C2 9412  10.782  10.829  10.735  0.0974 -0.0629  0.0602
  596PYPI    C3 9413  11.087  10.710  10.964  0.0307 -0.2908  0.0331
  596PYPI   PO4 9414  11.004  10.976  10.282  0.1620 -0.0357 -0.2073
  596PYPI   GL1 9415  11.103  11.119   9.930  0.1692  0.0250  0.0741
  596PYPI   GL2 9416  11.285  11.264   9.834  0.0664  0.2406 -0.0994
  596PYPI   C1A 9417  11.218  10.812   9.639  0.0513 -0.0922 -0.1573
  596PYPI   C2A 9418  11.222  10.757   9.150 -0.0055  0.0083  0.1244
  596PYPI   D3A 9419  11.258  10.897   8.768  0.1138 -0.2596 -0.2809
  596PYPI   C4A 9420  11.407  10.678   8.478 -0.0725 -0.3835  0.1546
  596PYPI   C1B 9421  11.321  11.404   9.392  0.2733 -0.0096  0.0132
  596PYPI   C2B 9422  11.356  11.368   9.030 -0.0843 -0.0891  0.0235
  596PYPI   C3B 9423  11.595  11.320   8.614  0.2308  0.0182  0.1899
  596PYPI   C4B 9424  11.666  11.222   8.183  0.4229 -0.0284 -0.0430
  597PYPI    C1 9425   4.495   9.938  10.518  0.1687  0.0197 -0.0793
  597PYPI    C2 9426   4.617  10.309  10.606 -0.0047  0.0496  0.0387
  597PYPI    C3 9427   4.714  10.004  10.846  0.0461  0.0351 -0.0001
  597PYPI   PO4 9428   4.226  10.023  10.453 -0.0786  0.0265  0.3155
  597PYPI   GL1 9429   4.013   9.787  10.306 -0.2680 -0.0559 -0.1177
  597PYPI   GL2 9430   3.919   9.498  10.326 -0.1277  0.0468  0.1596
  597PYPI   C1A 9431   4.000  10.065   9.820 -0.1477  0.3510 -0.3279
  597PYPI   C2A 9432   4.050   9.935   9.347  0.0097  0.2247  0.0740
  597PYPI   D3A 9433   4.056   9.941   8.874 -0.1231 -0.0701 -0.1410
  597PYPI   C4A 9434   4.075  10.040   8.403  0.0537 -0.1632  0.4007
  597PYPI   C1B 9435   3.863   9.533   9.886  0.0372  0.2493  0.0078
  597PYPI   C2B 9436   3.916   9.434   9.483  0.1617 -0.1951 -0.0990
  597PYPI   C3B 9437   3.951   9.467   9.072  0.2380 -0.0441 -0.0318
  597PYPI   C4B 9438   3.881   9.483   8.546  0.2985 -0.1586  0.3755
  598PYPI    C1 9439   9.052  13.640  10.190 -0.1446  0.3468 -0.0727
  598PYPI    C2 9440   8.818  13.489  10.477  0.0710 -0.2354 -0.1892
  598PYPI    C3 9441   9.089  13.770  10.566 -0.2905  0.0465  0.0484
  598PYPI   PO4 9442   8.902  13.777  10.017  0.0711 -0.0168  0.0690
  598PYPI   GL1 9443   8.876  13.602   9.657  0.3389  0.2174 -0.1210
  598PYPI   GL2 9444   9.223  13.459   9.754 -0.2346 -0.0148  0.1655
  598PYPI   C1A 9445   8.878  13.651   9.287  0.1529  0.0810 -0.1411
  598PYPI   C2A 9446   8.889  13.619   8.888 -0.4620  0.0034 -0.0783
  598PYPI   D3A 9447   8.853  13.586   8.439 -0.2956 -0.0283  0.1202
  598PYPI   C4A 9448   8.843  13.843   8.163  0.1297 -0.0974  0.1240
  598PYPI   C1B 9449   9.402  13.397   9.401 -0.1838 -0.0990  0.4949
  598PYPI   C2B 9450   9.365  13.392   8.991  0.4270  0.3901 -0.2394
  598PYPI   C3B 9451   9.286  13.364   8.640 -0.1442 -0.2312 -0.0428
  598PYPI   C4B 9452   9.244  13.500   8.168 -0.1672 -0.2622  0.1403
  599PYPI    C1 9453   6.119   9.064  10.468 -0.1093 -0.1583  0.0244
  599PYPI    C2 9454   6.427   8.818  10.533 -0.0779 -0.1063  0.0734
  599PYPI    C3 9455   6.192   8.929  10.837 -0.0656 -0.0410  0.0590
  599PYPI   PO4 9456   6.027   8.986  10.318  0.0210  0.2132  0.3680
  599PYPI   GL1 9457   6.071   8.750   9.983 -0.0461  0.2695 -0.4438
  599PYPI   GL2 9458   5.996   8.446  10.066  0.1569 -0.1110 -0.2020
  599PYPI   C1A 9459   6.205   8.968   9.589 -0.2149 -0.2388  0.0708
  599PYPI   C2A 9460   6.220   8.880   9.147 -0.1049 -0.2148 -0.1862
  599PYPI   D3A 9461   6.229   8.845   8.677  0.1160  0.0447  0.0564
  599PYPI   C4A 9462   6.232   9.017   8.308 -0.2069  0.1018  0.1005
  599PYPI   C1B 9463   6.021   8.452   9.589  0.2509  0.1392  0.0061
  599PYPI   C2B 9464   6.080   8.410   9.092 -0.0897  0.1531  0.0285
  599PYPI   C3B 9465   5.927   8.319   8.668 -0.1126  0.1461 -0.0538
  599PYPI   C4B 9466   5.983   8.580   8.262 -0.0906  0.2424 -0.1315
  600PYPI    C1 9467   8.276  17.931  10.961 -0.1882  0.1094  0.0027
  600PYPI    C2 9468   8.029  17.788  11.240 -0.0051  0.1729  0.2003
  600PYPI    C3 9469   8.414  17.852  11.328  0.1240 -0.0868 -0.1525
  600PYPI   PO4 9470   8.212  17.774  10.721 -0.4299  0.2750 -0.0822
  600PYPI   GL1 9471   8.269  17.798  10.198 -0.1375  0.1485 -0.0092
  600PYPI   GL2 9472   8.600  17.765  10.271 -0.0440  0.3171 -0.1550
  600PYPI   C1A 9473   8.064  17.556   9.788 -0.1135  0.1594  0.0537
  600PYPI   C2A 9474   8.106  17.635   9.516  0.1673 -0.0589  0.0153
  600PYPI   D3A 9475   8.030  17.523   9.045 -0.1022 -0.1721 -0.1341
  600PYPI   C4A 9476   8.081  17.575   8.616 -0.0278  0.2693  0.0471
  600PYPI   C1B 9477   8.606  17.595   9.896 -0.0044  0.3800 -0.1194
  600PYPI   C2B 9478   8.581  17.685   9.417  0.0554  0.1733 -0.4996
  600PYPI   C3B 9479   8.562  17.720   8.982  0.0477 -0.1648 -0.0754
  600PYPI   C4B 9480   8.514  17.791   8.495 -0.0275 -0.0152 -0.0080
  601PYPI    C1 9481  10.743   0.622  10.874 -0.1907  0.1893  0.1244
  601PYPI    C2 9482  10.684   0.396  11.199  0.2663 -0.1462 -0.0151
  601PYPI    C3 9483  10.948   0.697  11.209  0.0737  0.0247  0.0029
  601PYPI   PO4 9484  10.705   0.379  10.670  0.1720 -0.0818 -0.1537
  601PYPI   GL1 9485  10.609   0.323  10.195  0.1043 -0.2338  0.0401
  601PYPI   GL2 9486  10.784   0.625  10.195 -0.2131  0.2990  0.0828
  601PYPI   C1A 9487  10.300   0.504   9.751 -0.1176  0.0995 -0.0096
  601PYPI   C2A 9488  10.246   0.408   9.388  0.0219  0.2044  0.0054
  601PYPI   D3A 9489  10.234   0.580   8.991 -0.0162 -0.1950 -0.1085
  601PYPI   C4A 9490  10.126   0.599   8.545  0.0767 -0.0761  0.1354
  601PYPI   C1B 9491  10.817   0.715   9.807 -0.1226  0.0738  0.0546
  601PYPI   C2B 9492  10.704   0.608   9.390  0.0143 -0.2207  0.1735
  601PYPI   C3B 9493  10.773   0.623   9.006 -0.2208 -0.3461  0.1940
  601PYPI   C4B 9494  10.656   0.667   8.474  0.1504  0.2461  0.2377
  602PYPI    C1 9495  12.329   0.345  10.894 -0.0995  0.3454 -0.0782
  602PYPI    C2 9496  12.062   0.052  10.952  0.2510  0.0359  0.0126
  602PYPI    C3 9497  12.177   0.282  11.259  0.0390  0.2181 -0.0416
  602PYPI   PO4 9498  12.484   0.172  10.709 -0.0412 -0.1729 -0.0100
  602PYPI   GL1 9499  12.201   0.087  10.387  0.2313 -0.2626 -0.0746
  602PYPI   GL2 9500  12.518  -0.113  10.229  0.1210  0.1493 -0.3922
  602PYPI   C1A 9501  12.234   0.331   9.889  0.0103 -0.2405  0.1568
  602PYPI   C2A 9502  12.266   0.409   9.471 -0.0098  0.1922  0.0488
  602PYPI   D3A 9503  12.302   0.454   9.075 -0.3398  0.1901  0.0818
  602PYPI   C4A 9504  12.213   0.453   8.665  0.1767  0.0434 -0.1262
  602PYPI   C1B 9505  12.594  -0.056   9.872 -0.3039  0.0417 -0.1064
  602PYPI   C2B 9506  12.703  -0.085   9.528  0.1184  0.0803 -0.1079
  602PYPI   C3B 9507  12.604   0.073   9.148  0.2011  0.1671 -0.0005
  602PYPI   C4B 9508  12.565   0.072   8.704 -0.1100 -0.4222 -0.2264
  603PYPI    C1 9509  13.312  15.528  10.933  0.0942 -0.2704  0.0165
  603PYPI    C2 9510  12.926  15.527  10.827  0.1322  0.0705 -0.1361
  603PYPI    C3 9511  13.039  15.695  11.172  0.1606  0.0966 -0.1580
  603PYPI   PO4 9512  13.382  15.321  10.883  0.1149  0.0697  0.1237
  603PYPI   GL1 9513  13.372  15.139  10.461 -0.0253  0.2597 -0.1324
  603PYPI   GL2 9514  13.075  15.100  10.499  0.2325  0.0658 -0.3683
  603PYPI   C1A 9515  13.462  15.288  10.119  0.0552 -0.2524  0.0731
  603PYPI   C2A 9516  13.476  15.416   9.674 -0.0932  0.0877 -0.2936
  603PYPI   D3A 9517  13.488  15.475   9.206 -0.2503 -0.2223  0.2392
  603PYPI   C4A 9518  13.270  15.296   8.846 -0.3043 -0.1965  0.1937
  603PYPI   C1B 9519  12.975  15.261  10.158  0.1047  0.0025  0.3309
  603PYPI   C2B 9520  13.035  15.287   9.767  0.0252  0.0765 -0.2702
  603PYPI   C3B 9521  13.004  15.285   9.376  0.1065  0.3260  0.0586
  603PYPI   C4B 9522  12.803  15.145   8.939 -0.3346 -0.0913 -0.1354
  604PYPI    C1 9523   6.085   6.431  10.782 -0.0583  0.0051  0.1434
  604PYPI    C2 9524   5.984   6.152  11.050  0.0210  0.0098  0.1785
  604PYPI    C3 9525   5.710   6.412  10.919 -0.0042  0.0453  0.2996
  604PYPI   PO4 9526   6.135   6.268  10.545  0.1118 -0.0018 -0.1999
  604PYPI   GL1 9527   6.146   6.150  10.123 -0.0340 -0.1653 -0.0816
  604PYPI   GL2 9528   6.486   6.219  10.195 -0.1722 -0.2319  0.1266
  604PYPI   C1A 9529   6.160   6.161   9.667  0.1259  0.0862  0.1445
  604PYPI   C2A 9530   6.068   6.124   9.193  0.1706  0.0894  0.0804
  604PYPI   D3A 9531   6.041   6.175   8.739 -0.0161 -0.0178 -0.5320
  604PYPI   C4A 9532   6.171   6.199   8.379 -0.0365  0.4058 -0.0964
  604PYPI   C1B 9533   6.662   6.245   9.850  0.3709  0.2293  0.1872
  604PYPI   C2B 9534   6.590   6.185   9.386  0.3238  0.0808  0.1937
  604PYPI   C3B 9535   6.618   6.204   8.898 -0.2627 -0.2818 -0.1261
  604PYPI   C4B 9536   6.649   6.326   8.518  0.1838  0.0203  0.0360
  605PYPI    C1 9537   6.021  14.668  10.857 -0.0207 -0.3078 -0.0083
  605PYPI    C2 9538   5.653  14.734  11.000 -0.0319 -0.0954 -0.1303
  605PYPI    C3 9539   5.968  14.916  11.167  0.0089 -0.2101 -0.0809
  605PYPI   PO4 9540   6.035  14.757  10.655 -0.1833  0.0698  0.0760
  605PYPI   GL1 9541   6.102  14.687  10.261 -0.2765  0.0751  0.0028
  605PYPI   GL2 9542   5.735  14.786  10.221 -0.1613 -0.2332 -0.1673
  605PYPI   C1A 9543   6.394  14.810   9.949  0.0694  0.2108 -0.1827
  605PYPI   C2A 9544   6.250  14.764   9.515 -0.1314  0.2521 -0.1342
  605PYPI   D3A 9545   6.034  14.901   9.166 -0.0768  0.0792  0.1121
  605PYPI   C4A 9546   5.931  14.878   8.740 -0.0841 -0.0481  0.0434
  605PYPI   C1B 9547   5.895  15.006   9.840 -0.0143  0.1156  0.0800
  605PYPI   C2B 9548   5.745  15.181   9.479  0.0869 -0.1110  0.2329
  605PYPI   C3B 9549   5.621  15.194   9.076  0.1093 -0.1689  0.0818
  605PYPI   C4B 9550   5.547  15.302   8.649  0.0962  0.1635 -0.2168
  606PYPI    C1 9551   1.350   2.963  10.487 -0.1029 -0.1445  0.1088
  606PYPI    C2 9552   1.606   2.661  10.427 -0.1098 -0.1202 -0.0488
  606PYPI    C3 9553   1.279   2.606  10.652  0.0579 -0.1376  0.1947
  606PYPI   PO4 9554   1.341   3.104  10.238  0.1350  0.3409 -0.0716
  606PYPI   GL1 9555   1.525   2.944   9.901 -0.0415  0.1448  0.4076
  606PYPI   GL2 9556   1.548   3.241   9.799 -0.0256  0.0858 -0.0865
  606PYPI   C1A 9557   1.494   2.964   9.383  0.1298  0.2254  0.0007
  606PYPI   C2A 9558   1.590   3.039   8.996  0.1432 -0.1691 -0.0275
  606PYPI   D3A 9559   1.505   3.150   8.465  0.0294  0.1433  0.0039
  606PYPI   C4A 9560   1.758   3.108   8.086 -0.1617  0.1586  0.0076
  606PYPI   C1B 9561   1.782   3.463   9.498 -0.6676 -0.0775 -0.0258
  606PYPI   C2B 9562   1.739   3.520   9.120  0.1281  0.0592  0.0801
  606PYPI   C3B 9563   1.754   3.624   8.744 -0.1874 -0.2361 -0.2009
  606PYPI   C4B 9564   1.693   3.579   8.337  0.0382  0.2376  0.2796
  607ERGO   ROH 9565   7.785   7.970  10.043  0.0585 -0.0031 -0.1065
  607ERGO    R1 9566   7.702   7.816   9.820  0.0627 -0.1107 -0.0348
  607ERGO    R2 9567   7.571   7.927   9.603 -0.0352 -0.2342 -0.0407
  607ERGO    R3 9568   7.772   7.810   9.463 -0.0236 -0.2023 -0.0505
  607ERGO    R4 9569   7.578   7.892   9.259  0.0126 -0.1229 -0.0516
  607ERGO    R5 9570   7.661   7.692   9.286 -0.0056 -0.1370 -0.1050
  607ERGO    C1 9571   7.771   7.761   8.927  0.0514 -0.0282 -0.0671
  607ERGO    C2 9572   7.639   7.729   8.487  0.0499  0.2002 -0.1101
  608ERGO   ROH 9573  15.133  12.317  10.479 -0.0478 -0.0876 -0.0660
  608ERGO    R1 9574  15.112  12.404  10.210  0.0942 -0.0531 -0.0672
  608ERGO    R2 9575  15.310  12.553  10.085  0.3154 -0.3187 -0.0500
  608ERGO    R3 9576  15.298  12.354   9.902  0.0561 -0.3054 -0.0502
  608ERGO    R4 9577  15.329  12.596   9.743  0.0556 -0.3232 -0.0665
  608ERGO    R5 9578  15.174  12.446   9.720 -0.0432 -0.2367  0.0545
  608ERGO    C1 9579  15.329  12.433   9.371 -0.3391 -0.3133 -0.0762
  608ERGO    C2 9580  15.240  12.480   9.046 -0.0312 -0.0702 -0.0597
  609ERGO   ROH 9581   5.278   3.639  10.333 -0.1563 -0.3086 -0.2253
  609ERGO    R1 9582   5.207   3.594  10.063 -0.4005  0.0607 -0.2305
  609ERGO    R2 9583   5.058   3.774   9.915  0.0616  0.6038 -0.0656
  609ERGO    R3 9584   5.267   3.756   9.742 -0.0414  0.0914 -0.1518
  609ERGO    R4 9585   5.028   3.747   9.572 -0.1451  0.5731 -0.0464
  609ERGO    R5 9586   5.191   3.603   9.574 -0.4565  0.2040 -0.0793
  609ERGO    C1 9587   5.207   3.714   9.210 -0.3621  0.0743 -0.1162
  609ERGO    C2 9588   5.128   3.595   8.881  0.0904 -0.1245  0.1413
  610ERGO   ROH 9589  13.077   3.688  10.393 -0.0526  0.0453 -0.0043
  610ERGO    R1 9590  12.920   3.660  10.158 -0.0009  0.0530 -0.0416
  610ERGO    R2 9591  12.902   3.859   9.966 -0.0235  0.0947 -0.0036
  610ERGO    R3 9592  12.979   3.659   9.799  0.0703  0.1541 -0.0295
  610ERGO    R4 9593  12.921   3.885   9.622 -0.2424  0.0819 -0.0163
  610ERGO    R5 9594  12.838   3.684   9.608 -0.0607  0.0044  0.0484
  610ERGO    C1 9595  13.003   3.713   9.265 -0.2819  0.1301 -0.0480
  610ERGO    C2 9596  12.937   3.764   8.934  0.1407 -0.0126  0.0012
  611ERGO   ROH 9597   1.560  11.350  10.380  0.0211  0.1335  0.0417
  611ERGO    R1 9598   1.706  11.453  10.161 -0.0321  0.1133 -0.0029
  611ERGO    R2 9599   1.802  11.294   9.956 -0.0142  0.0847  0.0304
  611ERGO    R3 9600   1.665  11.469   9.799 -0.0772  0.0064 -0.0034
  611ERGO    R4 9601   1.805  11.293   9.611  0.0307  0.0483  0.0307
  611ERGO    R5 9602   1.813  11.511   9.615 -0.0709  0.0553  0.0102
  611ERGO    C1 9603   1.679  11.456   9.262 -0.0022 -0.0464 -0.0008
  611ERGO    C2 9604   1.713  11.321   9.070 -0.1618 -0.0384  0.1067
  612ERGO   ROH 9605   8.779   2.910  10.343  0.1241 -0.0147  0.0344
  612ERGO    R1 9606   8.726   2.997  10.079  0.0140 -0.0030  0.0597
  612ERGO    R2 9607   8.925   3.075   9.904 -0.0573 -0.0019 -0.0237
  612ERGO    R3 9608   8.812   2.888   9.742 -0.1318  0.0074  0.0179
  612ERGO    R4 9609   8.905   3.099   9.560 -0.0726 -0.0522 -0.0257
  612ERGO    R5 9610   8.703   3.016   9.571 -0.1009  0.0164  0.0039
  612ERGO    C1 9611   8.787   2.937   9.207 -0.1516 -0.0729  0.0123
  612ERGO    C2 9612   8.771   2.967   8.714 -0.0390  0.3440  0.0043
  613ERGO   ROH 9613   4.601   9.137   9.896  0.1153  0.4980  0.1436
  613ERGO    R1 9614   4.759   9.171   9.664 -0.0207  0.3702  0.0294
  613ERGO    R2 9615   4.737   9.005   9.444 -0.0460  0.1517  0.1870
  613ERGO    R3 9616   4.699   9.240   9.312 -0.2415  0.0141 -0.0069
  613ERGO    R4 9617   4.788   9.052   9.105  0.1346 -0.0226  0.1891
  613ERGO    R5 9618   4.876   9.246   9.150 -0.1359  0.1166  0.1148
  613ERGO    C1 9619   4.782   9.299   8.784  0.0562 -0.2531  0.0083
  613ERGO    C2 9620   4.761   9.307   8.472  0.0901  0.0499  0.1580
  614ERGO   ROH 9621  10.291   8.450   9.726 -0.0710 -0.0730  0.1028
  614ERGO    R1 9622  10.266   8.276   9.504 -0.1239  0.0032  0.0471
  614ERGO    R2 9623  10.145   8.352   9.267 -0.0330  0.1403  0.0390
  614ERGO    R3 9624  10.380   8.270   9.158 -0.0543  0.0402  0.0703
  614ERGO    R4 9625  10.207   8.326   8.928 -0.0873 -0.1612  0.0509
  614ERGO    R5 9626  10.315   8.141   8.968 -0.0854 -0.1266  0.1951
  614ERGO    C1 9627  10.463   8.233   8.629 -0.1387 -0.4308  0.0872
  614ERGO    C2 9628  10.443   8.367   8.297  0.2225  0.1211  0.1747
  615ERGO   ROH 9629   9.719  16.907  10.246 -0.1087  0.2361  0.0369
  615ERGO    R1 9630   9.819  16.962   9.987 -0.0917  0.1965  0.0354
  615ERGO    R2 9631   9.837  16.770   9.789 -0.0596  0.1630  0.0746
  615ERGO    R3 9632   9.692  16.949   9.646 -0.0609  0.1243  0.0256
  615ERGO    R4 9633   9.835  16.792   9.445  0.0723  0.1744  0.0737
  615ERGO    R5 9634   9.834  17.009   9.464 -0.0039  0.1766  0.0842
  615ERGO    C1 9635   9.698  16.974   9.109  0.1479  0.1450  0.0272
  615ERGO    C2 9636   9.734  17.112   8.776 -0.0568  0.2443  0.1316
  616ERGO   ROH 9637   0.635  10.529  10.195  0.2922 -0.1039 -0.1097
  616ERGO    R1 9638   0.506  10.564   9.945  0.2598 -0.2108 -0.1082
  616ERGO    R2 9639   0.551  10.784   9.784  0.0187 -0.1355 -0.0737
  616ERGO    R3 9640   0.609  10.595   9.597  0.2363 -0.0449 -0.1010
  616ERGO    R4 9641   0.537  10.834   9.442 -0.0734 -0.1106 -0.0669
  616ERGO    R5 9642   0.451  10.635   9.422  0.1690 -0.2186 -0.0821
  616ERGO    C1 9643   0.584  10.686   9.068  0.0773 -0.0109 -0.0887
  616ERGO    C2 9644   0.520  10.802   8.820  0.0714 -0.1954 -0.2275
  617ERGO   ROH 9645   4.710   5.987   9.989 -0.1075  0.2441 -0.0108
  617ERGO    R1 9646   4.623   5.867   9.748  0.0042  0.1461 -0.0037
  617ERGO    R2 9647   4.448   5.992   9.574 -0.1174 -0.0288 -0.0105
  617ERGO    R3 9648   4.644   5.942   9.392 -0.0692  0.1464 -0.0082
  617ERGO    R4 9649   4.400   5.975   9.232 -0.1089 -0.1181 -0.0072
  617ERGO    R5 9650   4.538   5.806   9.227  0.0632  0.0180  0.0104
  617ERGO    C1 9651   4.556   5.918   8.863 -0.0588 -0.0056 -0.0031
  617ERGO    C2 9652   4.410   5.940   8.547 -0.0469 -0.0057  0.0508
  618ERGO   ROH 9653   7.434   4.214  10.424  0.1096 -0.1193 -0.0873
  618ERGO    R1 9654   7.414   4.080  10.175 -0.0678 -0.0666 -0.1035
  618ERGO    R2 9655   7.181   4.074  10.027 -0.1078  0.1749 -0.0587
  618ERGO    R3 9656   7.340   4.172   9.831 -0.0528  0.0545 -0.0743
  618ERGO    R4 9657   7.138   4.013   9.690 -0.0730  0.0556 -0.0415
  618ERGO    R5 9658   7.355   3.994   9.671 -0.0768 -0.0102 -0.0029
  618ERGO    C1 9659   7.263   4.070   9.309 -0.0010 -0.1269 -0.0463
  618ERGO    C2 9660   7.240   4.048   8.996  0.0693  0.1841  0.2629
  619ERGO   ROH 9661   4.124   7.742   9.902 -0.0639 -0.0153  0.0346
  619ERGO    R1 9662   4.275   7.699   9.667  0.0229  0.1489  0.0610
  619ERGO    R2 9663   4.190   7.534   9.462  0.2669  0.0040  0.0817
  619ERGO    R3 9664   4.231   7.755   9.310 -0.0050  0.0343  0.0438
  619ERGO    R4 9665   4.153   7.547   9.119  0.2695 -0.1209  0.0754
  619ERGO    R5 9666   4.332   7.671   9.109  0.1211  0.1133  0.0651
  619ERGO    C1 9667   4.170   7.761   8.776  0.0160 -0.1652  0.0362
  619ERGO    C2 9668   4.190   7.781   8.316  0.0415  0.1433  0.0249
  620ERGO   ROH 9669   2.711  10.215   9.974  0.1124 -0.2235  0.0649
  620ERGO    R1 9670   2.816  10.153   9.718  0.0513 -0.0893  0.0058
  620ERGO    R2 9671   2.674  10.009   9.530  0.0701 -0.1376  0.0279
  620ERGO    R3 9672   2.729  10.224   9.372 -0.1372 -0.0602  0.0579
  620ERGO    R4 9673   2.679  10.005   9.184  0.0349 -0.0775  0.0269
  620ERGO    R5 9674   2.855  10.133   9.190 -0.0759  0.0793  0.0285
  620ERGO    C1 9675   2.734  10.204   8.835 -0.1803  0.0301  0.0544
  620ERGO    C2 9676   2.608  10.154   8.552 -0.0508 -0.2696 -0.1702
  621ERGO   ROH 9677  17.147   4.587   9.854 -0.2533 -0.2713 -0.0604
  621ERGO    R1 9678  17.224   4.501   9.595 -0.1430 -0.2583 -0.0318
  621ERGO    R2 9679  17.055   4.359   9.430 -0.1340 -0.0943 -0.1774
  621ERGO    R3 9680  17.111   4.559   9.254  0.1237 -0.0912 -0.0961
  621ERGO    R4 9681  17.061   4.323   9.086 -0.1700  0.0214 -0.1910
  621ERGO    R5 9682  17.238   4.451   9.081 -0.0011 -0.1922 -0.1323
  621ERGO    C1 9683  17.118   4.489   8.721  0.0511  0.0917 -0.1224
  621ERGO    C2 9684  16.991   4.389   8.406 -0.3711  0.1180 -0.0086
  622ERGO   ROH 9685   5.843  14.164  10.212  0.1206  0.0647 -0.0118
  622ERGO    R1 9686   5.748  14.259   9.963  0.1158  0.0219 -0.0257
  622ERGO    R2 9687   5.866  14.469   9.829  0.1556 -0.0476 -0.0967
  622ERGO    R3 9688   5.878  14.290   9.625  0.0822 -0.1057 -0.0515
  622ERGO    R4 9689   5.825  14.547   9.495  0.0733 -0.1342 -0.1078
  622ERGO    R5 9690   5.710  14.363   9.471  0.0472 -0.1301 -0.0265
  622ERGO    C1 9691   5.813  14.425   9.108 -0.0436 -0.2391 -0.0718
  622ERGO    C2 9692   5.747  14.434   8.747  0.1327 -0.1473  0.1670
  623ERGO   ROH 9693  15.049   4.044  10.022  0.0557  0.0021  0.1378
  623ERGO    R1 9694  15.044   4.165   9.766 -0.1299  0.0304  0.1539
  623ERGO    R2 9695  15.212   4.087   9.561 -0.0422  0.2803  0.1278
  623ERGO    R3 9696  14.979   4.058   9.424 -0.0202 -0.0136  0.1464
  623ERGO    R4 9697  15.188   4.049   9.218 -0.0158  0.0918  0.1457
  623ERGO    R5 9698  15.013   4.180   9.221 -0.1458 -0.0755  0.0865
  623ERGO    C1 9699  14.955   4.000   8.890  0.0201 -0.2938  0.1735
  623ERGO    C2 9700  14.982   4.067   8.538 -0.1466 -0.2151  0.0255
  624ERGO   ROH 9701  14.450   6.326  10.227 -0.1110  0.0252 -0.0422
  624ERGO    R1 9702  14.437   6.240   9.958 -0.0543  0.0300 -0.0453
  624ERGO    R2 9703  14.239   6.325   9.783  0.0042  0.0548 -0.0895
  624ERGO    R3 9704  14.452   6.396   9.630  0.0474  0.0280 -0.0443
  624ERGO    R4 9705  14.253   6.299   9.439  0.0010  0.1927 -0.1014
  624ERGO    R5 9706  14.459   6.232   9.456 -0.0218  0.0907 -0.1158
  624ERGO    C1 9707  14.460   6.351   9.094  0.0398  0.2477 -0.0660
  624ERGO    C2 9708  14.509   6.331   8.731 -0.1005 -0.1980 -0.1853
  625ERGO   ROH 9709   8.236  10.963   9.820  0.0107  0.0286  0.0263
  625ERGO    R1 9710   8.184  11.032   9.550 -0.0759  0.0801  0.0556
  625ERGO    R2 9711   8.337  11.217   9.412 -0.0280 -0.0027 -0.0037
  625ERGO    R3 9712   8.362  11.014   9.233 -0.2378 -0.0061 -0.0319
  625ERGO    R4 9713   8.418  11.257   9.079  0.0193 -0.0371  0.0040
  625ERGO    R5 9714   8.272  11.102   9.030 -0.1438  0.1201 -0.0206
  625ERGO    C1 9715   8.490  11.089   8.717 -0.1501 -0.0602 -0.0179
  625ERGO    C2 9716   8.531  11.216   8.383  0.2189  0.1390  0.1718
  626ERGO   ROH 9717  11.757  11.065   9.823 -0.0680  0.2528  0.0141
  626ERGO    R1 9718  11.715  10.920   9.583 -0.1238  0.1665  0.0751
  626ERGO    R2 9719  11.608  11.036   9.356  0.0029  0.1350 -0.0026
  626ERGO    R3 9720  11.833  10.938   9.239 -0.0419 -0.0823  0.0884
  626ERGO    R4 9721  11.644  10.973   9.018  0.0738  0.0881  0.0139
  626ERGO    R5 9722  11.753  10.791   9.069 -0.1159 -0.0140  0.0638
  626ERGO    C1 9723  11.877  10.844   8.712  0.0728 -0.1434  0.1090
  626ERGO    C2 9724  11.898  10.844   8.452 -0.1806  0.0393  0.3969
  627ERGO   ROH 9725   1.577  10.116  10.328  0.2958 -0.2683  0.1151
  627ERGO    R1 9726   1.699  10.087  10.074  0.2421 -0.3001  0.0929
  627ERGO    R2 9727   1.700   9.847   9.936 -0.0690 -0.2394 -0.0226
  627ERGO    R3 9728   1.591   9.999   9.738  0.1042 -0.0055  0.0566
  627ERGO    R4 9729   1.754   9.800   9.598 -0.3572 -0.3150 -0.0609
  627ERGO    R5 9730   1.765  10.016   9.574  0.0480 -0.3256 -0.0429
  627ERGO    C1 9731   1.684   9.914   9.215 -0.3623 -0.1393 -0.0088
  627ERGO    C2 9732   1.757   9.970   8.860  0.2912 -0.0487  0.0110
  628ERGO   ROH 9733  10.670  15.418  10.105 -0.1462  0.2081  0.1198
  628ERGO    R1 9734  10.574  15.331   9.853 -0.0791  0.1457  0.1159
  628ERGO    R2 9735  10.452  15.502   9.673 -0.0174  0.1037  0.0357
  628ERGO    R3 9736  10.642  15.407   9.504  0.0247  0.0467  0.1136
  628ERGO    R4 9737  10.439  15.524   9.329  0.1333  0.1150  0.0299
  628ERGO    R5 9738  10.519  15.322   9.318  0.0749  0.0888  0.0600
  628ERGO    C1 9739  10.610  15.448   8.969  0.2607  0.0681  0.0995
  628ERGO    C2 9740  10.545  15.348   8.636 -0.2612 -0.1054 -0.0440
  629ERGO   ROH 9741   3.703   3.915  10.293  0.2668  0.2086  0.0138
  629ERGO    R1 9742   3.714   4.022  10.032  0.3541  0.1407 -0.0113
  629ERGO    R2 9743   3.921   3.967   9.857  0.1885 -0.2774 -0.0920
  629ERGO    R3 9744   3.719   3.890   9.692 -0.0307  0.0587  0.0096
  629ERGO    R4 9745   3.945   3.943   9.513 -0.0321 -0.2956 -0.1072
  629ERGO    R5 9746   3.745   4.028   9.498  0.0911  0.0329  0.0064
  629ERGO    C1 9747   3.770   3.857   9.158 -0.3664  0.0093 -0.0208
  629ERGO    C2 9748   3.716   3.796   8.860 -0.3151  0.2214 -0.0648
  630ERGO   ROH 9749  17.730   7.800  10.074  0.0469 -0.0350  0.0988
  630ERGO    R1 9750  17.857   7.901   9.841 -0.0012  0.0361  0.1015
  630ERGO    R2 9751  17.986   7.738   9.659  0.2005  0.1153  0.1620
  630ERGO    R3 9752  17.821   7.861   9.482  0.1114 -0.0867  0.1047
  630ERGO    R4 9753  18.031   7.741   9.317  0.3033  0.1608  0.1768
  630ERGO    R5 9754  17.967   7.950   9.315  0.0563  0.0833  0.1502
  630ERGO    C1 9755  17.902   7.859   8.950  0.2795 -0.0023  0.1315
  630ERGO    C2 9756  17.898   7.691   8.599  0.1589  0.2002 -0.0792
  631ERGO   ROH 9757   0.226  16.718  10.033 -0.0088  0.1115  0.1173
  631ERGO    R1 9758   0.328  16.642   9.780 -0.1362 -0.0556  0.1153
  631ERGO    R2 9759   0.168  16.537   9.580 -0.3074  0.1804  0.1284
  631ERGO    R3 9760   0.274  16.740   9.433 -0.0036  0.0125  0.1142
  631ERGO    R4 9761   0.212  16.529   9.238 -0.3642  0.1125  0.1216
  631ERGO    R5 9762   0.404  16.628   9.265 -0.2016 -0.1942  0.0957
  631ERGO    C1 9763   0.337  16.714   8.900 -0.1122 -0.0844  0.1046
  631ERGO    C2 9764   0.197  16.552   8.574 -0.0464  0.0231 -0.3930
  632ERGO   ROH 9765   3.721  14.563  10.254  0.0708  0.1692 -0.0246
  632ERGO    R1 9766   3.776  14.646   9.989 -0.0710  0.0116 -0.1053
  632ERGO    R2 9767   3.975  14.530   9.835 -0.0644  0.0097 -0.0961
  632ERGO    R3 9768   3.772  14.494   9.658 -0.1106 -0.2269  0.0027
  632ERGO    R4 9769   4.015  14.491   9.494 -0.1812  0.0663 -0.1165
  632ERGO    R5 9770   3.839  14.617   9.464 -0.3488 -0.1390 -0.0287
  632ERGO    C1 9771   3.848  14.433   9.130 -0.2925 -0.1227 -0.0358
  632ERGO    C2 9772   3.824  14.508   8.821  0.1210 -0.1337  0.2106
  633ERGO   ROH 9773  11.734  11.458  10.007 -0.0412 -0.2539  0.0019
  633ERGO    R1 9774  11.741  11.482   9.725 -0.0346 -0.1497  0.0106
  633ERGO    R2 9775  11.965  11.568   9.588 -0.0666  0.0048  0.0551
  633ERGO    R3 9776  11.931  11.335   9.451  0.0519  0.0374 -0.0322
  633ERGO    R4 9777  12.014  11.530   9.248  0.2451  0.0874  0.0885
  633ERGO    R5 9778  11.837  11.403   9.241  0.2448  0.0918 -0.1042
  633ERGO    C1 9779  12.011  11.289   8.922  0.5380  0.1662  0.0259
  633ERGO    C2 9780  12.137  11.300   8.636  0.1435  0.0659 -0.3963
  634ERGO   ROH 9781   0.103  12.071  10.357  0.1814 -0.0636 -0.1298
  634ERGO    R1 9782   0.148  11.959  10.101 -0.0246 -0.1793 -0.1168
  634ERGO    R2 9783  -0.058  11.863   9.943 -0.2055  0.1571 -0.0942
  634ERGO    R3 9784   0.047  12.033   9.759  0.0883 -0.0479 -0.1230
  634ERGO    R4 9785  -0.102  11.835   9.601 -0.1552  0.1041 -0.0965
  634ERGO    R5 9786   0.107  11.891   9.575 -0.0614 -0.1993 -0.0603
  634ERGO    C1 9787  -0.029  11.978   9.229  0.1499 -0.1191 -0.1248
  634ERGO    C2 9788  -0.035  11.965   8.885 -0.0081 -0.2201  0.1723
  635ERGO   ROH 9789  12.986  10.512  10.053  0.1499 -0.0177  0.0429
  635ERGO    R1 9790  12.978  10.488   9.771  0.1632 -0.0765  0.0457
  635ERGO    R2 9791  13.019  10.703   9.601 -0.0236 -0.0639 -0.0020
  635ERGO    R3 9792  13.209  10.540   9.494  0.1155  0.0739  0.0375
  635ERGO    R4 9793  13.083  10.667   9.263 -0.1755 -0.3143 -0.0052
  635ERGO    R5 9794  13.109  10.454   9.295  0.1119 -0.2452  0.1816
  635ERGO    C1 9795  13.298  10.494   8.966 -0.1333 -0.3307  0.0300
  635ERGO    C2 9796  13.305  10.561   8.671  0.3800  0.0236  0.0956
  636ERGO   ROH 9797  16.574   8.492   9.932 -0.0078 -0.0267  0.2250
  636ERGO    R1 9798  16.609   8.560   9.659 -0.1992 -0.1132  0.1771
  636ERGO    R2 9799  16.857   8.556   9.535 -0.2368  0.1571  0.0916
  636ERGO    R3 9800  16.730   8.394   9.359 -0.0857 -0.1038  0.2159
  636ERGO    R4 9801  16.862   8.596   9.192 -0.3758 -0.0259  0.0667
  636ERGO    R5 9802  16.651   8.542   9.188 -0.3161 -0.2917  0.1515
  636ERGO    C1 9803  16.745   8.466   8.826 -0.3151 -0.3773  0.1690
  636ERGO    C2 9804  16.635   8.477   8.511 -0.1171  0.0651  0.2277
  637ERGO   ROH 9805   5.843  10.654  10.149  0.1517  0.0414  0.0350
  637ERGO    R1 9806   5.767  10.739   9.890 -0.0952 -0.1716  0.0322
  637ERGO    R2 9807   5.943  10.865   9.717 -0.4031  0.2093 -0.0235
  637ERGO    R3 9808   5.868  10.666   9.548  0.0171 -0.0057  0.0291
  637ERGO    R4 9809   5.964  10.879   9.372 -0.4337  0.1555 -0.0272
  637ERGO    R5 9810   5.771  10.779   9.361 -0.2280 -0.2611 -0.0030
  637ERGO    C1 9811   5.904  10.700   9.013 -0.0571 -0.0776  0.0199
  637ERGO    C2 9812   5.939  10.636   8.705 -0.6159  0.0565 -0.2212
  638ERGO   ROH 9813  17.295  12.654  10.575  0.2834  0.0683  0.0561
  638ERGO    R1 9814  17.385  12.771  10.334  0.1878 -0.0691 -0.0473
  638ERGO    R2 9815  17.462  12.621  10.115  0.0733 -0.1939 -0.0036
  638ERGO    R3 9816  17.278  12.773   9.986  0.0315 -0.2428 -0.0017
  638ERGO    R4 9817  17.444  12.660   9.772  0.0186 -0.2498 -0.0072
  638ERGO    R5 9818  17.398  12.871   9.804 -0.0099 -0.2522 -0.0339
  638ERGO    C1 9819  17.260  12.826   9.451 -0.0527 -0.3282 -0.0075
  638ERGO    C2 9820  17.240  12.765   9.094 -0.0648  0.0124 -0.1234
  639ERGO   ROH 9821  14.188  10.410  10.584 -0.0657  0.1298  0.0320
  639ERGO    R1 9822  14.193  10.466  10.307  0.0721  0.1687  0.0422
  639ERGO    R2 9823  14.409  10.587  10.184  0.2206 -0.0072  0.1292
  639ERGO    R3 9824  14.397  10.369  10.021  0.0747  0.0287  0.0901
  639ERGO    R4 9825  14.529  10.575   9.860 -0.1668  0.1015 -0.0242
  639ERGO    R5 9826  14.353  10.460   9.804 -0.2114  0.0735  0.1613
  639ERGO    C1 9827  14.587  10.365   9.519 -0.5294  0.1986 -0.1503
  639ERGO    C2 9828  14.577  10.466   9.178  0.1273  0.1623 -0.0694
  640ERGO   ROH 9829   9.774  17.575   6.345  0.1496 -0.2990  0.1736
  640ERGO    R1 9830   9.654  17.643   6.592  0.0228 -0.3201  0.1163
  640ERGO    R2 9831   9.678  17.485   6.817  0.1839 -0.1700  0.1950
  640ERGO    R3 9832   9.766  17.715   6.931 -0.1288  0.0024  0.1041
  640ERGO    R4 9833   9.660  17.558   7.155  0.4686 -0.2749  0.2371
  640ERGO    R5 9834   9.605  17.763   7.102 -0.0221 -0.3574  0.3271
  640ERGO    C1 9835   9.732  17.818   7.457  0.3409 -0.1741  0.1763
  640ERGO    C2 9836   9.630  17.989   7.760  0.0078 -0.0074 -0.2113
  641ERGO   ROH 9837  13.968   8.776  10.147 -0.2201  0.1371  0.1201
  641ERGO    R1 9838  13.873   8.876   9.899 -0.0796  0.1947  0.0878
  641ERGO    R2 9839  14.040   8.990   9.711  0.0617  0.0434  0.1150
  641ERGO    R3 9840  13.927   8.804   9.547 -0.0518  0.1181  0.1084
  641ERGO    R4 9841  14.088   8.973   9.369 -0.0621  0.1044  0.0946
  641ERGO    R5 9842  13.877   8.926   9.346 -0.0820  0.1773  0.1544
  641ERGO    C1 9843  14.010   8.790   9.016 -0.2406  0.2100  0.0765
  641ERGO    C2 9844  14.124   8.915   8.756 -0.0912  0.0569 -0.0536
  642ERGO   ROH 9845   2.378  15.293  10.250  0.1519 -0.0417  0.0152
  642ERGO    R1 9846   2.328  15.136  10.020 -0.0231 -0.0551  0.0605
  642ERGO    R2 9847   2.091  15.151   9.878 -0.0471  0.0984  0.1107
  642ERGO    R3 9848   2.257  15.198   9.668 -0.0547 -0.0759  0.0641
  642ERGO    R4 9849   1.995  15.151   9.546 -0.1625  0.3188  0.1418
  642ERGO    R5 9850   2.181  15.048   9.498 -0.3204  0.0737  0.0491
  642ERGO    C1 9851   2.096  15.195   9.156 -0.2369  0.2835  0.1162
  642ERGO    C2 9852   1.992  15.088   8.805 -0.2100 -0.0703 -0.1145
  643ERGO   ROH 9853   2.797   6.431  10.025  0.1822 -0.0619 -0.0002
  643ERGO    R1 9854   2.791   6.540   9.764  0.0111 -0.0610  0.0032
  643ERGO    R2 9855   3.004   6.521   9.589 -0.0087  0.1557 -0.0478
  643ERGO    R3 9856   2.817   6.414   9.424  0.0569 -0.0284 -0.0054
  643ERGO    R4 9857   3.010   6.540   9.244 -0.0525  0.0711 -0.0537
  643ERGO    R5 9858   2.795   6.573   9.247 -0.0782 -0.0896 -0.0453
  643ERGO    C1 9859   2.838   6.450   8.889 -0.0166 -0.1510 -0.0175
  643ERGO    C2 9860   2.706   6.511   8.674 -0.1513  0.2202 -0.0990
  644ERGO   ROH 9861  11.956   8.893   9.870  0.1716 -0.2508 -0.0547
  644ERGO    R1 9862  11.921   9.018   9.619  0.0498 -0.2217 -0.0242
  644ERGO    R2 9863  12.134   9.102   9.463 -0.0290 -0.0309 -0.0320
  644ERGO    R3 9864  12.014   8.949   9.274  0.0616 -0.0794 -0.0503
  644ERGO    R4 9865  12.214   9.105   9.127 -0.0858  0.1194 -0.0447
  644ERGO    R5 9866  12.001   9.091   9.081 -0.0837 -0.0391 -0.0125
  644ERGO    C1 9867  12.148   8.963   8.753 -0.0338  0.1613 -0.0693
  644ERGO    C2 9868  12.300   9.076   8.444 -0.1232  0.4368 -0.1039
  645ERGO   ROH 9869  10.471  15.863   9.988  0.2618 -0.0933 -0.1486
  645ERGO    R1 9870  10.368  16.051   9.803  0.2215 -0.0456 -0.0766
  645ERGO    R2 9871  10.531  16.216   9.651  0.1870 -0.0027 -0.0642
  645ERGO    R3 9872  10.391  16.109   9.444  0.1474  0.0522 -0.0654
  645ERGO    R4 9873  10.550  16.324   9.324  0.3954 -0.1499 -0.1042
  645ERGO    R5 9874  10.335  16.298   9.308  0.3732  0.0550 -0.1595
  645ERGO    C1 9875  10.431  16.287   8.939  0.4795 -0.1844 -0.1285
  645ERGO    C2 9876  10.533  16.255   8.621 -0.0062 -0.1924 -0.0925
  646ERGO   ROH 9877   8.471   9.877   9.854  0.1468 -0.0974  0.0520
  646ERGO    R1 9878   8.383   9.797   9.597  0.1756 -0.1373  0.0547
  646ERGO    R2 9879   8.312   9.979   9.401  0.0998 -0.1692  0.0535
  646ERGO    R3 9880   8.495   9.841   9.254  0.1530 -0.0979  0.0521
  646ERGO    R4 9881   8.308   9.951   9.056  0.1902 -0.0488  0.0416
  646ERGO    R5 9882   8.367   9.742   9.078  0.2079 -0.0509 -0.0159
  646ERGO    C1 9883   8.477   9.805   8.718  0.2928  0.0882  0.0333
  646ERGO    C2 9884   8.362   9.869   8.402  0.0911 -0.2343  0.1834
  647ERGO   ROH 9885   5.047   6.952   9.862 -0.2089  0.2833  0.0827
  647ERGO    R1 9886   5.019   6.833   9.607 -0.1280  0.1728  0.1247
  647ERGO    R2 9887   4.778   6.825   9.473 -0.0812  0.1256  0.0480
  647ERGO    R3 9888   4.920   6.943   9.274 -0.0107  0.0305  0.0411
  647ERGO    R4 9889   4.709   6.794   9.135 -0.0143  0.0222  0.0432
  647ERGO    R5 9890   4.923   6.780   9.098 -0.0046 -0.0340  0.0970
  647ERGO    C1 9891   4.803   6.887   8.752  0.0909 -0.1273  0.0340
  647ERGO    C2 9892   4.739   6.902   8.382  0.0537  0.2630 -0.0825
  648ERGO   ROH 9893  15.640   8.218  10.136 -0.1198  0.2368 -0.0136
  648ERGO    R1 9894  15.542   8.224   9.871 -0.0787  0.1653 -0.0306
  648ERGO    R2 9895  15.588   8.436   9.699 -0.0112  0.0975 -0.0968
  648ERGO    R3 9896  15.685   8.241   9.536 -0.0250  0.0227 -0.0163
  648ERGO    R4 9897  15.583   8.447   9.354 -0.2413 -0.1545 -0.1055
  648ERGO    R5 9898  15.531   8.236   9.352 -0.1438 -0.1838  0.0843
  648ERGO    C1 9899  15.672   8.271   9.000 -0.3880 -0.3716 -0.0350
  648ERGO    C2 9900  15.702   8.247   8.665 -0.2674 -0.2819 -0.1817
  649ERGO   ROH 9901  12.442   9.426   6.090 -0.0629 -0.3788 -0.0115
  649ERGO    R1 9902  12.532   9.572   6.315  0.0025 -0.2198 -0.1379
  649ERGO    R2 9903  12.364   9.731   6.465  0.0213 -0.1977 -0.1379
  649ERGO    R3 9904  12.457   9.580   6.671  0.1851 -0.0510 -0.1022
  649ERGO    R4 9905  12.272   9.771   6.796 -0.0083 -0.2129 -0.1444
  649ERGO    R5 9906  12.479   9.735   6.853  0.0308  0.0168 -0.1411
  649ERGO    C1 9907  12.305   9.652   7.182  0.1282 -0.0840 -0.1147
  649ERGO    C2 9908  12.061   9.715   7.447 -0.0766 -0.0541  0.0417
  650ERGO   ROH 9909   1.895  17.019   9.901 -0.0165  0.0446  0.0476
  650ERGO    R1 9910   1.927  17.094   9.630 -0.1115  0.1220  0.0563
  650ERGO    R2 9911   2.026  16.921   9.438  0.0480  0.2472  0.0188
  650ERGO    R3 9912   1.796  16.984   9.308 -0.0308  0.0410  0.0505
  650ERGO    R4 9913   1.972  16.880   9.099 -0.0019  0.0978  0.0447
  650ERGO    R5 9914   1.868  17.071   9.097 -0.1409  0.0253  0.0052
  650ERGO    C1 9915   1.724  16.916   8.780 -0.1049 -0.1831  0.0896
  650ERGO    C2 9916   1.735  16.968   8.328  0.3189 -0.3434  0.0897
  651ERGO   ROH 9917   3.713  17.358  10.090 -0.1303  0.0375  0.0301
  651ERGO    R1 9918   3.680  17.229   9.840  0.0309  0.0331  0.0110
  651ERGO    R2 9919   3.446  17.247   9.693  0.0576 -0.1347 -0.0412
  651ERGO    R3 9920   3.614  17.332   9.497  0.0370  0.0084 -0.0001
  651ERGO    R4 9921   3.382  17.227   9.354  0.2002 -0.3332 -0.0588
  651ERGO    R5 9922   3.589  17.170   9.323  0.2958 -0.0937  0.0428
  651ERGO    C1 9923   3.502  17.294   8.973  0.2638 -0.3146 -0.0303
  651ERGO    C2 9924   3.456  17.189   8.655  0.0274 -0.0091  0.1509
  652ERGO   ROH 9925  13.680   1.501  10.163 -0.2443 -0.0724  0.0887
  652ERGO    R1 9926  13.545   1.481   9.915 -0.0621  0.0479 -0.0248
  652ERGO    R2 9927  13.584   1.661   9.709  0.1704  0.0924  0.0445
  652ERGO    R3 9928  13.637   1.436   9.566  0.1961  0.1059  0.0365
  652ERGO    R4 9929  13.564   1.638   9.365 -0.0304  0.0322  0.0602
  652ERGO    R5 9930  13.476   1.440   9.389  0.0900 -0.0040  0.1375
  652ERGO    C1 9931  13.602   1.414   9.030 -0.1230  0.0100  0.0617
  652ERGO    C2 9932  13.649   1.447   8.710  0.2562  0.1744  0.2944
  653ERGO   ROH 9933   9.092   1.059  10.142  0.1489 -0.0919 -0.1287
  653ERGO    R1 9934   9.009   1.198   9.910  0.0916  0.0285 -0.0374
  653ERGO    R2 9935   9.179   1.251   9.700  0.0147  0.0544 -0.0919
  653ERGO    R3 9936   8.986   1.128   9.554 -0.0915  0.1785 -0.0576
  653ERGO    R4 9937   9.132   1.293   9.360 -0.1105  0.2083 -0.0566
  653ERGO    R5 9938   8.917   1.293   9.395 -0.0993  0.2700  0.0365
  653ERGO    C1 9939   8.924   1.201   9.025 -0.2830  0.4143 -0.0040
  653ERGO    C2 9940   9.063   1.214   8.683  0.4872 -0.1747 -0.1420
  654ERGO   ROH 9941   5.852   7.456  10.048 -0.1508  0.1254 -0.0709
  654ERGO    R1 9942   5.689   7.478   9.818 -0.0505  0.0827 -0.1472
  654ERGO    R2 9943   5.762   7.628   9.597  0.0394  0.0561 -0.1384
  654ERGO    R3 9944   5.717   7.394   9.465  0.1126  0.0328 -0.1224
  654ERGO    R4 9945   5.727   7.598   9.255  0.1240  0.0036 -0.1427
  654ERGO    R5 9946   5.567   7.454   9.288  0.1446 -0.0194 -0.1642
  654ERGO    C1 9947   5.665   7.362   8.931  0.2421 -0.0487 -0.1302
  654ERGO    C2 9948   5.523   7.365   8.575  0.0939  0.0972  0.5751
  655ERGO   ROH 9949  12.973   6.330  10.273 -0.0932  0.1139  0.0025
  655ERGO    R1 9950  13.012   6.470  10.030 -0.0384  0.0335 -0.0342
  655ERGO    R2 9951  13.207   6.398   9.847 -0.0591 -0.0822 -0.0057
  655ERGO    R3 9952  12.996   6.392   9.675 -0.0535 -0.0564 -0.0152
  655ERGO    R4 9953  13.231   6.423   9.503 -0.0410 -0.0243 -0.0013
  655ERGO    R5 9954  13.053   6.549   9.505 -0.0453 -0.0244  0.0131
  655ERGO    C1 9955  13.047   6.432   9.142 -0.0253  0.0338 -0.0076
  655ERGO    C2 9956  12.944   6.446   8.802 -0.0400  0.1451 -0.0916
  656ERGO   ROH 9957   4.841   0.481  10.144 -0.0394 -0.1186  0.0365
  656ERGO    R1 9958   4.887   0.602   9.892  0.0564 -0.1472  0.0401
  656ERGO    R2 9959   5.055   0.490   9.703 -0.0004 -0.2546  0.0524
  656ERGO    R3 9960   4.836   0.512   9.543  0.0245 -0.1137  0.0360
  656ERGO    R4 9961   5.054   0.439   9.361 -0.0029 -0.2310  0.0488
  656ERGO    R5 9962   4.920   0.609   9.341  0.0993 -0.1490  0.0493
  656ERGO    C1 9963   4.848   0.429   9.012  0.0191 -0.0850  0.0313
  656ERGO    C2 9964   4.820   0.410   8.691  0.0653  0.4247 -0.1374
  657ERGO   ROH 9965   1.866   9.005  10.365 -0.1326 -0.0842  0.1339
  657ERGO    R1 9966   1.772   8.970  10.101  0.0360 -0.2306  0.0922
  657ERGO    R2 9967   1.761   9.178   9.918 -0.2246 -0.2423  0.1015
  657ERGO    R3 9968   1.907   9.008   9.765  0.1198  0.0007  0.1478
  657ERGO    R4 9969   1.756   9.169   9.573 -0.3586 -0.4488  0.1060
  657ERGO    R5 9970   1.763   8.952   9.583  0.1571 -0.4486  0.2378
  657ERGO    C1 9971   1.891   9.005   9.228 -0.1134 -0.3410  0.1521
  657ERGO    C2 9972   1.913   9.149   8.909 -0.1897  0.0022 -0.2616
  658ERGO   ROH 9973   4.944   0.971  10.187  0.1732  0.1488  0.0394
  658ERGO    R1 9974   5.032   1.072   9.937 -0.0143  0.1540 -0.0232
  658ERGO    R2 9975   5.203   0.932   9.771 -0.0011  0.2394 -0.0639
  658ERGO    R3 9976   5.006   0.973   9.588 -0.1076  0.0647  0.0052
  658ERGO    R4 9977   5.238   0.894   9.429 -0.1342  0.0494 -0.0601
  658ERGO    R5 9978   5.117   1.073   9.401 -0.2173  0.0013 -0.1070
  658ERGO    C1 9979   5.074   0.911   9.059 -0.3117 -0.2252  0.0070
  658ERGO    C2 9980   4.937   0.880   8.668 -0.0664 -0.1544 -0.0910
  659ERGO   ROH 9981   2.076   3.186  10.013 -0.0030 -0.1193  0.0398
  659ERGO    R1 9982   2.201   3.090   9.778 -0.0501 -0.1199  0.0142
  659ERGO    R2 9983   2.060   2.974   9.571 -0.1032 -0.0417  0.0024
  659ERGO    R3 9984   2.186   3.163   9.422 -0.0546 -0.0545  0.0284
  659ERGO    R4 9985   2.009   3.026   9.233 -0.1734  0.0975  0.0345
  659ERGO    R5 9986   2.223   3.058   9.210 -0.1670 -0.0000 -0.0169
  659ERGO    C1 9987   2.098   3.235   8.897 -0.1687  0.1666  0.0775
  659ERGO    C2 9988   2.035   3.270   8.522 -0.0417 -0.0090  0.2851
  660ERGO   ROH 9989  12.044   5.379  10.268 -0.0466  0.5959 -0.0173
  660ERGO    R1 9990  11.959   5.316  10.006 -0.1307  0.5312  0.0252
  660ERGO    R2 9991  11.950   5.503   9.803  0.1606  0.4005 -0.1126
  660ERGO    R3 9992  12.104   5.320   9.672 -0.1038  0.0698  0.0239
  660ERGO    R4 9993  12.023   5.512   9.465  0.3114  0.1350 -0.0897
  660ERGO    R5 9994  11.998   5.295   9.459 -0.0681  0.1690 -0.0069
  660ERGO    C1 9995  12.210   5.346   9.146  0.1512 -0.3299  0.0519
  660ERGO    C2 9996  12.202   5.447   8.719  0.4374 -0.1616  0.0668
  661ERGO   ROH 9997  11.912   7.177  10.308  0.1262 -0.0704  0.0510
  661ERGO    R1 9998  11.775   7.181  10.060  0.0844 -0.2434  0.0701
  661ERGO    R2 9999  11.830   7.365   9.862 -0.3302 -0.0173  0.1492
  661ERGO    R310000  11.863   7.143   9.709  0.1322  0.1134  0.0407
  661ERGO    R410001  11.812   7.358   9.517 -0.4929  0.0800  0.1547
  661ERGO    R510002  11.705   7.170   9.531 -0.0318 -0.1957  0.1361
  661ERGO    C110003  11.832   7.146   9.172 -0.1534  0.2595  0.0561
  661ERGO    C210004  11.877   7.207   8.795 -0.2223  0.2161 -0.1737
  662ERGO   ROH10005  14.531  13.161  10.373  0.2100 -0.2768 -0.1076
  662ERGO    R110006  14.512  13.298  10.126  0.2182 -0.1122 -0.0173
  662ERGO    R210007  14.688  13.254   9.918  0.1075 -0.1158 -0.1061
  662ERGO    R310008  14.460  13.208   9.777  0.0211  0.1390 -0.0564
  662ERGO    R410009  14.660  13.274   9.574  0.0681 -0.1157 -0.1037
  662ERGO    R510010  14.465  13.369   9.600  0.1793  0.1200 -0.0736
  662ERGO    C110011  14.429  13.242   9.242 -0.0360  0.1236 -0.0556
  662ERGO    C210012  14.545  13.284   9.008  0.1148 -0.1151 -0.0382
  663ERGO   ROH10013  10.759  10.703   9.892  0.1805  0.0370  0.0552
  663ERGO    R110014  10.605  10.728   9.655  0.0916  0.0334  0.1114
  663ERGO    R210015  10.667  10.909   9.456 -0.0045  0.0589  0.0994
  663ERGO    R310016  10.662  10.688   9.298 -0.0290  0.0676  0.0892
  663ERGO    R410017  10.723  10.910   9.115  0.0077  0.0592  0.1019
  663ERGO    R510018  10.562  10.764   9.093 -0.0085  0.0854  0.0895
  663ERGO    C110019  10.752  10.703   8.768 -0.0082  0.0676  0.0938
  663ERGO    C210020  10.847  10.587   8.444  0.1872  0.0935  0.1354
  664ERGO   ROH10021   7.733   7.036  10.271  0.0578  0.3871 -0.0708
  664ERGO    R110022   7.803   7.088  10.002  0.0432  0.1857 -0.1153
  664ERGO    R210023   7.950   6.910   9.850  0.0194  0.0605  0.0015
  664ERGO    R310024   7.740   6.934   9.678  0.0074 -0.0472  0.0011
  664ERGO    R410025   7.959   6.833   9.513 -0.0236 -0.1954  0.0564
  664ERGO    R510026   7.838   7.010   9.474 -0.0064 -0.2133 -0.0665
  664ERGO    C110027   7.768   6.811   9.156 -0.0598 -0.4454  0.0881
  664ERGO    C210028   7.718   6.907   8.824  0.2133 -0.4944  0.0112
  665ERGO   ROH10029   8.891  13.011   9.590  0.0505  0.1527  0.0825
  665ERGO    R110030   8.830  13.146   9.349  0.3188  0.1577  0.0124
  665ERGO    R210031   8.977  13.110   9.118  0.2117 -0.3157 -0.0052
  665ERGO    R310032   8.733  13.054   9.011  0.0499  0.1693  0.0882
  665ERGO    R410033   8.901  13.120   8.780  0.1541 -0.4130  0.0060
  665ERGO    R510034   8.709  13.210   8.831  0.3742  0.0788 -0.0278
  665ERGO    C110035   8.629  13.073   8.484 -0.0312 -0.0144  0.1002
  665ERGO    C210036   8.598  13.115   8.100 -0.2267  0.1324 -0.0525
  666ERGO   ROH10037   0.341  13.152  10.697  0.0917  0.1636  0.1504
  666ERGO    R110038   0.460  13.071  10.454 -0.0191 -0.0038  0.1499
  666ERGO    R210039   0.337  12.896  10.279 -0.2203  0.0852  0.1953
  666ERGO    R310040   0.381  13.095  10.099 -0.0398  0.0118  0.1566
  666ERGO    R410041   0.294  12.868   9.937 -0.2712  0.0706  0.2031
  666ERGO    R510042   0.476  12.985   9.910 -0.1607 -0.1106  0.1689
  666ERGO    C110043   0.311  13.038   9.570 -0.1314 -0.0070  0.1712
  666ERGO    C210044   0.268  12.911   9.219  0.1795 -0.0849 -0.2281
  667ERGO   ROH10045   7.352  16.365  10.095 -0.0615  0.1092  0.1281
  667ERGO    R110046   7.251  16.295   9.840 -0.0459  0.0654  0.1339
  667ERGO    R210047   7.203  16.483   9.642  0.1277  0.0117  0.0414
  667ERGO    R310048   7.365  16.321   9.495  0.0551 -0.1603  0.1476
  667ERGO    R410049   7.190  16.451   9.299  0.1807 -0.1188  0.0512
  667ERGO    R510050   7.223  16.237   9.322  0.0323 -0.1361  0.1503
  667ERGO    C110051   7.334  16.281   8.960  0.1434 -0.3561  0.1565
  667ERGO    C210052   7.240  16.408   8.611 -0.1796  0.1428  0.2243
  668ERGO   ROH10053  15.652   5.548   9.953 -0.1701 -0.3074  0.1320
  668ERGO    R110054  15.621   5.653   9.692 -0.0315 -0.2196  0.1506
  668ERGO    R210055  15.814   5.625   9.496  0.0109 -0.2759  0.2065
  668ERGO    R310056  15.609   5.519   9.353 -0.0047 -0.1202  0.1088
  668ERGO    R410057  15.789   5.631   9.151  0.1245 -0.1475  0.1988
  668ERGO    R510058  15.577   5.673   9.172  0.1355 -0.0389  0.1472
  668ERGO    C110059  15.582   5.535   8.817  0.1761  0.0734  0.1025
  668ERGO    C210060  15.534   5.498   8.498  0.0706 -0.0940  0.1626
  669ERGO   ROH10061   8.432  14.741  10.014 -0.0727  0.0364 -0.0631
  669ERGO    R110062   8.523  14.712   9.747 -0.0196 -0.0017 -0.0405
  669ERGO    R210063   8.447  14.502   9.585 -0.1125  0.0617 -0.0758
  669ERGO    R310064   8.373  14.702   9.416  0.0626  0.1222 -0.0832
  669ERGO    R410065   8.445  14.478   9.241 -0.3258 -0.0259 -0.0706
  669ERGO    R510066   8.524  14.681   9.231 -0.0570 -0.1270 -0.1599
  669ERGO    C110067   8.375  14.652   8.881 -0.2856 -0.0201 -0.0745
  669ERGO    C210068   8.367  14.392   8.568 -0.0425  0.1649 -0.1332
  670ERGO   ROH10069  13.869  10.783  10.529  0.1748  0.0929  0.0208
  670ERGO    R110070  13.875  10.875  10.261  0.1537  0.0718  0.0138
  670ERGO    R210071  14.108  10.952  10.135  0.1577 -0.0542 -0.0480
  670ERGO    R310072  14.029  10.771   9.948  0.0224 -0.0250 -0.0207
  670ERGO    R410073  14.242  10.924   9.818  0.1294 -0.1835 -0.0500
  670ERGO    R510074  14.040  10.891   9.741  0.0975 -0.0541 -0.0373
  670ERGO    C110075  14.245  10.739   9.457 -0.0141 -0.2314 -0.0254
  670ERGO    C210076  14.203  10.787   9.049 -0.1021 -0.0780 -0.0647
  671ERGO   ROH10077  10.993  16.825  10.270 -0.1531 -0.0435  0.0938
  671ERGO    R110078  10.862  16.943  10.049 -0.0726  0.1454  0.1445
  671ERGO    R210079  10.941  17.183   9.939  0.2987 -0.0131  0.0490
  671ERGO    R310080  10.950  17.039   9.709 -0.0889 -0.0860  0.0725
  671ERGO    R410081  10.856  17.305   9.627  0.2625  0.0463  0.0816
  671ERGO    R510082  10.759  17.114   9.585 -0.0668  0.1812  0.1925
  671ERGO    C110083  10.814  17.240   9.229 -0.1224  0.0122  0.1225
  671ERGO    C210084  10.782  17.265   8.881 -0.0779 -0.1116  0.0999
  672ERGO   ROH10085   0.968   2.977   9.888  0.1068 -0.2670  0.0068
  672ERGO    R110086   1.058   2.908   9.628 -0.0507 -0.2974 -0.0400
  672ERGO    R210087   0.887   2.816   9.432 -0.2238  0.0011 -0.0283
  672ERGO    R310088   0.994   3.020   9.288  0.0152 -0.0932  0.0117
  672ERGO    R410089   0.902   2.826   9.087  0.0054 -0.0745 -0.0222
  672ERGO    R510090   1.102   2.911   9.103  0.0627 -0.2084  0.0987
  672ERGO    C110091   1.011   3.024   8.751  0.3633 -0.2071  0.0188
  672ERGO    C210092   1.022   2.991   8.422  0.1970  0.1235 -0.0154
  673ERGO   ROH10093   5.864   9.522  10.162  0.1826 -0.0652 -0.1366
  673ERGO    R110094   5.922   9.405   9.911  0.1715 -0.0599 -0.1415
  673ERGO    R210095   5.730   9.275   9.760  0.1938 -0.1682 -0.0770
  673ERGO    R310096   5.810   9.449   9.567  0.0558 -0.1457 -0.1152
  673ERGO    R410097   5.738   9.206   9.421  0.3644 -0.2789 -0.0526
  673ERGO    R510098   5.927   9.313   9.408  0.2515 -0.0742 -0.0358
  673ERGO    C110099   5.817   9.330   9.043  0.3342 -0.3222 -0.0742
  673ERGO    C210100   5.844   9.249   8.692 -0.2351 -0.0275 -0.0090
  674PSPI    C110101   0.089  11.033   6.129  0.0038  0.0947  0.0969
  674PSPI    C210102  -0.190  10.973   5.849  0.0150  0.0784  0.0891
  674PSPI    C310103   0.127  11.203   5.770  0.0350  0.0470  0.0775
  674PSPI   PO410104  -0.072  11.099   6.333  0.0438 -0.1792 -0.2405
  674PSPI   GL110105  -0.083  11.162   6.651  0.0051  0.2629  0.0222
  674PSPI   GL210106   0.086  11.429   6.751 -0.1539 -0.1033 -0.2298
  674PSPI   C1A10107  -0.040  11.186   7.179 -0.0135  0.1178 -0.1277
  674PSPI   C2A10108  -0.026  11.154   7.618  0.2873  0.3356  0.0099
  674PSPI   C3A10109  -0.012  11.052   7.992 -0.1332  0.0369  0.0762
  674PSPI   C4A10110   0.051  11.344   8.256  0.1262  0.0065 -0.0343
  674PSPI   C1B10111  -0.038  11.702   7.072  0.2778 -0.1052 -0.0614
  674PSPI   C2B10112  -0.200  12.033   7.280 -0.2206 -0.0577  0.0664
  674PSPI   C3B10113  -0.257  12.348   7.597 -0.1375  0.1822 -0.1120
  674PSPI   C4B10114  -0.371  12.310   8.053  0.0115  0.0350 -0.1026
  675PSPI    C110115   1.585  14.675   6.236 -0.1517 -0.0581  0.0028
  675PSPI    C210116   1.336  14.883   6.470 -0.3070 -0.3519  0.1031
  675PSPI    C310117   1.330  14.936   6.074  0.2008  0.4098  0.1765
  675PSPI   PO410118   1.584  14.433   6.417 -0.0635 -0.2663  0.4509
  675PSPI   GL110119   1.865  14.204   6.756  0.0948 -0.2244 -0.3189
  675PSPI   GL210120   2.159  14.042   6.879 -0.1520  0.0532  0.3765
  675PSPI   C1A10121   1.578  14.251   7.083 -0.1805 -0.0128  0.0731
  675PSPI   C2A10122   1.480  14.185   7.480 -0.4460  0.0010  0.0407
  675PSPI   C3A10123   1.522  14.316   7.896  0.0240  0.2379  0.0022
  675PSPI   C4A10124   1.206  14.386   8.153  0.1856  0.1231  0.0492
  675PSPI   C1B10125   2.103  14.239   7.184 -0.0765 -0.0725 -0.0911
  675PSPI   C2B10126   2.241  14.339   7.581  0.2654 -0.1796 -0.3058
  675PSPI   C3B10127   2.453  14.526   7.911 -0.1320  0.0761  0.0012
  675PSPI   C4B10128   2.851  14.406   8.009  0.0174 -0.3457 -0.3043
  676PSPI    C110129   6.211  16.036   5.877  0.0962 -0.1587  0.0843
  676PSPI    C210130   6.598  16.131   5.913  0.0868 -0.0231 -0.1479
  676PSPI    C310131   6.448  16.039   5.554 -0.1379  0.1086 -0.0896
  676PSPI   PO410132   6.147  16.213   6.105 -0.1057  0.1465 -0.0955
  676PSPI   GL110133   5.847  16.290   6.331 -0.0564 -0.0813  0.0581
  676PSPI   GL210134   5.999  16.565   6.452  0.1972  0.1378 -0.1916
  676PSPI   C1A10135   5.758  16.122   6.677 -0.0710 -0.0675  0.1238
  676PSPI   C2A10136   5.800  16.160   7.025 -0.0292 -0.1663 -0.0238
  676PSPI   C3A10137   5.680  16.350   7.430 -0.1739  0.0032 -0.1332
  676PSPI   C4A10138   5.545  16.486   7.852  0.0345  0.0699  0.0063
  676PSPI   C1B10139   5.864  16.585   6.910  0.0239  0.0055  0.4729
  676PSPI   C2B10140   5.790  16.824   7.192  0.2707 -0.2162 -0.2299
  676PSPI   C3B10141   5.483  16.928   7.516  0.2476  0.4447  0.3728
  676PSPI   C4B10142   5.502  16.977   7.896  0.1842 -0.1205 -0.0136
  677PSPI    C110143   3.536   4.601   5.938 -0.2985 -0.2785 -0.3688
  677PSPI    C210144   3.827   4.677   5.674  0.0084 -0.1041  0.0096
  677PSPI    C310145   3.475   4.863   5.642  0.1185  0.0799 -0.1491
  677PSPI   PO410146   3.587   4.634   6.126  0.1725 -0.0959 -0.1372
  677PSPI   GL110147   3.869   4.799   6.342 -0.1228 -0.0096 -0.1478
  677PSPI   GL210148   3.586   4.966   6.499 -0.2230  0.1235 -0.1643
  677PSPI   C1A10149   4.005   4.974   6.727 -0.2028  0.1659  0.1023
  677PSPI   C2A10150   3.932   5.059   7.209 -0.1497  0.0908  0.2111
  677PSPI   C3A10151   3.780   4.877   7.539 -0.0824  0.0596 -0.2192
  677PSPI   C4A10152   3.312   4.847   7.658  0.0699 -0.0229 -0.3803
  677PSPI   C1B10153   3.495   4.802   6.833 -0.1813 -0.0432 -0.0565
  677PSPI   C2B10154   3.396   4.697   7.139  0.2875 -0.0663 -0.0052
  677PSPI   C3B10155   3.044   4.435   7.349 -0.0355  0.3089 -0.0625
  677PSPI   C4B10156   2.697   4.127   7.276  0.1158  0.1787 -0.0536
  678PSPI    C110157   3.215  14.005   5.872 -0.0678  0.1452 -0.0988
  678PSPI    C210158   2.870  13.805   5.851  0.0790 -0.0916 -0.3211
  678PSPI    C310159   2.876  14.200   5.791 -0.1694 -0.0659 -0.1909
  678PSPI   PO410160   3.382  13.834   6.092 -0.2615 -0.3435  0.1925
  678PSPI   GL110161   3.421  14.071   6.492 -0.0491 -0.0086 -0.3844
  678PSPI   GL210162   3.064  14.018   6.444  0.4993 -0.5151 -0.2910
  678PSPI   C1A10163   3.651  13.873   6.766 -0.0435 -0.2153 -0.0911
  678PSPI   C2A10164   3.616  13.662   7.046  0.2277  0.2996  0.0533
  678PSPI   C3A10165   3.521  13.695   7.505 -0.1310 -0.0114  0.0561
  678PSPI   C4A10166   3.396  13.688   7.936  0.0296  0.0824 -0.4279
  678PSPI   C1B10167   3.148  14.441   6.782 -0.1333  0.2159 -0.0074
  678PSPI   C2B10168   3.083  14.695   7.059  0.3430  0.1686  0.2412
  678PSPI   C3B10169   2.707  14.821   7.302 -0.2022  0.0254  0.4580
  678PSPI   C4B10170   2.739  14.883   7.760  0.1146  0.2828 -0.1991
  679PSPI    C110171  10.938   2.921   6.167 -0.0049  0.2494  0.0409
  679PSPI    C210172  11.331   2.908   6.095 -0.0057 -0.0247  0.0727
  679PSPI    C310173  11.086   2.649   5.913 -0.1796  0.1789  0.0130
  679PSPI   PO410174  10.946   3.220   6.252  0.1604  0.2630 -0.0184
  679PSPI   GL110175  10.891   3.479   6.602  0.2342 -0.0984 -0.0628
  679PSPI   GL210176  11.138   3.666   6.625  0.1935 -0.0927 -0.2267
  679PSPI   C1A10177  10.949   3.375   7.045 -0.3416 -0.2147  0.2711
  679PSPI   C2A10178  10.901   3.347   7.477 -0.3427  0.1976  0.1313
  679PSPI   C3A10179  11.028   3.273   7.911  0.0669 -0.0454 -0.2221
  679PSPI   C4A10180  10.819   3.135   8.275 -0.0423 -0.3672  0.0414
  679PSPI   C1B10181  11.122   3.869   7.083 -0.1782  0.0218  0.0315
  679PSPI   C2B10182  11.139   3.833   7.479  0.1190 -0.1289  0.1526
  679PSPI   C3B10183  10.983   3.748   7.862 -0.0610  0.0197 -0.0951
  679PSPI   C4B10184  10.979   4.085   8.155  0.2575  0.0806  0.1211
  680PSPI    C110185   8.385   9.413   5.882 -0.3792 -0.0892 -0.0030
  680PSPI    C210186   8.065   9.569   6.065 -0.2256  0.0981  0.1087
  680PSPI    C310187   8.264   9.783   5.792 -0.0990  0.0442  0.1578
  680PSPI   PO410188   8.270   9.165   5.914  0.0336  0.1280 -0.0831
  680PSPI   GL110189   8.159   9.102   6.225 -0.1071  0.1490 -0.0836
  680PSPI   GL210190   8.096   8.913   6.475  0.1321  0.1275 -0.1030
  680PSPI   C1A10191   7.907   9.399   6.485  0.2426 -0.1772 -0.0380
  680PSPI   C2A10192   7.819   9.273   6.850 -0.1829  0.3117 -0.0828
  680PSPI   C3A10193   7.931   9.023   7.232 -0.1037  0.0543  0.0139
  680PSPI   C4A10194   8.152   9.167   7.619 -0.1072  0.2985 -0.3997
  680PSPI   C1B10195   7.974   8.665   6.814  0.0222  0.1061  0.0626
  680PSPI   C2B10196   7.813   8.425   7.182  0.0318  0.1652  0.2485
  680PSPI   C3B10197   7.777   8.269   7.591 -0.0313  0.1091  0.0051
  680PSPI   C4B10198   7.390   8.407   7.902  0.0450  0.1371 -0.1673
  681PSPI    C110199   7.692  16.217   5.954  0.1532  0.0624  0.2552
  681PSPI    C210200   7.462  16.543   5.983 -0.1324 -0.0933 -0.1687
  681PSPI    C310201   7.660  16.467   5.643  0.0460 -0.2888 -0.0237
  681PSPI   PO410202   7.529  16.034   6.150 -0.1848 -0.0096 -0.0636
  681PSPI   GL110203   7.271  16.198   6.419 -0.0870  0.3726 -0.0516
  681PSPI   GL210204   7.195  15.860   6.469  0.1607 -0.0771 -0.0650
  681PSPI   C1A10205   7.178  16.289   6.886  0.1492  0.1145 -0.2743
  681PSPI   C2A10206   7.170  16.245   7.332 -0.1125 -0.1035  0.2801
  681PSPI   C3A10207   7.210  16.154   7.728 -0.0876  0.1851  0.1252
  681PSPI   C4A10208   7.248  16.040   8.162 -0.0354  0.0104 -0.0287
  681PSPI   C1B10209   7.358  15.797   6.851 -0.2512 -0.1374  0.1956
  681PSPI   C2B10210   7.400  15.769   7.338  0.2159  0.0720 -0.1362
  681PSPI   C3B10211   7.550  15.770   7.817 -0.1937 -0.0037  0.1163
  681PSPI   C4B10212   7.456  15.617   8.295 -0.4330 -0.2828  0.0751
  682PSPI    C110213   3.827   9.571   5.649  0.0637 -0.0332 -0.1650
  682PSPI    C210214   3.743   9.886   5.417 -0.0095  0.0347 -0.0472
  682PSPI    C310215   3.479   9.587   5.453  0.0390 -0.0168 -0.1201
  682PSPI   PO410216   3.906   9.697   5.894  0.0840 -0.0663  0.0376
  682PSPI   GL110217   3.693   9.583   6.351 -0.1525  0.0127 -0.2282
  682PSPI   GL210218   4.030   9.542   6.364  0.0514 -0.1459  0.1696
  682PSPI   C1A10219   3.423   9.660   6.648  0.0835  0.0029  0.1406
  682PSPI   C2A10220   3.297   9.501   7.150 -0.2373  0.0647  0.0332
  682PSPI   C3A10221   3.198   9.186   7.336  0.2627  0.3098 -0.2032
  682PSPI   C4A10222   3.010   8.719   7.341 -0.0265  0.0816 -0.0991
  682PSPI   C1B10223   3.934   9.652   6.849 -0.0337  0.1489  0.1915
  682PSPI   C2B10224   3.861   9.310   7.223  0.2368 -0.1101 -0.4007
  682PSPI   C3B10225   3.703   9.182   7.626  0.1725 -0.0812 -0.0719
  682PSPI   C4B10226   3.354   9.159   7.842  0.0461 -0.1872  0.1301
  683PSPI    C110227   2.076   3.662   5.888 -0.2222  0.1449  0.1035
  683PSPI    C210228   1.843   3.374   5.737 -0.0192 -0.0841  0.2195
  683PSPI    C310229   1.955   3.682   5.508 -0.0450 -0.2190  0.0231
  683PSPI   PO410230   2.077   3.689   6.162  0.0893 -0.2884  0.0867
  683PSPI   GL110231   2.267   3.487   6.451  0.5041  0.1339  0.2576
  683PSPI   GL210232   2.064   3.303   6.605 -0.2379 -0.1910 -0.0158
  683PSPI   C1A10233   2.113   3.722   6.829  0.3062  0.1685 -0.0284
  683PSPI   C2A10234   2.228   3.802   7.295 -0.0062  0.2475  0.0534
  683PSPI   C3A10235   2.166   3.809   7.683  0.1518  0.0177  0.0892
  683PSPI   C4A10236   2.169   3.549   8.048 -0.1303 -0.1502  0.0925
  683PSPI   C1B10237   1.823   3.275   7.029  0.0309  0.0321  0.1346
  683PSPI   C2B10238   1.757   3.264   7.489  0.1916  0.1807  0.2743
  683PSPI   C3B10239   1.714   3.586   7.825  0.0010  0.0669 -0.0550
  683PSPI   C4B10240   1.664   4.009   7.818  0.1709  0.0833  0.1796
  684PSPI    C110241   5.447   5.551   5.609  0.1010 -0.1792  0.1122
  684PSPI    C210242   5.190   5.767   5.392  0.1239  0.0110  0.2719
  684PSPI    C310243   5.263   5.386   5.295  0.0393  0.0568  0.0226
  684PSPI   PO410244   5.380   5.613   5.857  0.1587  0.1249  0.1220
  684PSPI   GL110245   5.164   5.398   6.187  0.1092 -0.0209 -0.1418
  684PSPI   GL210246   4.897   5.388   6.406  0.2316 -0.0695  0.1101
  684PSPI   C1A10247   5.395   5.485   6.584 -0.0318 -0.1937 -0.0219
  684PSPI   C2A10248   5.304   5.435   7.055  0.3426  0.0301  0.0496
  684PSPI   C3A10249   5.149   5.706   7.427 -0.1343 -0.0790 -0.1188
  684PSPI   C4A10250   5.258   5.750   7.782  0.0703  0.1250 -0.1828
  684PSPI   C1B10251   4.779   5.394   6.828  0.0732 -0.2527  0.2876
  684PSPI   C2B10252   4.784   5.379   7.228 -0.2091  0.0925 -0.1535
  684PSPI   C3B10253   4.795   5.472   7.683  0.2694 -0.1902  0.1061
  684PSPI   C4B10254   4.835   5.682   8.083 -0.0187  0.2985 -0.1029
  685PSPI    C110255  16.709  15.439   6.032 -0.0532  0.1761 -0.0537
  685PSPI    C210256  17.002  15.614   6.240 -0.0368  0.1402 -0.0468
  685PSPI    C310257  16.775  15.832   5.993 -0.0582  0.1834  0.0109
  685PSPI   PO410258  16.635  15.252   6.339  0.3545  0.1531  0.5471
  685PSPI   GL110259  16.472  15.332   6.735 -0.0764 -0.0492 -0.2428
  685PSPI   GL210260  16.838  15.355   6.774  0.1712 -0.0248 -0.1115
  685PSPI   C1A10261  16.501  15.684   7.000  0.0716 -0.3574  0.1366
  685PSPI   C2A10262  16.457  15.653   7.458 -0.1697  0.0056 -0.1339
  685PSPI   C3A10263  16.294  15.905   7.681 -0.1677  0.1217  0.2090
  685PSPI   C4A10264  16.340  15.920   8.122  0.1600 -0.0556  0.0206
  685PSPI   C1B10265  17.102  15.253   7.098  0.2505 -0.3008  0.1807
  685PSPI   C2B10266  17.435  15.424   7.400 -0.1576  0.2312  0.0316
  685PSPI   C3B10267  17.563  15.411   7.884 -0.0053 -0.1419  0.2072
  685PSPI   C4B10268  17.722  15.393   8.222  0.2632  0.1842  0.1214
  686PSPI    C110269  15.486   1.462   5.920  0.0776  0.0537 -0.0104
  686PSPI    C210270  15.649   1.556   5.567  0.2250 -0.0533  0.0281
  686PSPI    C310271  15.290   1.379   5.581  0.1608  0.0683 -0.0622
  686PSPI   PO410272  15.656   1.655   6.070  0.0623 -0.1495  0.2260
  686PSPI   GL110273  15.768   2.043   6.100 -0.2226  0.0662 -0.1800
  686PSPI   GL210274  15.485   2.167   6.295  0.2109 -0.0696 -0.2165
  686PSPI   C1A10275  15.882   2.038   6.511 -0.1909 -0.1758  0.2659
  686PSPI   C2A10276  15.724   2.295   6.883 -0.0137 -0.0355 -0.0725
  686PSPI   C3A10277  15.841   2.265   7.293 -0.1848 -0.1990  0.1405
  686PSPI   C4A10278  15.871   2.579   7.548 -0.1016 -0.4211  0.1618
  686PSPI   C1B10279  15.184   2.209   6.669  0.1172 -0.1188  0.0140
  686PSPI   C2B10280  15.251   2.198   7.110  0.1478  0.0227 -0.1700
  686PSPI   C3B10281  15.485   1.985   7.551  0.0147 -0.0068 -0.0665
  686PSPI   C4B10282  15.750   1.629   7.595  0.0128  0.1859  0.2235
  687PSPI    C110283   1.109  12.636   6.199 -0.0532 -0.0516  0.4926
  687PSPI    C210284   0.841  12.388   6.036  0.0094  0.3540 -0.2761
  687PSPI    C310285   1.232  12.322   5.984  0.0420  0.2976  0.0210
  687PSPI   PO410286   0.916  12.835   6.263  0.2269 -0.2996 -0.0300
  687PSPI   GL110287   0.946  13.130   6.472  0.0550  0.0277 -0.0626
  687PSPI   GL210288   0.748  13.100   6.719 -0.1796  0.0467 -0.1263
  687PSPI   C1A10289   1.210  13.214   6.913  0.1367 -0.1540  0.2021
  687PSPI   C2A10290   1.313  13.247   7.293  0.1849  0.0319  0.0838
  687PSPI   C3A10291   1.498  13.494   7.654  0.0329 -0.1094 -0.1540
  687PSPI   C4A10292   1.410  13.839   7.894 -0.2181 -0.2380  0.0351
  687PSPI   C1B10293   0.743  13.343   7.164 -0.2110 -0.0324 -0.0415
  687PSPI   C2B10294   0.549  13.504   7.476 -0.1029 -0.0506 -0.3185
  687PSPI   C3B10295   0.527  13.645   7.836 -0.2149  0.1323 -0.1862
  687PSPI   C4B10296   0.684  13.451   8.135  0.1972  0.1841  0.2714
  688PSPI    C110297  11.846   6.235   5.885  0.0257 -0.0064 -0.0266
  688PSPI    C210298  11.599   5.982   5.698  0.0039 -0.0778  0.0977
  688PSPI    C310299  11.735   6.306   5.507  0.0478 -0.1936 -0.0694
  688PSPI   PO410300  12.088   6.132   6.058 -0.0600  0.2258 -0.0996
  688PSPI   GL110301  11.984   6.103   6.449  0.0062  0.1959  0.1554
  688PSPI   GL210302  12.079   5.780   6.508 -0.0765 -0.2106  0.1356
  688PSPI   C1A10303  11.995   6.058   6.917 -0.4269  0.1039  0.4131
  688PSPI   C2A10304  11.989   6.047   7.319 -0.0413  0.2488  0.1431
  688PSPI   C3A10305  11.732   6.331   7.596  0.1096  0.1565  0.0697
  688PSPI   C4A10306  11.326   6.514   7.762 -0.0605  0.0619  0.0237
  688PSPI   C1B10307  11.896   5.603   6.841  0.2288  0.1522 -0.1138
  688PSPI   C2B10308  11.777   5.490   7.277  0.1621  0.1037  0.1183
  688PSPI   C3B10309  11.725   5.394   7.742  0.0265 -0.0324  0.0028
  688PSPI   C4B10310  11.825   5.279   8.120 -0.0590  0.0378  0.0063
  689PSPI    C110311   3.341   0.192   5.456  0.1830 -0.0227  0.2560
  689PSPI    C210312   3.400   0.580   5.534  0.0869  0.0181  0.1297
  689PSPI    C310313   3.626   0.394   5.261  0.0811  0.0045  0.1341
  689PSPI   PO410314   3.241   0.099   5.746 -0.2440  0.2019 -0.3465
  689PSPI   GL110315   3.415  -0.114   6.191  0.0243  0.1780  0.1125
  689PSPI   GL210316   3.076  -0.142   6.229 -0.1758 -0.1957  0.1698
  689PSPI   C1A10317   3.356  -0.222   6.672 -0.1312 -0.1428 -0.0529
  689PSPI   C2A10318   3.259  -0.151   7.112  0.2389 -0.1010  0.0745
  689PSPI   C3A10319   3.092   0.012   7.416 -0.2953 -0.3862  0.2958
  689PSPI   C4A10320   3.290   0.263   7.792 -0.3322  0.0781  0.0026
  689PSPI   C1B10321   2.859  -0.103   6.638  0.0060  0.0601  0.0196
  689PSPI   C2B10322   2.724  -0.262   7.039 -0.4131  0.0242  0.0902
  689PSPI   C3B10323   2.254  -0.305   7.359 -0.1392  0.3527 -0.1100
  689PSPI   C4B10324   1.973  -0.220   7.610  0.0570 -0.0300  0.0119
  690PSPI    C110325  15.471  10.899   6.153  0.2719 -0.1607  0.1447
  690PSPI    C210326  15.380  11.177   5.880  0.0899  0.0260  0.3913
  690PSPI    C310327  15.609  10.866   5.779 -0.0824  0.0224 -0.0078
  690PSPI   PO410328  15.647  10.955   6.307 -0.2048 -0.2224 -0.1327
  690PSPI   GL110329  15.641  11.185   6.676  0.1923  0.0085  0.2867
  690PSPI   GL210330  15.728  10.785   6.757 -0.1553  0.2542  0.0788
  690PSPI   C1A10331  15.618  11.403   6.988  0.2133  0.0894  0.0841
  690PSPI   C2A10332  15.674  11.320   7.407  0.3312 -0.2918 -0.0460
  690PSPI   C3A10333  15.303  11.373   7.664  0.0744 -0.0690 -0.1095
  690PSPI   C4A10334  15.048  11.622   8.076 -0.2750  0.2256  0.2137
  690PSPI   C1B10335  15.635  10.858   7.116  0.0084  0.1497  0.1760
  690PSPI   C2B10336  15.564  10.786   7.524 -0.0684 -0.0890  0.1297
  690PSPI   C3B10337  15.329  10.853   7.819 -0.0849 -0.0705 -0.0246
  690PSPI   C4B10338  15.065  11.116   8.121  0.1590  0.1934 -0.1654
  691PSPI    C110339  11.695   5.777   6.157 -0.0437  0.0153 -0.3303
  691PSPI    C210340  11.812   5.408   6.054  0.0749 -0.0203 -0.0773
  691PSPI    C310341  11.971   5.727   5.871  0.1157 -0.0879 -0.1607
  691PSPI   PO410342  11.433   5.718   6.252  0.0173 -0.0460  0.3325
  691PSPI   GL110343  11.418   6.088   6.552 -0.0119 -0.1080  0.2398
  691PSPI   GL210344  11.626   5.927   6.689  0.2563  0.0183  0.0134
  691PSPI   C1A10345  11.268   6.193   6.916  0.2273 -0.3516 -0.1136
  691PSPI   C2A10346  11.292   6.283   7.339  0.2431  0.3215  0.1696
  691PSPI   C3A10347  11.021   6.116   7.613  0.0706  0.1001  0.0603
  691PSPI   C4A10348  11.142   5.958   7.998 -0.0270 -0.0477 -0.0544
  691PSPI   C1B10349  11.569   5.903   7.133 -0.0317  0.0436  0.0853
  691PSPI   C2B10350  11.477   5.832   7.543 -0.0192 -0.2119  0.0176
  691PSPI   C3B10351  11.651   6.009   7.957 -0.1562  0.0117  0.0389
  691PSPI   C4B10352  11.846   5.774   8.263  0.3311  0.0202  0.1109
  692PSPI    C110353   6.086  11.240   5.884 -0.0150 -0.0713  0.1327
  692PSPI    C210354   6.417  11.329   5.678 -0.0972 -0.1210 -0.0219
  692PSPI    C310355   6.425  11.040   5.954 -0.0228 -0.1536 -0.0581
  692PSPI   PO410356   5.938  11.483   5.931  0.0136 -0.1370 -0.0309
  692PSPI   GL110357   5.899  11.742   6.373  0.1868 -0.3889  0.1855
  692PSPI   GL210358   6.158  11.615   6.598 -0.0904  0.2428  0.0219
  692PSPI   C1A10359   5.682  11.634   6.757 -0.0833 -0.0855  0.0874
  692PSPI   C2A10360   5.595  11.724   7.160 -0.0710  0.0504 -0.1520
  692PSPI   C3A10361   5.638  12.042   7.506  0.0714 -0.0590  0.1319
  692PSPI   C4A10362   5.755  12.100   7.916  0.4173 -0.0488 -0.0574
  692PSPI   C1B10363   6.151  11.456   7.033  0.1533 -0.1994  0.2219
  692PSPI   C2B10364   6.347  11.447   7.378  0.0565 -0.2408  0.0212
  692PSPI   C3B10365   6.350  11.432   7.844  0.0145 -0.0105  0.1752
  692PSPI   C4B10366   6.701  11.398   8.126  0.0687 -0.1991  0.1081
  693PSPI    C110367  12.923   2.879   5.628  0.0164  0.1943  0.0044
  693PSPI    C210368  12.695   2.567   5.524  0.1308  0.1412 -0.0878
  693PSPI    C310369  12.974   2.704   5.273  0.0735  0.3253 -0.0523
  693PSPI   PO410370  12.740   2.951   5.925 -0.1628  0.5096 -0.1323
  693PSPI   GL110371  12.819   3.046   6.266 -0.1345 -0.0848 -0.1654
  693PSPI   GL210372  12.841   2.749   6.430  0.0209  0.3994  0.1853
  693PSPI   C1A10373  12.804   3.245   6.693  0.0510 -0.1188 -0.1485
  693PSPI   C2A10374  12.598   3.286   7.093  0.1004 -0.0760 -0.2936
  693PSPI   C3A10375  12.590   3.265   7.551  0.0742 -0.0444  0.2790
  693PSPI   C4A10376  12.658   3.383   7.971 -0.2620 -0.1990  0.4130
  693PSPI   C1B10377  12.827   2.780   6.890  0.2393  0.2887 -0.1859
  693PSPI   C2B10378  12.787   2.841   7.350 -0.3372  0.1973 -0.3106
  693PSPI   C3B10379  12.827   2.866   7.798 -0.2018  0.0595 -0.2206
  693PSPI   C4B10380  12.771   2.910   8.182 -0.0920  0.0669  0.0289
  694POPI    C110381   4.423  15.878   5.615 -0.1673  0.2068  0.0010
  694POPI    C210382   4.633  16.216   5.577  0.3085 -0.0917 -0.1139
  694POPI    C310383   4.525  16.010   5.252  0.4532 -0.3055 -0.0287
  694POPI   PO410384   4.478  15.957   5.949  0.0187 -0.4237 -0.3830
  694POPI   GL110385   4.260  15.941   6.304  0.0652 -0.2844  0.0279
  694POPI   GL210386   4.019  15.702   6.375 -0.0189 -0.0652 -0.0148
  694POPI   C1A10387   4.289  16.093   6.759 -0.3819 -0.2822 -0.2111
  694POPI   D2A10388   4.231  16.247   7.200  0.2979  0.0383  0.1189
  694POPI   C3A10389   3.996  16.017   7.473  0.3974 -0.1813  0.0842
  694POPI   C4A10390   3.841  15.690   7.538  0.0317  0.0762  0.2428
  694POPI   C1B10391   3.976  15.724   6.794  0.1211  0.0575 -0.1185
  694POPI   C2B10392   4.219  15.676   7.227 -0.0792 -0.4135 -0.3826
  694POPI   C3B10393   4.447  15.541   7.465 -0.2361 -0.0133 -0.0257
  694POPI   C4B10394   4.786  15.515   7.832  0.3066 -0.1322  0.0339
  695POPI    C110395  13.018  15.774   5.979 -0.1335  0.0090 -0.0405
  695POPI    C210396  12.923  15.686   5.601 -0.1470  0.0947 -0.0573
  695POPI    C310397  13.004  16.064   5.704 -0.1753  0.0768  0.0325
  695POPI   PO410398  12.858  15.631   6.252 -0.0058  0.0420  0.2810
  695POPI   GL110399  12.643  15.832   6.647  0.0330 -0.1445 -0.3150
  695POPI   GL210400  12.517  15.638   6.618  0.0455  0.1959  0.0685
  695POPI   C1A10401  12.543  15.776   7.123 -0.2451  0.0244 -0.0354
  695POPI   D2A10402  12.409  15.956   7.527  0.3508 -0.2292  0.1880
  695POPI   C3A10403  12.361  15.832   8.049  0.0785 -0.0776 -0.1433
  695POPI   C4A10404  12.515  15.591   8.349 -0.1160  0.0979 -0.0029
  695POPI   C1B10405  12.717  15.327   6.970  0.2227  0.1965  0.0148
  695POPI   C2B10406  13.121  15.091   7.023 -0.0820 -0.0103  0.1919
  695POPI   C3B10407  13.260  14.732   7.203  0.0920  0.0445 -0.0771
  695POPI   C4B10408  13.579  14.371   7.166  0.1425 -0.2888 -0.0126
  696POPI    C110409   5.572  10.445   5.881  0.1499  0.0898  0.0141
  696POPI    C210410   5.219  10.329   5.735  0.0473  0.1269  0.2278
  696POPI    C310411   5.408  10.643   5.575  0.0787 -0.0125 -0.0144
  696POPI   PO410412   5.595  10.418   6.094  0.1034 -0.0906  0.0644
  696POPI   GL110413   5.476  10.501   6.490 -0.2704  0.0404  0.1084
  696POPI   GL210414   5.772  10.450   6.551 -0.0000 -0.1023  0.1793
  696POPI   C1A10415   5.419  10.691   6.960 -0.2738 -0.1878  0.1513
  696POPI   D2A10416   5.524  10.868   7.421 -0.0952 -0.2411  0.5191
  696POPI   C3A10417   5.427  11.000   7.871 -0.2880 -0.2829  0.2124
  696POPI   C4A10418   5.144  11.033   8.212  0.0473 -0.1976 -0.0553
  696POPI   C1B10419   5.934  10.591   6.898  0.0314 -0.0077  0.2864
  696POPI   C2B10420   5.897  10.526   7.296  0.0688 -0.0309 -0.1047
  696POPI   C3B10421   5.967  10.438   7.773  0.2424  0.0230 -0.1273
  696POPI   C4B10422   5.827  10.055   8.053  0.2479 -0.0059  0.3579
  697POPI    C110423  14.256  16.345   5.697 -0.1910 -0.2186 -0.0820
  697POPI    C210424  14.440  16.044   5.510 -0.1014 -0.1751 -0.0645
  697POPI    C310425  14.281  16.343   5.298 -0.0136 -0.1336 -0.0720
  697POPI   PO410426  14.359  16.376   5.948  0.2315 -0.0202 -0.0813
  697POPI   GL110427  14.095  16.230   6.298 -0.2376 -0.2971 -0.0909
  697POPI   GL210428  14.017  15.935   6.299 -0.0498  0.0564  0.3016
  697POPI   C1A10429  13.864  16.643   6.367 -0.0005  0.4468 -0.3947
  697POPI   D2A10430  13.779  17.022   6.609 -0.0871 -0.3294 -0.0284
  697POPI   C3A10431  13.847  17.083   7.030  0.2195 -0.0502 -0.1359
  697POPI   C4A10432  13.866  17.112   7.509  0.0461  0.2359  0.0072
  697POPI   C1B10433  14.009  15.891   6.797 -0.1343 -0.0878 -0.0619
  697POPI   C2B10434  13.967  15.721   7.216 -0.1576 -0.1568 -0.1694
  697POPI   C3B10435  13.736  15.647   7.668  0.0189 -0.1124  0.2192
  697POPI   C4B10436  13.374  15.534   7.786 -0.0689  0.2822  0.0689
  698POPI    C110437  13.575  12.581   5.775  0.1426 -0.0652  0.1501
  698POPI    C210438  13.537  12.232   5.584  0.1398 -0.0535  0.1292
  698POPI    C310439  13.820  12.491   5.472  0.0956 -0.0185  0.0979
  698POPI   PO410440  13.525  12.516   6.016  0.0405 -0.0697  0.0679
  698POPI   GL110441  13.707  12.553   6.479  0.0439 -0.2516  0.0704
  698POPI   GL210442  13.595  12.216   6.420  0.1540 -0.0894  0.0967
  698POPI   C1A10443  13.529  12.820   6.810 -0.3468 -0.1720 -0.2096
  698POPI   D2A10444  13.475  12.889   7.211  0.1812  0.1060  0.2181
  698POPI   C3A10445  13.314  12.681   7.495  0.0153  0.2569  0.1754
  698POPI   C4A10446  13.310  12.535   7.948  0.1203 -0.1766 -0.1559
  698POPI   C1B10447  13.394  12.207   6.906  0.0612 -0.2783  0.0607
  698POPI   C2B10448  13.286  12.153   7.341  0.1957 -0.0690  0.0239
  698POPI   C3B10449  12.905  12.174   7.532  0.0605 -0.0894  0.0102
  698POPI   C4B10450  12.528  12.179   7.734 -0.1682 -0.1518  0.2344
  699POPI    C110451   8.488   5.754   5.873  0.2052 -0.0884  0.2203
  699POPI    C210452   8.799   5.739   5.622  0.0776 -0.1143  0.0619
  699POPI    C310453   8.721   5.429   5.862 -0.0816 -0.2884 -0.2098
  699POPI   PO410454   8.529   6.034   5.911 -0.0545 -0.1704  0.0907
  699POPI   GL110455   8.386   6.071   6.333  0.0662 -0.2774 -0.3708
  699POPI   GL210456   8.155   6.126   6.338  0.5041  0.2392 -0.0591
  699POPI   C1A10457   8.450   6.428   6.656  0.1288 -0.1193  0.0494
  699POPI   D2A10458   8.301   6.752   6.959 -0.0767  0.1689  0.0704
  699POPI   C3A10459   8.125   6.594   7.331  0.1477 -0.0487 -0.2153
  699POPI   C4A10460   8.156   6.682   7.757  0.1130  0.0449  0.0523
  699POPI   C1B10461   7.872   5.762   6.584  0.0312  0.1081  0.2547
  699POPI   C2B10462   7.883   5.593   7.045  0.1937 -0.1296  0.2606
  699POPI   C3B10463   7.673   5.489   7.440  0.1000 -0.1065 -0.1571
  699POPI   C4B10464   7.296   5.646   7.755  0.2461  0.0256 -0.1058
  700POPI    C110465   1.070   3.765   5.224  0.1264  0.0624 -0.0319
  700POPI    C210466   0.755   3.589   5.050 -0.1915  0.2179  0.3690
  700POPI    C310467   1.000   3.821   4.835 -0.1771 -0.1369 -0.0095
  700POPI   PO410468   0.979   3.781   5.472  0.2289 -0.3267  0.0343
  700POPI   GL110469   0.879   3.878   5.913 -0.0123  0.0908 -0.0361
  700POPI   GL210470   0.898   4.214   6.022  0.0983 -0.2380 -0.0012
  700POPI   C1A10471   1.207   3.888   6.256  0.0566  0.1050  0.1882
  700POPI   D2A10472   1.166   3.982   6.725  0.2593 -0.1214 -0.0128
  700POPI   C3A10473   1.407   3.819   7.066 -0.0179  0.0902 -0.0270
  700POPI   C4A10474   1.768   3.729   7.354 -0.1477  0.3533  0.0746
  700POPI   C1B10475   0.856   4.408   6.355  0.0755 -0.1030 -0.0575
  700POPI   C2B10476   0.739   4.400   6.718 -0.0866  0.0436 -0.1095
  700POPI   C3B10477   0.668   4.100   7.033 -0.1642  0.0715 -0.0493
  700POPI   C4B10478   0.952   4.103   7.332 -0.0381 -0.0958  0.1300
  701POPI    C110479  10.193   2.285   6.258 -0.1082 -0.3517  0.2401
  701POPI    C210480  10.513   2.088   6.395 -0.1936 -0.5877  0.1082
  701POPI    C310481  10.415   2.064   6.008 -0.2537 -0.3497  0.1073
  701POPI   PO410482  10.118   2.432   6.454 -0.0969  0.0296 -0.0622
  701POPI   GL110483   9.968   2.375   6.815  0.0422 -0.0846 -0.1839
  701POPI   GL210484   9.741   2.561   6.799 -0.0000 -0.0001  0.0345
  701POPI   C1A10485  10.059   2.168   7.104  0.0557  0.0350  0.2947
  701POPI   D2A10486  10.099   1.797   7.304 -0.0601 -0.0591  0.0029
  701POPI   C3A10487   9.909   1.735   7.692  0.0857 -0.1149 -0.0128
  701POPI   C4A10488  10.090   1.303   7.871  0.0393  0.3534 -0.0538
  701POPI   C1B10489   9.699   2.553   7.212 -0.0417  0.6392  0.0849
  701POPI   C2B10490   9.640   2.366   7.501 -0.1694 -0.2125  0.2309
  701POPI   C3B10491   9.537   2.094   7.886  0.1230  0.0818 -0.0014
  701POPI   C4B10492   9.508   2.008   8.332  0.2197 -0.4440 -0.3961
  702POPI    C110493   6.055  14.101   6.067  0.1494  0.3989 -0.0801
  702POPI    C210494   6.319  14.026   5.776  0.0720 -0.1307 -0.0246
  702POPI    C310495   5.928  14.046   5.692  0.0569 -0.1987  0.0292
  702POPI   PO410496   6.066  14.336   6.177 -0.3455  0.0741 -0.0782
  702POPI   GL110497   5.848  14.482   6.416  0.1248  0.0429  0.0304
  702POPI   GL210498   6.041  14.670   6.649  0.1267 -0.0044  0.0667
  702POPI   C1A10499   5.684  14.348   6.801 -0.1456  0.3092 -0.1664
  702POPI   D2A10500   5.289  14.201   7.146  0.0021  0.0645  0.1554
  702POPI   C3A10501   5.398  14.023   7.521  0.1513  0.1388 -0.0523
  702POPI   C4A10502   5.223  14.155   7.913 -0.3443 -0.2912 -0.1406
  702POPI   C1B10503   5.880  14.738   6.980  0.0638  0.4250 -0.4059
  702POPI   C2B10504   5.698  14.932   7.337 -0.1622 -0.0716  0.0544
  702POPI   C3B10505   5.484  14.949   7.743  0.1072  0.0232 -0.2396
  702POPI   C4B10506   5.186  14.608   7.987 -0.0614 -0.2390 -0.1144
  703POPI    C110507   5.087   5.154   5.773  0.1021  0.1355  0.2206
  703POPI    C210508   4.692   5.121   5.717  0.0584  0.1263  0.5182
  703POPI    C310509   4.863   5.483   5.736  0.0966  0.1285  0.1908
  703POPI   PO410510   5.068   4.863   5.896 -0.0522 -0.2677  0.0167
  703POPI   GL110511   5.090   4.508   6.085 -0.0327 -0.4295 -0.0720
  703POPI   GL210512   4.900   4.620   6.260  0.0099 -0.0465 -0.3354
  703POPI   C1A10513   5.327   4.512   6.469 -0.3503 -0.1138  0.0878
  703POPI   D2A10514   5.632   4.747   6.622  0.0522  0.0586 -0.1704
  703POPI   C3A10515   5.593   5.035   6.933  0.1653 -0.0353  0.2669
  703POPI   C4A10516   5.885   4.937   7.342 -0.0498 -0.0606 -0.1477
  703POPI   C1B10517   4.792   4.457   6.681 -0.0189 -0.0405  0.1573
  703POPI   C2B10518   4.825   4.356   7.137  0.0719 -0.0128 -0.0923
  703POPI   C3B10519   4.550   4.356   7.409  0.4351  0.1126  0.3781
  703POPI   C4B10520   4.590   4.415   7.831  0.1937 -0.0717  0.2466
  704POPI    C110521  12.131  15.893   5.846  0.0309 -0.1778  0.0651
  704POPI    C210522  12.523  15.900   5.767 -0.0132  0.1272 -0.1392
  704POPI    C310523  12.262  16.049   5.502 -0.2446  0.2053  0.1280
  704POPI   PO410524  12.114  15.582   5.994 -0.2060 -0.1317  0.4392
  704POPI   GL110525  12.029  15.495   6.377 -0.1890 -0.2108 -0.1727
  704POPI   GL210526  11.904  15.813   6.539  0.2005  0.2214 -0.4436
  704POPI   C1A10527  11.861  15.283   6.766  0.0100  0.1977  0.1390
  704POPI   D2A10528  11.586  15.160   7.144  0.1548  0.2369  0.2112
  704POPI   C3A10529  11.604  15.331   7.592 -0.0263 -0.0069  0.1071
  704POPI   C4A10530  11.519  15.412   8.016 -0.1562  0.1459  0.0068
  704POPI   C1B10531  11.780  15.796   6.887 -0.0649  0.0887  0.0219
  704POPI   C2B10532  12.003  15.689   7.278 -0.1773 -0.1747  0.0948
  704POPI   C3B10533  11.939  15.845   7.727 -0.0678 -0.0400  0.1764
  704POPI   C4B10534  11.856  15.883   8.161  0.1124 -0.2760  0.1543
  705POPI    C110535  12.635  12.926   6.257  0.0250 -0.0368 -0.0775
  705POPI    C210536  12.691  12.720   5.919  0.0003 -0.2793  0.0637
  705POPI    C310537  13.005  12.828   6.142  0.0019 -0.3244  0.0834
  705POPI   PO410538  12.309  12.883   6.212  0.1600 -0.2987  0.1082
  705POPI   GL110539  11.870  12.692   6.320 -0.3498  0.1992 -0.2345
  705POPI   GL210540  11.579  12.699   6.377  0.1388  0.1712  0.1396
  705POPI   C1A10541  11.796  12.366   6.706  0.2261 -0.1479  0.0185
  705POPI   D2A10542  11.618  12.552   6.989  0.3152  0.1642 -0.1468
  705POPI   C3A10543  11.472  12.280   7.301 -0.2850  0.0291  0.0435
  705POPI   C4A10544  11.579  11.981   7.611  0.1724 -0.2492  0.1021
  705POPI   C1B10545  11.701  12.980   6.672  0.3022 -0.2430 -0.1638
  705POPI   C2B10546  11.731  13.021   7.014 -0.2177  0.0556 -0.0328
  705POPI   C3B10547  11.764  13.152   7.335 -0.0064 -0.1379  0.4121
  705POPI   C4B10548  11.593  13.448   7.651 -0.0564 -0.0016 -0.1136
  706POPI    C110549  12.831   9.976   5.721 -0.2537  0.0407 -0.0984
  706POPI    C210550  12.589   9.960   6.039 -0.0271  0.0458  0.0766
  706POPI    C310551  12.465  10.136   5.703 -0.1568  0.3173  0.2628
  706POPI   PO410552  12.918   9.688   5.746  0.0260 -0.1296 -0.1670
  706POPI   GL110553  12.976   9.514   6.076  0.0976 -0.1479  0.0926
  706POPI   GL210554  13.033   9.691   6.335  0.2007  0.1693 -0.0048
  706POPI   C1A10555  12.888   9.216   6.288  0.1498 -0.0319  0.0208
  706POPI   D2A10556  12.679   9.074   6.662  0.1891  0.0471 -0.3728
  706POPI   C3A10557  12.697   9.277   6.992 -0.0309  0.1049 -0.2472
  706POPI   C4A10558  12.587   9.344   7.461 -0.0880 -0.0253  0.0343
  706POPI   C1B10559  12.947   9.606   6.724 -0.0308 -0.3177  0.0076
  706POPI   C2B10560  13.079   9.561   7.215  0.0736 -0.1113  0.0463
  706POPI   C3B10561  13.362   9.659   7.518  0.1891 -0.0983  0.2468
  706POPI   C4B10562  13.785   9.593   7.588  0.2332 -0.0132  0.1543
  707POPI    C110563  13.542   2.244   5.722  0.1863  0.0252 -0.0661
  707POPI    C210564  13.217   2.292   5.494  0.1866  0.0397 -0.0634
  707POPI    C310565  13.456   1.977   5.438  0.1508  0.0082 -0.0394
  707POPI   PO410566  13.527   2.426   5.955  0.1254  0.0693  0.2333
  707POPI   GL110567  13.442   2.570   6.292  0.2126 -0.0119 -0.3590
  707POPI   GL210568  13.242   2.381   6.382  0.2013  0.1843  0.0572
  707POPI   C1A10569  13.299   2.909   6.536 -0.0200  0.0259  0.0631
  707POPI   D2A10570  13.305   2.932   6.958  0.0252 -0.2596 -0.1816
  707POPI   C3A10571  13.136   3.265   7.209 -0.0873 -0.0638  0.2449
  707POPI   C4A10572  13.092   3.333   7.634 -0.0339 -0.0819 -0.0410
  707POPI   C1B10573  13.226   2.469   6.760 -0.0847 -0.1184 -0.0047
  707POPI   C2B10574  13.115   2.465   7.220 -0.0877 -0.0241 -0.1788
  707POPI   C3B10575  13.367   2.306   7.621  0.2596 -0.2398 -0.2561
  707POPI   C4B10576  13.531   2.246   8.119 -0.0058  0.0113 -0.1393
  708POPI    C110577   7.010  16.456   5.888  0.2554  0.2586  0.0114
  708POPI    C210578   6.661  16.625   5.786  0.0676 -0.0704  0.0936
  708POPI    C310579   6.855  16.392   5.524  0.1338 -0.0361  0.1119
  708POPI   PO410580   6.970  16.394   6.121 -0.0748  0.1515 -0.4233
  708POPI   GL110581   6.929  16.556   6.488 -0.0070 -0.2407 -0.0017
  708POPI   GL210582   7.159  16.780   6.441  0.0122 -0.0839  0.1093
  708POPI   C1A10583   6.760  16.534   6.922  0.0020 -0.1572  0.2196
  708POPI   D2A10584   6.886  16.601   7.280  0.3368  0.0238  0.0537
  708POPI   C3A10585   6.636  16.864   7.554  0.0167  0.2565  0.0595
  708POPI   C4A10586   6.693  17.020   7.983  0.0340 -0.1895 -0.1568
  708POPI   C1B10587   7.139  16.805   6.879  0.0898  0.0897 -0.1191
  708POPI   C2B10588   7.271  16.937   7.328  0.1173 -0.2717 -0.0109
  708POPI   C3B10589   7.590  17.133   7.561 -0.1097 -0.2810  0.2938
  708POPI   C4B10590   7.507  17.497   7.832  0.3072  0.0384 -0.1514
  709POPI    C110591   3.660   7.857   5.889  0.0239 -0.0565 -0.2520
  709POPI    C210592   3.912   8.102   5.699 -0.0920  0.1826 -0.1025
  709POPI    C310593   3.519   8.131   5.634 -0.1338  0.2740  0.1786
  709POPI   PO410594   3.800   7.602   5.908 -0.0455  0.0309  0.2553
  709POPI   GL110595   3.995   7.290   6.258 -0.2845 -0.2082 -0.2765
  709POPI   GL210596   3.597   7.249   6.208 -0.1947 -0.3003  0.1672
  709POPI   C1A10597   4.022   7.034   6.617 -0.1073 -0.1747  0.1910
  709POPI   D2A10598   3.845   6.881   7.123  0.2192  0.0584  0.2488
  709POPI   C3A10599   3.929   7.135   7.498 -0.1234 -0.1212 -0.1402
  709POPI   C4A10600   4.123   7.141   7.919 -0.1884  0.1054  0.0373
  709POPI   C1B10601   3.503   7.189   6.627 -0.1003  0.0873  0.2499
  709POPI   C2B10602   3.503   7.247   7.091 -0.2072 -0.2483  0.0441
  709POPI   C3B10603   3.044   7.231   7.249  0.4315 -0.0585  0.0076
  709POPI   C4B10604   2.901   7.207   7.692  0.0070 -0.0423  0.1629
  710POPI    C110605   0.062   9.632   6.230  0.1582  0.0757  0.1046
  710POPI    C210606   0.069   9.321   5.979 -0.1524  0.1833 -0.0424
  710POPI    C310607   0.333   9.619   5.936 -0.1290  0.1452 -0.1683
  710POPI   PO410608   0.024   9.619   6.429 -0.2358  0.0688 -0.1952
  710POPI   GL110609   0.142   9.618   6.826 -0.1526  0.1339 -0.0063
  710POPI   GL210610   0.444   9.715   6.675  0.0347 -0.1553  0.0716
  710POPI   C1A10611   0.312   9.487   7.190 -0.1757 -0.0945  0.0421
  710POPI   D2A10612   0.326   9.248   7.538  0.0583  0.2985 -0.1665
  710POPI   C3A10613   0.250   9.250   7.888  0.0845  0.0479  0.1921
  710POPI   C4A10614   0.346   9.136   8.330  0.3016 -0.2310 -0.1011
  710POPI   C1B10615   0.514   9.958   7.011 -0.0629 -0.1524 -0.1621
  710POPI   C2B10616   0.658   9.991   7.411 -0.0546  0.0846 -0.0752
  710POPI   C3B10617   0.962   9.955   7.667 -0.2219  0.2253  0.0461
  710POPI   C4B10618   1.302   9.664   7.804  0.1238  0.2015 -0.2975
  711POPI    C110619   1.247   9.697   5.922  0.0472 -0.1933 -0.0003
  711POPI    C210620   0.858   9.648   5.842 -0.0554  0.3758  0.1040
  711POPI    C310621   1.134   9.500   5.593 -0.3328 -0.0579  0.0434
  711POPI   PO410622   1.243   9.821   6.267  0.0449  0.1277  0.2412
  711POPI   GL110623   1.143  10.116   6.555  0.0944 -0.0960  0.0489
  711POPI   GL210624   1.208  10.395   6.554  0.2826  0.1693  0.2551
  711POPI   C1A10625   0.974  10.046   6.853 -0.0992 -0.0521  0.0794
  711POPI   D2A10626   1.152  10.084   7.238 -0.2744 -0.1535  0.1233
  711POPI   C3A10627   1.402   9.709   7.275 -0.0311 -0.0997 -0.0516
  711POPI   C4A10628   1.415   9.305   7.477 -0.1328 -0.1011  0.1055
  711POPI   C1B10629   1.282  10.502   6.917 -0.0455 -0.0339  0.0065
  711POPI   C2B10630   1.213  10.577   7.356  0.0828  0.0676  0.0953
  711POPI   C3B10631   1.038  10.844   7.754  0.0575 -0.0706  0.1239
  711POPI   C4B10632   0.813  10.876   8.145  0.0957 -0.0517 -0.0802
  712POPI    C110633   0.964  13.995   6.307 -0.2413  0.0877  0.0237
  712POPI    C210634   0.974  13.755   5.987  0.0057  0.0720  0.0409
  712POPI    C310635   0.881  14.142   5.945 -0.2080  0.0159 -0.0134
  712POPI   PO410636   0.921  13.791   6.505 -0.1105  0.0235 -0.1014
  712POPI   GL110637   1.011  13.655   6.839 -0.1355  0.2202 -0.0249
  712POPI   GL210638   1.276  13.788   6.959  0.1740 -0.2939  0.0050
  712POPI   C1A10639   0.724  13.917   7.218 -0.1526 -0.0208 -0.1906
  712POPI   D2A10640   0.993  14.153   7.627 -0.1984 -0.2719  0.1469
  712POPI   C3A10641   0.776  13.986   8.060  0.1005  0.0068  0.4294
  712POPI   C4A10642   0.628  14.217   8.400 -0.1242  0.1495  0.0701
  712POPI   C1B10643   1.207  13.810   7.313 -0.3235 -0.0175  0.1318
  712POPI   C2B10644   0.976  13.613   7.574 -0.0296  0.0935  0.0244
  712POPI   C3B10645   1.198  13.457   8.030  0.1756  0.0866  0.0365
  712POPI   C4B10646   1.220  13.491   8.401  0.0446 -0.1262 -0.0681
  713POPI    C110647   4.494  12.977   5.403  0.0131  0.2178 -0.0581
  713POPI    C210648   4.121  12.840   5.443  0.0434  0.1767  0.0903
  713POPI    C310649   4.192  13.167   5.223 -0.0411  0.0103 -0.1889
  713POPI   PO410650   4.597  13.053   5.642 -0.1298 -0.1313  0.0450
  713POPI   GL110651   4.496  12.938   6.038 -0.1927 -0.0147 -0.0380
  713POPI   GL210652   4.423  12.795   6.329 -0.4957 -0.0902  0.0652
  713POPI   C1A10653   4.753  13.200   6.299  0.1946 -0.2146  0.2599
  713POPI   D2A10654   5.068  13.219   6.557  0.3924 -0.0219 -0.1416
  713POPI   C3A10655   5.082  13.125   6.914 -0.1242 -0.3187  0.1503
  713POPI   C4A10656   5.336  13.083   7.259 -0.0241 -0.1904 -0.0147
  713POPI   C1B10657   4.587  12.895   6.717  0.2418 -0.1325 -0.0241
  713POPI   C2B10658   4.715  12.750   7.098  0.0778  0.0894  0.2821
  713POPI   C3B10659   4.807  12.953   7.435 -0.0859  0.1422  0.1544
  713POPI   C4B10660   5.040  12.864   7.876  0.3724  0.2832  0.3568
  714POPI    C110661  16.258  10.175   6.131 -0.0808 -0.4014  0.0312
  714POPI    C210662  16.657  10.151   6.142 -0.0700 -0.2732 -0.0552
  714POPI    C310663  16.478  10.377   5.864 -0.1964 -0.1722  0.1066
  714POPI   PO410664  16.250  10.331   6.427 -0.2065  0.1949 -0.0338
  714POPI   GL110665  16.646  10.199   6.678  0.2561 -0.1709 -0.0521
  714POPI   GL210666  16.903   9.955   6.638 -0.0357  0.0346  0.1827
  714POPI   C1A10667  16.771  10.113   7.150 -0.0291 -0.2196 -0.1887
  714POPI   D2A10668  16.951  10.081   7.646 -0.2149 -0.1709 -0.4407
  714POPI   C3A10669  16.646  10.087   8.035  0.0409  0.2347 -0.2978
  714POPI   C4A10670  16.582   9.692   8.308 -0.0746 -0.1507 -0.1599
  714POPI   C1B10671  17.155   9.824   6.898  0.2243  0.1479  0.0728
  714POPI   C2B10672  17.212   9.802   7.271 -0.1574  0.0743 -0.3212
  714POPI   C3B10673  17.293   9.655   7.691  0.3238  0.1200  0.3170
  714POPI   C4B10674  17.570   9.798   7.986 -0.0223  0.1185  0.0427
  715POPI    C110675   0.230   4.585   5.522  0.1645  0.1205  0.1323
  715POPI    C210676   0.388   4.520   5.160 -0.1754 -0.2001  0.0352
  715POPI    C310677  -0.009   4.536   5.205 -0.1369 -0.1914  0.4001
  715POPI   PO410678   0.555   4.683   5.646 -0.2473  0.2632 -0.0031
  715POPI   GL110679   0.642   4.748   6.006  0.1228 -0.0163  0.1698
  715POPI   GL210680   0.905   4.927   6.170  0.3235  0.1322 -0.0137
  715POPI   C1A10681   0.480   4.756   6.516 -0.0571 -0.2785  0.2257
  715POPI   D2A10682   0.386   4.695   6.989 -0.3185  0.1557  0.3335
  715POPI   C3A10683   0.674   4.549   7.266 -0.3390 -0.2941  0.0335
  715POPI   C4A10684   0.828   4.459   7.719 -0.1378 -0.1296  0.3152
  715POPI   C1B10685   0.971   4.841   6.536  0.0116  0.0370  0.0840
  715POPI   C2B10686   1.033   4.965   6.910 -0.2352  0.0993 -0.2548
  715POPI   C3B10687   0.857   5.050   7.283  0.1746 -0.1684 -0.1498
  715POPI   C4B10688   0.688   5.078   7.722 -0.1312  0.0258  0.3392
  716POPI    C110689  12.734   0.908   6.190  0.1775 -0.3554  0.2620
  716POPI    C210690  12.510   0.745   5.901  0.0976  0.2943 -0.0632
  716POPI    C310691  12.906   0.775   5.854  0.1143  0.1858  0.0041
  716POPI   PO410692  12.603   0.802   6.392 -0.0777  0.0425  0.3449
  716POPI   GL110693  12.710   0.823   6.785  0.1117 -0.1835 -0.3191
  716POPI   GL210694  12.930   0.582   6.726 -0.2093  0.0369 -0.2199
  716POPI   C1A10695  12.694   1.143   7.054  0.0039  0.1834 -0.0338
  716POPI   D2A10696  12.454   1.256   7.230 -0.1095 -0.2483  0.0014
  716POPI   C3A10697  12.434   1.429   7.643  0.1973  0.0642 -0.1536
  716POPI   C4A10698  12.703   1.563   7.957 -0.0234  0.1708 -0.0401
  716POPI   C1B10699  12.956   0.701   7.157 -0.5382  0.1857  0.4181
  716POPI   C2B10700  12.700   0.521   7.557 -0.1363  0.2559  0.0907
  716POPI   C3B10701  12.709   0.352   7.902  0.0013 -0.0807  0.1664
  716POPI   C4B10702  12.967   0.271   8.313  0.1032  0.0597 -0.0445
  717POPI    C110703   8.829  14.219   5.938  0.1617 -0.0393 -0.0557
  717POPI    C210704   8.834  14.615   5.996  0.0500 -0.0051 -0.2717
  717POPI    C310705   9.143  14.391   6.118  0.2278  0.1809 -0.3737
  717POPI   PO410706   8.636  14.142   5.986 -0.0380  0.1489  0.1343
  717POPI   GL110707   8.444  14.480   6.258  0.2192 -0.0787  0.1812
  717POPI   GL210708   8.208  14.690   6.355 -0.2023 -0.0150 -0.0724
  717POPI   C1A10709   8.544  14.351   6.668 -0.0457  0.2016 -0.1650
  717POPI   D2A10710   8.415  14.169   7.049 -0.0085 -0.0993  0.0622
  717POPI   C3A10711   8.342  14.469   7.361 -0.1582 -0.3918  0.3725
  717POPI   C4A10712   8.526  14.327   7.731 -0.0680 -0.0228  0.0998
  717POPI   C1B10713   8.499  14.817   6.722  0.0780  0.0616 -0.0415
  717POPI   C2B10714   8.634  14.842   7.099 -0.0774  0.2141 -0.3112
  717POPI   C3B10715   8.499  14.899   7.703 -0.1409  0.0312 -0.0184
  717POPI   C4B10716   8.626  15.153   8.114 -0.1800 -0.2031  0.0022
  718POPI    C110717  16.461  12.533   5.795  0.0037 -0.0062 -0.0076
  718POPI    C210718  16.827  12.629   5.923  0.0578 -0.3877  0.1376
  718POPI    C310719  16.770  12.530   5.540 -0.0120  0.2639 -0.0326
  718POPI   PO410720  16.300  12.575   6.078 -0.2760  0.0241 -0.0505
  718POPI   GL110721  16.148  12.700   6.476  0.2500 -0.0910 -0.2371
  718POPI   GL210722  16.341  12.459   6.527  0.3725 -0.0457 -0.0691
  718POPI   C1A10723  15.902  12.829   6.818  0.1728 -0.0792 -0.2268
  718POPI   D2A10724  15.627  12.895   7.193  0.3099 -0.0840  0.1471
  718POPI   C3A10725  15.767  12.814   7.554  0.1917  0.2072 -0.2591
  718POPI   C4A10726  15.700  12.722   7.916  0.1087  0.1319  0.0679
  718POPI   C1B10727  16.623  12.415   6.895  0.1959  0.1200 -0.0854
  718POPI   C2B10728  16.762  12.441   7.317  0.0915 -0.0922  0.1714
  718POPI   C3B10729  16.721  12.392   7.749 -0.3714  0.1024 -0.0982
  718POPI   C4B10730  16.392  12.408   8.115  0.0909  0.0395 -0.2443
  719POPI    C110731   8.318   8.527   6.036  0.0672  0.0997 -0.0719
  719POPI    C210732   8.566   8.621   6.335  0.1230 -0.0457 -0.0715
  719POPI    C310733   8.627   8.772   5.969  0.4308 -0.3676 -0.1585
  719POPI   PO410734   8.082   8.596   6.083 -0.5281 -0.3712 -0.1408
  719POPI   GL110735   7.704   8.531   6.340  0.0602 -0.2708  0.0844
  719POPI   GL210736   7.378   8.720   6.220  0.1561  0.1633  0.3503
  719POPI   C1A10737   7.591   8.404   6.745  0.1871  0.3037 -0.2095
  719POPI   D2A10738   7.227   8.334   6.958  0.3890  0.2714 -0.2131
  719POPI   C3A10739   7.280   8.330   7.367  0.1417 -0.1480 -0.3622
  719POPI   C4A10740   7.090   8.077   7.714 -0.3486  0.3383  0.2561
  719POPI   C1B10741   7.597   8.945   6.599  0.0348  0.1344 -0.2161
  719POPI   C2B10742   7.516   8.789   7.019  0.1581 -0.0188  0.1397
  719POPI   C3B10743   7.524   8.754   7.424 -0.1863 -0.0626  0.2346
  719POPI   C4B10744   7.747   8.728   7.919  0.0126 -0.1177  0.2622
  720POPI    C110745   8.724  14.980   5.421  0.0845 -0.0978 -0.1788
  720POPI    C210746   8.973  15.161   5.165 -0.0406  0.2186 -0.0830
  720POPI    C310747   8.697  14.904   5.029 -0.0140  0.2764 -0.2489
  720POPI   PO410748   8.895  15.024   5.695 -0.2296 -0.0257  0.0328
  720POPI   GL110749   8.950  15.100   6.130 -0.0887 -0.3563 -0.1869
  720POPI   GL210750   8.652  15.204   6.400 -0.0518 -0.1645  0.0534
  720POPI   C1A10751   8.999  14.777   6.377 -0.0600  0.0320 -0.0883
  720POPI   D2A10752   9.061  14.457   6.628  0.1597  0.0710  0.2542
  720POPI   C3A10753   9.440  14.495   6.881 -0.0633  0.0644 -0.1821
  720POPI   C4A10754   9.468  14.339   7.251 -0.2564  0.0082 -0.0871
  720POPI   C1B10755   8.916  15.077   6.756  0.2282 -0.0703 -0.1796
  720POPI   C2B10756   9.218  15.170   6.995  0.0390 -0.0326  0.0076
  720POPI   C3B10757   9.492  15.549   7.050 -0.2545  0.0013  0.0566
  720POPI   C4B10758   9.746  15.630   7.379 -0.1464  0.1735 -0.0342
  721POPI    C110759  16.751  13.144   6.103  0.0615  0.1914  0.2731
  721POPI    C210760  16.641  13.399   5.815 -0.0793 -0.0526  0.1076
  721POPI    C310761  16.854  13.530   6.127 -0.1420  0.2643  0.0207
  721POPI   PO410762  16.552  13.004   6.104  0.2783  0.0530 -0.2461
  721POPI   GL110763  16.422  13.119   6.491  0.0336  0.2168 -0.2927
  721POPI   GL210764  16.581  13.311   6.522 -0.3130  0.2034  0.0803
  721POPI   C1A10765  16.410  12.913   6.841 -0.0024 -0.1095 -0.2948
  721POPI   D2A10766  16.240  13.045   7.163  0.1843  0.0670  0.0218
  721POPI   C3A10767  16.215  13.138   7.605  0.1016 -0.1122 -0.2412
  721POPI   C4A10768  16.434  13.312   7.954  0.3652  0.1762  0.0437
  721POPI   C1B10769  16.629  13.350   6.986  0.1653 -0.0119  0.1020
  721POPI   C2B10770  16.580  13.460   7.458  0.1057  0.1490  0.1219
  721POPI   C3B10771  16.737  13.707   7.829  0.0308  0.0640  0.0968
  721POPI   C4B10772  16.739  13.984   8.100 -0.1842 -0.1016  0.2867
  722POPI    C110773  12.572   3.604   5.754  0.0465 -0.1706  0.0808
  722POPI    C210774  12.935   3.698   5.616  0.0463  0.0640  0.2353
  722POPI    C310775  12.780   3.337   5.539  0.1559  0.0935 -0.1471
  722POPI   PO410776  12.688   3.844   6.035  0.2609 -0.0824 -0.0641
  722POPI   GL110777  12.597   3.920   6.429 -0.1211 -0.2636 -0.3291
  722POPI   GL210778  12.755   3.669   6.534 -0.1143 -0.2715  0.0998
  722POPI   C1A10779  12.619   4.182   6.743  0.4080 -0.3100 -0.1113
  722POPI   D2A10780  12.641   4.415   7.169  0.1706  0.1896  0.4726
  722POPI   C3A10781  12.858   4.245   7.531  0.0282  0.1084 -0.2424
  722POPI   C4A10782  12.704   4.113   7.999  0.1769  0.1737 -0.2218
  722POPI   C1B10783  12.568   3.711   6.908  0.2977 -0.0608  0.0514
  722POPI   C2B10784  12.657   3.755   7.362  0.1471 -0.1101  0.0340
  722POPI   C3B10785  12.860   3.804   7.697  0.2096 -0.0689 -0.0731
  722POPI   C4B10786  13.138   3.648   8.103  0.1550  0.2491  0.0578
  723POPI    C110787   7.806  12.049   5.703 -0.0923 -0.0898 -0.3744
  723POPI    C210788   7.630  12.278   5.980  0.0751 -0.2861 -0.1013
  723POPI    C310789   7.700  12.424   5.614 -0.0118  0.0266  0.0047
  723POPI   PO410790   7.652  11.820   5.753 -0.0553  0.1192 -0.1709
  723POPI   GL110791   7.558  11.573   6.157  0.0271 -0.0369 -0.1448
  723POPI   GL210792   7.609  11.240   6.085  0.0652  0.1227 -0.1708
  723POPI   C1A10793   7.420  11.702   6.515 -0.4163 -0.0633 -0.2016
  723POPI   D2A10794   7.391  11.939   6.912 -0.1198  0.0759 -0.0373
  723POPI   C3A10795   7.732  12.145   7.081 -0.0187 -0.0105  0.1032
  723POPI   C4A10796   7.600  12.562   7.248 -0.1480  0.2893  0.0526
  723POPI   C1B10797   7.626  11.266   6.543  0.1687  0.3689 -0.0206
  723POPI   C2B10798   7.793  11.432   6.861  0.3781 -0.2670  0.1723
  723POPI   C3B10799   7.716  11.593   7.247  0.1767 -0.2311  0.2101
  723POPI   C4B10800   7.601  11.443   7.618 -0.0025  0.1885 -0.0827
  724POPI    C110801   6.520   6.317   5.636  0.1195  0.2768  0.0701
  724POPI    C210802   6.825   6.174   5.420  0.0153  0.3105 -0.1007
  724POPI    C310803   6.669   6.532   5.334 -0.1161  0.2645 -0.0570
  724POPI   PO410804   6.639   6.327   5.868 -0.1403  0.3796  0.0748
  724POPI   GL110805   6.299   6.092   6.139  0.0327 -0.0714 -0.0532
  724POPI   GL210806   6.203   6.258   6.453 -0.0769 -0.2064  0.0547
  724POPI   C1A10807   6.464   5.763   6.266  0.1576  0.1963  0.0745
  724POPI   D2A10808   6.655   5.483   6.486  0.0479 -0.0109 -0.0648
  724POPI   C3A10809   6.369   5.221   6.584 -0.1202  0.2266 -0.0300
  724POPI   C4A10810   6.121   4.920   6.727  0.2399  0.1304  0.0755
  724POPI   C1B10811   6.436   6.312   6.822 -0.0494 -0.2735 -0.2034
  724POPI   C2B10812   6.488   6.205   7.258  0.0509 -0.0668 -0.2800
  724POPI   C3B10813   6.503   6.133   7.696 -0.1227  0.0688 -0.1679
  724POPI   C4B10814   6.881   6.096   8.046  0.0850 -0.1325  0.0013
  725POPI    C110815   9.527   4.248   6.320  0.0853 -0.0868  0.0128
  725POPI    C210816   9.549   4.319   5.927  0.2561 -0.1958  0.0012
  725POPI    C310817   9.397   4.596   6.173  0.4050 -0.0146 -0.1081
  725POPI   PO410818   9.813   4.117   6.370 -0.0138  0.0063  0.2288
  725POPI   GL110819   9.930   3.825   6.565 -0.0758 -0.1796 -0.0619
  725POPI   GL210820  10.194   3.872   6.746 -0.0169 -0.1413  0.0590
  725POPI   C1A10821   9.826   3.657   6.949 -0.0077 -0.3469 -0.1315
  725POPI   D2A10822   9.726   3.641   7.419  0.0076 -0.0316 -0.3338
  725POPI   C3A10823   9.440   3.748   7.681 -0.0776  0.0511  0.0148
  725POPI   C4A10824   9.550   3.764   8.164  0.1442 -0.0324  0.0791
  725POPI   C1B10825  10.150   3.888   7.183  0.1307 -0.0544  0.0887
  725POPI   C2B10826  10.132   3.906   7.567 -0.0612  0.2909  0.2195
  725POPI   C3B10827   9.994   3.927   8.073  0.1125 -0.2260  0.1459
  725POPI   C4B10828   9.952   3.639   8.386 -0.0143  0.2607 -0.0356
  726POPI    C110829   9.226   1.038   5.590 -0.0311 -0.2730 -0.0245
  726POPI    C210830   9.122   1.246   5.266 -0.0906 -0.0808  0.1164
  726POPI    C310831   9.502   1.135   5.318 -0.0730 -0.0762  0.0018
  726POPI   PO410832   9.194   1.235   5.816 -0.3203 -0.2789  0.1660
  726POPI   GL110833   9.283   1.251   6.165  0.0621 -0.1905 -0.1808
  726POPI   GL210834   9.554   1.094   6.294 -0.3397  0.1373  0.0119
  726POPI   C1A10835   9.001   1.436   6.546 -0.0198 -0.0036 -0.2755
  726POPI   D2A10836   8.786   1.496   6.891  0.3373 -0.0789 -0.2649
  726POPI   C3A10837   8.705   1.178   7.266 -0.0064  0.0637 -0.0414
  726POPI   C4A10838   8.608   1.095   7.661  0.0711  0.0322  0.0622
  726POPI   C1B10839   9.402   0.955   6.679  0.1494 -0.0880  0.0487
  726POPI   C2B10840   9.556   0.804   7.037  0.0308 -0.2115  0.1436
  726POPI   C3B10841   9.534   0.834   7.412 -0.1663  0.1054 -0.0359
  726POPI   C4B10842   9.693   0.564   7.742  0.0665 -0.2732 -0.5770
  727POPI    C110843  15.094  15.310   5.994 -0.1744 -0.0020  0.0433
  727POPI    C210844  14.881  15.174   5.683  0.0481  0.1460 -0.1772
  727POPI    C310845  14.708  15.408   5.958 -0.1489  0.0172 -0.1902
  727POPI   PO410846  15.253  15.097   6.153  0.1139 -0.0775  0.1086
  727POPI   GL110847  15.338  15.106   6.687 -0.0510 -0.3183  0.1036
  727POPI   GL210848  14.925  15.293   6.541 -0.2961 -0.1220  0.2960
  727POPI   C1A10849  15.280  15.001   7.099 -0.0951  0.0161 -0.2016
  727POPI   D2A10850  15.236  14.897   7.531  0.2313 -0.1387  0.0587
  727POPI   C3A10851  15.534  15.012   7.840 -0.0734  0.0682  0.0609
  727POPI   C4A10852  15.902  15.090   8.018 -0.1718  0.0028  0.0770
  727POPI   C1B10853  14.491  15.391   6.708 -0.2966 -0.0551  0.2476
  727POPI   C2B10854  14.418  15.369   7.177 -0.3253  0.0162  0.0395
  727POPI   C3B10855  14.513  15.381   7.577 -0.0938  0.4229  0.1860
  727POPI   C4B10856  14.222  15.572   7.821 -0.3271 -0.3497 -0.0960
  728POPI    C110857  17.560   9.089   5.807 -0.0485 -0.0799  0.0077
  728POPI    C210858  17.874   8.995   5.578  0.0252  0.0524  0.0537
  728POPI    C310859  17.594   9.245   5.440 -0.0769 -0.0903  0.0006
  728POPI   PO410860  17.675   8.954   6.118  0.0949 -0.3795  0.0618
  728POPI   GL110861  17.809   9.059   6.473 -0.2738  0.1949 -0.0577
  728POPI   GL210862  18.060   9.152   6.634  0.2757 -0.0785  0.1695
  728POPI   C1A10863  17.631   8.904   6.852 -0.0911  0.0055  0.0969
  728POPI   D2A10864  17.435   8.900   7.239 -0.0299 -0.0097  0.0553
  728POPI   C3A10865  17.090   8.735   7.437  0.0076 -0.0379  0.2814
  728POPI   C4A10866  16.894   8.461   7.251 -0.1431 -0.0017  0.0479
  728POPI   C1B10867  18.078   9.056   7.119  0.2359  0.4516  0.1714
  728POPI   C2B10868  17.988   8.859   7.481 -0.3710 -0.0562 -0.0642
  728POPI   C3B10869  17.945   8.871   7.894  0.0790  0.2601 -0.2655
  728POPI   C4B10870  17.809   9.027   8.340  0.1997  0.1081 -0.3395
  729POPI    C110871  17.521  15.482   6.021  0.1497  0.1350 -0.2010
  729POPI    C210872  17.268  15.722   5.824 -0.2021 -0.0014  0.0737
  729POPI    C310873  17.252  15.326   5.769 -0.1417 -0.0213  0.1974
  729POPI   PO410874  17.507  15.694   6.280 -0.0331 -0.0788 -0.1738
  729POPI   GL110875  17.274  15.460   6.646 -0.1190  0.1118 -0.2159
  729POPI   GL210876  17.215  15.788   6.765 -0.0826  0.2295  0.1103
  729POPI   C1A10877  17.573  15.303   6.976 -0.1963 -0.1107 -0.4888
  729POPI   D2A10878  17.451  14.960   7.261 -0.0632 -0.0354 -0.1920
  729POPI   C3A10879  17.510  14.956   7.668 -0.1657  0.0449  0.0332
  729POPI   C4A10880  17.340  14.582   7.902 -0.2332 -0.0041  0.1853
  729POPI   C1B10881  16.994  15.773   7.055  0.3073  0.0827  0.0088
  729POPI   C2B10882  16.969  15.716   7.560  0.2842  0.1291  0.1551
  729POPI   C3B10883  16.818  15.839   7.938  0.0273 -0.3873 -0.0268
  729POPI   C4B10884  16.884  15.982   8.251 -0.0181  0.3437 -0.2070
  730POPI    C110885  11.059   6.876   5.573  0.1330  0.1144  0.1395
  730POPI    C210886  11.293   7.168   5.432  0.1783  0.0824  0.1481
  730POPI    C310887  11.423   6.790   5.431  0.0582  0.0404 -0.0092
  730POPI   PO410888  11.002   6.906   5.903  0.2095 -0.0756 -0.0347
  730POPI   GL110889  11.171   6.829   6.271 -0.2399 -0.0704 -0.1859
  730POPI   GL210890  11.092   6.545   6.503  0.1947 -0.0863 -0.0792
  730POPI   C1A10891  11.297   6.959   6.717 -0.0222  0.1094  0.1065
  730POPI   D2A10892  11.432   7.126   7.084  0.2279 -0.1287  0.0935
  730POPI   C3A10893  11.221   6.971   7.519 -0.0494  0.3037 -0.1273
  730POPI   C4A10894  10.983   7.145   7.896 -0.1448  0.0846  0.1579
  730POPI   C1B10895  11.017   6.589   6.991  0.0915  0.1759 -0.1509
  730POPI   C2B10896  10.907   6.584   7.442 -0.4419 -0.1002 -0.0315
  730POPI   C3B10897  10.651   6.705   7.746 -0.2752 -0.0422  0.2094
  730POPI   C4B10898  10.466   6.547   8.235 -0.1019  0.0430  0.0514
  731POPI    C110899  13.050   0.262   5.617  0.0426 -0.0747 -0.1690
  731POPI    C210900  12.661   0.270   5.710  0.1068 -0.1405  0.1144
  731POPI    C310901  12.815  -0.046   5.520  0.0355 -0.1445  0.0626
  731POPI   PO410902  13.191   0.359   5.836 -0.1256  0.0925  0.0392
  731POPI   GL110903  13.443   0.324   6.158  0.0146  0.1851  0.1318
  731POPI   GL210904  13.234   0.051   6.247  0.0187  0.0754 -0.0110
  731POPI   C1A10905  13.535   0.450   6.593  0.0313  0.2183 -0.0218
  731POPI   D2A10906  13.403   0.376   7.084  0.3723  0.2502  0.2071
  731POPI   C3A10907  13.708   0.619   7.318  0.0064 -0.0305 -0.0769
  731POPI   C4A10908  13.938   0.419   7.643  0.1420  0.1625 -0.1154
  731POPI   C1B10909  13.198   0.135   6.627 -0.0039 -0.3594  0.0339
  731POPI   C2B10910  13.265  -0.091   6.910  0.2821 -0.3121 -0.0195
  731POPI   C3B10911  13.392  -0.032   7.331 -0.0017 -0.2020 -0.0023
  731POPI   C4B10912  13.619   0.089   7.703  0.0403  0.3331  0.2199
  732POPI    C110913   1.757  10.652   5.807 -0.0285 -0.3221 -0.1704
  732POPI    C210914   2.096  10.844   5.715 -0.1323 -0.2082 -0.3197
  732POPI    C310915   1.749  11.044   5.725 -0.1391 -0.2338  0.2427
  732POPI   PO410916   1.886  10.510   6.046 -0.0376  0.2613 -0.0360
  732POPI   GL110917   1.697  10.337   6.458  0.0116  0.2749 -0.2406
  732POPI   GL210918   1.670  10.597   6.627 -0.0865 -0.0687 -0.0256
  732POPI   C1A10919   1.595  10.127   6.826  0.0299  0.2744  0.2598
  732POPI   D2A10920   1.611  10.176   7.230  0.0893  0.1207 -0.0710
  732POPI   C3A10921   1.506  10.149   7.693  0.0933 -0.2570  0.1127
  732POPI   C4A10922   1.510  10.106   8.210  0.0801 -0.0769 -0.2592
  732POPI   C1B10923   1.726  10.599   6.968  0.1865  0.0954 -0.1504
  732POPI   C2B10924   1.893  10.528   7.446  0.0916 -0.2288  0.0007
  732POPI   C3B10925   1.989  10.572   7.828  0.0116 -0.1294  0.0983
  732POPI   C4B10926   2.193  10.849   8.128  0.5802  0.2564  0.1744
  733POPI    C110927   1.556   0.196   5.385  0.2814 -0.0611  0.1475
  733POPI    C210928   1.314   0.488   5.513  0.0546 -0.2494  0.1554
  733POPI    C310929   1.599   0.567   5.243 -0.0409 -0.0326  0.1163
  733POPI   PO410930   1.597   0.046   5.612 -0.1405 -0.1391 -0.1361
  733POPI   GL110931   1.570  -0.039   6.020 -0.1455 -0.1591 -0.0515
  733POPI   GL210932   1.385  -0.360   6.185 -0.1002  0.1611  0.2445
  733POPI   C1A10933   1.726  -0.033   6.444  0.0455 -0.0740 -0.2033
  733POPI   D2A10934   1.704  -0.234   6.804  0.0371 -0.0873  0.3003
  733POPI   C3A10935   1.774  -0.361   7.140 -0.2424 -0.1976 -0.1425
  733POPI   C4A10936   1.876  -0.690   7.422 -0.2152  0.3890 -0.2747
  733POPI   C1B10937   1.546  -0.544   6.434 -0.0168 -0.2408 -0.1490
  733POPI   C2B10938   1.509  -0.696   6.948  0.0851  0.0314  0.2682
  733POPI   C3B10939   1.282  -0.955   7.364 -0.1696  0.1705 -0.1686
  733POPI   C4B10940   0.933  -0.905   7.686  0.0328  0.0354  0.0925
  734POPI    C110941   6.975   1.262   5.717  0.0627 -0.0319 -0.0457
  734POPI    C210942   6.635   1.235   5.509 -0.0414  0.0364  0.1143
  734POPI    C310943   6.915   0.952   5.471 -0.1510 -0.0639  0.0449
  734POPI   PO410944   6.886   1.349   5.967  0.3430  0.3683  0.1428
  734POPI   GL110945   6.718   1.352   6.309 -0.0336 -0.1560  0.1042
  734POPI   GL210946   7.147   1.414   6.427 -0.0003  0.0881 -0.1742
  734POPI   C1A10947   6.516   1.287   6.638  0.0525 -0.0236 -0.0458
  734POPI   D2A10948   6.672   1.327   7.013  0.0109 -0.1317 -0.1233
  734POPI   C3A10949   6.547   1.355   7.421 -0.0766  0.0210  0.0024
  734POPI   C4A10950   6.635   1.283   7.776  0.0660  0.1888  0.0015
  734POPI   C1B10951   6.928   1.763   6.714  0.0120  0.2264  0.0386
  734POPI   C2B10952   6.903   1.746   7.139 -0.0628  0.1937 -0.1508
  734POPI   C3B10953   6.796   1.861   7.472 -0.0470  0.2199  0.1926
  734POPI   C4B10954   6.588   1.794   7.883  0.1767 -0.3757  0.4493
  735POPI    C110955   3.732  17.277   5.003  0.1532 -0.0982  0.1860
  735POPI    C210956   3.656  16.885   4.991 -0.0329 -0.0632  0.1860
  735POPI    C310957   3.499  17.127   4.715  0.1297  0.0043  0.1511
  735POPI   PO410958   3.673  17.298   5.423  0.2015 -0.3252 -0.1687
  735POPI   GL110959   4.023  17.367   5.796 -0.1863  0.1750 -0.1513
  735POPI   GL210960   3.989  17.685   5.809 -0.1973  0.0809 -0.1947
  735POPI   C1A10961   4.063  17.422   6.301  0.2390  0.0088  0.1037
  735POPI   D2A10962   3.858  17.580   6.688 -0.1330 -0.0837  0.0482
  735POPI   C3A10963   3.660  17.566   7.074  0.1235  0.0831 -0.1168
  735POPI   C4A10964   3.426  17.472   7.417  0.1608  0.2425 -0.1616
  735POPI   C1B10965   4.064  17.877   6.141  0.0452 -0.0666  0.0871
  735POPI   C2B10966   4.265  17.823   6.566 -0.3653  0.0998 -0.0052
  735POPI   C3B10967   4.336  17.633   6.976 -0.0181 -0.2616  0.1372
  735POPI   C4B10968   4.054  17.298   7.098 -0.1371  0.0963 -0.0002
  736POPI    C110969   4.851   8.991   5.862 -0.2163  0.0376 -0.1596
  736POPI    C210970   5.057   9.318   5.757  0.0098 -0.0808 -0.0935
  736POPI    C310971   4.995   9.027   5.490  0.2094 -0.1889 -0.0237
  736POPI   PO410972   4.896   9.075   6.142 -0.1041 -0.0460  0.0339
  736POPI   GL110973   4.739   8.888   6.503 -0.2786  0.0823  0.1589
  736POPI   GL210974   4.413   8.834   6.211 -0.0135 -0.2466  0.0408
  736POPI   C1A10975   4.577   8.855   6.861  0.2558 -0.0465  0.2218
  736POPI   D2A10976   4.574   8.623   7.286  0.0161  0.0405 -0.0767
  736POPI   C3A10977   4.970   8.384   7.448 -0.3291  0.1339  0.4191
  736POPI   C4A10978   5.399   8.324   7.638  0.0039 -0.1293 -0.4173
  736POPI   C1B10979   4.200   9.072   6.509 -0.0183 -0.0146  0.4135
  736POPI   C2B10980   4.234   9.261   6.893  0.3619  0.1682 -0.0166
  736POPI   C3B10981   4.391   9.133   7.210  0.2484 -0.1418 -0.0649
  736POPI   C4B10982   4.729   8.980   7.596 -0.1239  0.1444  0.0093
  737POPI    C110983  11.713   0.941   6.002  0.0546  0.0126 -0.0220
  737POPI    C210984  11.587   0.886   5.627 -0.1494  0.2802  0.0042
  737POPI    C310985  11.434   1.182   5.848  0.2031  0.3286  0.1914
  737POPI   PO410986  11.654   0.696   6.166  0.0647  0.4151 -0.2852
  737POPI   GL110987  11.495   0.560   6.535  0.1683 -0.0283 -0.0427
  737POPI   GL210988  11.287   0.311   6.323  0.1143 -0.0326  0.2189
  737POPI   C1A10989  11.187   0.485   6.863  0.3445 -0.0955 -0.1811
  737POPI   D2A10990  10.901   0.663   7.253 -0.1170  0.0444  0.0804
  737POPI   C3A10991  10.815   0.585   7.672  0.3096  0.0727 -0.0690
  737POPI   C4A10992  11.034   0.737   8.082 -0.1857  0.1082 -0.0271
  737POPI   C1B10993  11.601   0.105   6.733  0.3538  0.2224  0.2310
  737POPI   C2B10994  11.430   0.091   7.105 -0.3310 -0.1389  0.0068
  737POPI   C3B10995  11.266   0.335   7.442  0.1839  0.0810  0.1075
  737POPI   C4B10996  11.284   0.677   7.706  0.2815  0.1891  0.2102
  738POPI    C110997   1.100   0.029   5.781 -0.0076  0.0201 -0.1198
  738POPI    C210998   1.255  -0.326   5.682  0.2433  0.1244 -0.1082
  738POPI    C310999   1.151  -0.066   5.396  0.0477  0.0388 -0.1171
  738POPI   PO411000   1.149   0.141   6.068  0.2116 -0.0716 -0.1085
  738POPI   GL111001   0.948   0.044   6.474 -0.1888 -0.1011 -0.0030
  738POPI   GL211002   1.259   0.036   6.559 -0.1180  0.1455  0.3149
  738POPI   C1A11003   0.621   0.226   6.730 -0.1096 -0.0018 -0.1408
  738POPI   D2A11004   0.494   0.115   7.232  0.5875  0.1839 -0.3675
  738POPI   C3A11005   0.838   0.010   7.447  0.0841  0.1863 -0.1909
  738POPI   C4A11006   1.160   0.070   7.695  0.0628  0.0401  0.0800
  738POPI   C1B11007   1.111  -0.183   6.923 -0.0688  0.0142  0.2524
  738POPI   C2B11008   1.191  -0.426   7.304  0.1589 -0.1284 -0.0162
  738POPI   C3B11009   1.315  -0.386   7.640  0.1126  0.0271 -0.4096
  738POPI   C4B11010   1.610  -0.121   7.919  0.2582  0.1205  0.0771
  739POPI    C111011   9.727  10.067   5.696  0.1740  0.0508  0.0278
  739POPI    C211012   9.789   9.676   5.636  0.0783  0.0423 -0.0164
  739POPI    C311013   9.726   9.919   5.324  0.1190  0.0899  0.0123
  739POPI   PO411014   9.917  10.163   5.890  0.1156  0.0172 -0.1034
  739POPI   GL111015  10.119   9.828   6.173  0.1808  0.1094 -0.0229
  739POPI   GL211016   9.796   9.733   6.160 -0.1398  0.0718 -0.1481
  739POPI   C1A11017  10.371   9.905   6.549 -0.0995  0.2659 -0.0828
  739POPI   D2A11018  10.582   9.804   6.971 -0.0880 -0.0563 -0.1045
  739POPI   C3A11019  10.441  10.044   7.351 -0.1395  0.0921  0.1686
  739POPI   C4A11020  10.342  10.300   7.810 -0.2293  0.1286 -0.0856
  739POPI   C1B11021   9.781  10.040   6.526  0.0940  0.3018 -0.1480
  739POPI   C2B11022   9.548   9.886   6.824 -0.0236 -0.0555  0.2951
  739POPI   C3B11023   9.197  10.093   7.009 -0.1498  0.3486  0.1160
  739POPI   C4B11024   8.847  10.090   6.880  0.0742 -0.1881  0.0318
  740POPI    C111025   6.870  11.204   5.754 -0.0542 -0.2099  0.1363
  740POPI    C211026   6.846  10.834   5.604  0.1529 -0.1499 -0.0516
  740POPI    C311027   6.759  11.149   5.374 -0.1113 -0.0831  0.1340
  740POPI   PO411028   7.020  11.117   6.017 -0.0280 -0.0025  0.1338
  740POPI   GL111029   7.160  11.257   6.308  0.0196  0.1450 -0.0066
  740POPI   GL211030   6.942  11.557   6.236  0.2258  0.1658 -0.1051
  740POPI   C1A11031   7.073  11.256   6.698 -0.6214 -0.0793 -0.1852
  740POPI   D2A11032   7.283  11.473   7.021  0.4823  0.4128 -0.1383
  740POPI   C3A11033   7.218  11.713   7.369  0.1071 -0.1962 -0.2114
  740POPI   C4A11034   7.498  11.936   7.573  0.0818  0.2595  0.1256
  740POPI   C1B11035   6.961  11.788   6.673 -0.0607 -0.1368  0.0844
  740POPI   C2B11036   6.928  12.082   7.043 -0.0041  0.0200 -0.0738
  740POPI   C3B11037   6.994  12.179   7.326 -0.0175 -0.2101 -0.0830
  740POPI   C4B11038   7.082  12.352   7.695 -0.0433  0.0810  0.0663
  741POPS   CNO11039   9.631   6.477   5.856  0.0441 -0.0764 -0.3594
  741POPS   PO411040   9.222   6.547   5.879  0.0332 -0.1968  0.1819
  741POPS   GL111041   9.259   6.508   6.284  0.1691 -0.2139 -0.1608
  741POPS   GL211042   8.970   6.601   6.468 -0.2384  0.1696 -0.2605
  741POPS   C1A11043   9.153   6.282   6.782  0.2447  0.0834  0.0595
  741POPS   D2A11044   9.188   6.492   7.262 -0.0138 -0.0717 -0.0948
  741POPS   C3A11045   9.539   6.807   7.474  0.1469  0.1605  0.0023
  741POPS   C4A11046   9.917   7.023   7.782  0.0697  0.0516 -0.2681
  741POPS   C1B11047   8.817   6.648   6.924 -0.1518 -0.1894 -0.1658
  741POPS   C2B11048   8.695   6.573   7.408  0.0728 -0.3584 -0.1446
  741POPS   C3B11049   8.684   6.235   7.638  0.0411 -0.0995  0.0247
  741POPS   C4B11050   8.795   6.172   8.050  0.2753 -0.0724  0.2852
  742POPS   CNO11051   4.517  13.553   5.487  0.0886 -0.0884 -0.0250
  742POPS   PO411052   4.186  13.692   5.880  0.2894 -0.4176  0.0537
  742POPS   GL111053   4.413  13.749   6.257  0.1154 -0.0028  0.3635
  742POPS   GL211054   4.738  13.897   6.404 -0.1267 -0.2433  0.1596
  742POPS   C1A11055   4.526  13.518   6.649 -0.1302  0.1063 -0.1113
  742POPS   D2A11056   4.565  13.307   7.024 -0.1066 -0.1896  0.1544
  742POPS   C3A11057   4.901  13.472   7.282 -0.1112 -0.0001  0.0412
  742POPS   C4A11058   5.134  13.603   7.640 -0.0127  0.0165  0.1260
  742POPS   C1B11059   4.953  13.685   6.761  0.0902  0.1090 -0.0733
  742POPS   C2B11060   5.279  13.597   6.987  0.1900  0.0679  0.0123
  742POPS   C3B11061   5.580  13.564   7.449 -0.0319  0.2133  0.4603
  742POPS   C4B11062   5.489  13.271   7.764 -0.0608 -0.1011  0.4011
  743POPS   CNO11063  16.299   0.094   5.674 -0.2085 -0.3573 -0.0621
  743POPS   PO411064  16.372   0.313   6.116 -0.0638 -0.2283  0.2585
  743POPS   GL111065  16.607   0.389   6.528 -0.0134  0.0551 -0.0723
  743POPS   GL211066  16.686   0.732   6.553  0.0205  0.1551  0.1800
  743POPS   C1A11067  16.634   0.357   6.918  0.1896 -0.4377  0.1854
  743POPS   D2A11068  16.460   0.329   7.364  0.1374  0.2409 -0.3857
  743POPS   C3A11069  16.439   0.766   7.600 -0.0158  0.0024 -0.1562
  743POPS   C4A11070  16.198   0.955   7.976 -0.2929  0.2131  0.0029
  743POPS   C1B11071  16.903   1.045   6.816  0.1826 -0.0620  0.1888
  743POPS   C2B11072  16.969   1.165   7.214  0.0237 -0.0234  0.1309
  743POPS   C3B11073  17.082   1.503   7.527 -0.1859 -0.2931 -0.1187
  743POPS   C4B11074  17.031   1.583   7.891  0.2251 -0.0016 -0.0747
  744POPS   CNO11075  16.645  17.758   6.032  0.2540 -0.2799  0.0614
  744POPS   PO411076  17.087  17.526   6.060  0.1222  0.0195  0.0114
  744POPS   GL111077  17.258  17.579   6.525 -0.0493 -0.0814  0.0579
  744POPS   GL211078  17.331  17.228   6.755 -0.0455 -0.0188  0.5005
  744POPS   C1A11079  17.115  17.591   6.974  0.1920 -0.1614  0.0379
  744POPS   D2A11080  17.159  17.787   7.315 -0.0591 -0.3940 -0.1806
  744POPS   C3A11081  16.954  18.167   7.387  0.2595 -0.0651  0.0532
  744POPS   C4A11082  16.902  18.500   7.709  0.2574 -0.1168  0.0115
  744POPS   C1B11083  17.568  17.330   7.086  0.2945 -0.0800 -0.1286
  744POPS   C2B11084  17.486  17.318   7.452 -0.0119 -0.1269  0.1479
  744POPS   C3B11085  17.381  17.581   7.777 -0.3315 -0.0064  0.0389
  744POPS   C4B11086  17.434  17.924   7.952  0.1456 -0.2232 -0.1809
  745POPS   CNO11087  14.707   5.912   5.838 -0.3387 -0.1684  0.3013
  745POPS   PO411088  14.615   5.484   5.901  0.0617  0.1113  0.0827
  745POPS   GL111089  14.864   5.573   6.254  0.0295  0.1587  0.2541
  745POPS   GL211090  15.168   5.457   6.249 -0.0392 -0.4899 -0.1823
  745POPS   C1A11091  14.934   5.472   6.651  0.0404 -0.1584 -0.2790
  745POPS   D2A11092  15.078   5.570   6.979  0.2955  0.1498 -0.0489
  745POPS   C3A11093  14.868   5.368   7.238  0.1162  0.0846 -0.1773
  745POPS   C4A11094  14.936   5.117   7.749  0.2712  0.0943 -0.2217
  745POPS   C1B11095  15.460   5.628   6.561  0.0084 -0.1138  0.2322
  745POPS   C2B11096  15.699   5.624   6.952 -0.1617 -0.0013  0.0214
  745POPS   C3B11097  15.731   5.614   7.339 -0.1575 -0.0603 -0.0183
  745POPS   C4B11098  16.007   5.417   7.556 -0.0945 -0.0834  0.1819
  746POPS   CNO11099  12.144  12.069   5.764  0.0872  0.1727 -0.0153
  746POPS   PO411100  12.243  11.808   6.035 -0.2526  0.1539  0.0745
  746POPS   GL111101  12.553  11.813   6.420  0.1890  0.1868 -0.1747
  746POPS   GL211102  12.478  11.986   6.659  0.0636  0.1107  0.0989
  746POPS   C1A11103  12.703  11.585   6.856  0.2208  0.2134 -0.1056
  746POPS   D2A11104  12.679  11.380   7.150  0.2389  0.0722 -0.2965
  746POPS   C3A11105  13.008  11.141   7.312  0.0307 -0.1589 -0.0067
  746POPS   C4A11106  13.348  10.880   7.444 -0.2098 -0.0767 -0.6322
  746POPS   C1B11107  12.303  12.228   6.927 -0.0852 -0.0212 -0.4106
  746POPS   C2B11108  12.552  12.430   7.287 -0.0059  0.0277 -0.3228
  746POPS   C3B11109  12.768  12.699   7.560  0.1469  0.2366  0.1426
  746POPS   C4B11110  12.734  12.702   8.001  0.0915 -0.1968  0.0640
  747POPS   CNO11111   4.100   3.004   6.022 -0.0359  0.0427 -0.0468
  747POPS   PO411112   4.448   3.164   6.264  0.1141 -0.1061  0.0962
  747POPS   GL111113   4.455   3.382   6.667 -0.1279  0.2098  0.1758
  747POPS   GL211114   4.360   3.665   6.528 -0.1683 -0.3425  0.2643
  747POPS   C1A11115   4.457   3.466   7.077  0.0460  0.1518  0.2912
  747POPS   D2A11116   4.537   3.885   7.371  0.0367 -0.0969 -0.2262
  747POPS   C3A11117   4.399   3.959   7.685 -0.0100  0.0329 -0.2554
  747POPS   C4A11118   4.002   4.221   7.829  0.4668 -0.3191  0.2995
  747POPS   C1B11119   4.143   3.744   6.832  0.0634 -0.2054 -0.1869
  747POPS   C2B11120   4.094   3.582   7.369  0.2551 -0.0447 -0.1068
  747POPS   C3B11121   4.303   3.393   7.681 -0.1143 -0.3539  0.0761
  747POPS   C4B11122   4.579   3.309   7.550  0.0659 -0.0733  0.0703
  748POPS   CNO11123   9.218  17.270   5.636  0.0857  0.0428  0.0455
  748POPS   PO411124   9.228  17.293   5.997  0.1783 -0.2478 -0.0483
  748POPS   GL111125   9.306  17.314   6.493  0.3643  0.2239 -0.4014
  748POPS   GL211126   9.371  17.080   6.459 -0.0985  0.0705 -0.2300
  748POPS   C1A11127   9.219  17.437   6.898  0.0072  0.1867  0.0298
  748POPS   D2A11128   8.986  17.466   7.231  0.2469  0.0295 -0.0414
  748POPS   C3A11129   9.265  17.595   7.568 -0.2272 -0.1107  0.0249
  748POPS   C4A11130   9.406  17.619   8.003  0.1144  0.2157 -0.0985
  748POPS   C1B11131   9.115  16.911   6.762  0.0896  0.0659  0.1069
  748POPS   C2B11132   9.029  16.941   7.119 -0.0097 -0.1057 -0.1714
  748POPS   C3B11133   8.909  16.983   7.574 -0.2640 -0.0710  0.1662
  748POPS   C4B11134   8.888  16.742   7.980 -0.1364 -0.1272  0.1900
  749POPS   CNO11135   3.700   3.791   6.110 -0.1585  0.1907  0.0932
  749POPS   PO411136   3.409   4.131   5.977 -0.0636 -0.0450  0.0599
  749POPS   GL111137   3.295   4.199   6.349  0.1354  0.1548  0.1273
  749POPS   GL211138   3.576   4.261   6.454  0.0165 -0.1286  0.1353
  749POPS   C1A11139   3.239   3.869   6.618 -0.0991 -0.2409 -0.0287
  749POPS   D2A11140   3.089   3.936   7.080  0.2019  0.0118  0.4507
  749POPS   C3A11141   3.154   3.842   7.476  0.0628 -0.3561 -0.1327
  749POPS   C4A11142   3.224   3.933   7.778  0.1662 -0.0679  0.1271
  749POPS   C1B11143   3.674   4.047   6.837  0.1197  0.2055 -0.0898
  749POPS   C2B11144   3.481   4.239   7.196 -0.0205 -0.2961 -0.1351
  749POPS   C3B11145   3.562   4.414   7.615  0.3004  0.1053  0.0304
  749POPS   C4B11146   3.680   4.541   8.061  0.0249  0.0646  0.1057
  750POPS   CNO11147  10.805   5.548   6.016  0.3998 -0.0863  0.2822
  750POPS   PO411148  10.927   5.517   6.442 -0.2102  0.0533  0.3646
  750POPS   GL111149  10.618   5.495   6.668  0.1901  0.1099  0.0429
  750POPS   GL211150  10.511   5.789   6.921  0.0399  0.5774  0.1039
  750POPS   C1A11151  10.495   5.303   7.126  0.3105  0.0414  0.0069
  750POPS   D2A11152  10.734   5.179   7.394  0.1435  0.1105 -0.0728
  750POPS   C3A11153  10.786   5.161   7.940 -0.1965  0.6285  0.0912
  750POPS   C4A11154  10.896   4.801   8.101  0.2199  0.0635  0.0461
  750POPS   C1B11155  10.257   5.708   7.304 -0.2661 -0.1366 -0.1097
  750POPS   C2B11156  10.057   5.917   7.555 -0.1404 -0.1351  0.1684
  750POPS   C3B11157   9.749   5.739   7.850  0.0189 -0.1228  0.0126
  750POPS   C4B11158   9.314   5.744   8.043  0.1570  0.0477  0.0367
  751POPS   CNO11159   3.739  13.478   5.992  0.0434 -0.1722 -0.3109
  751POPS   PO411160   3.639  13.073   5.933 -0.0430  0.0159 -0.2913
  751POPS   GL111161   3.904  13.023   6.395 -0.0627 -0.1186 -0.1420
  751POPS   GL211162   4.161  13.278   6.238  0.0640  0.1165  0.2751
  751POPS   C1A11163   4.143  13.081   6.752  0.3161 -0.4065 -0.5497
  751POPS   D2A11164   4.149  12.940   7.200 -0.1786  0.1285  0.2033
  751POPS   C3A11165   4.306  13.119   7.572 -0.1255  0.1777  0.1612
  751POPS   C4A11166   4.686  13.320   7.796 -0.0383  0.0612 -0.1400
  751POPS   C1B11167   4.020  13.547   6.673 -0.0761  0.1066  0.2042
  751POPS   C2B11168   4.063  13.558   7.128  0.1790 -0.2321  0.0052
  751POPS   C3B11169   3.986  13.583   7.639 -0.0004  0.0790  0.2458
  751POPS   C4B11170   3.800  13.471   8.009 -0.0736 -0.0757 -0.2143
  752POPS   CNO11171   4.711  11.031   5.979  0.1312  0.0350 -0.3239
  752POPS   PO411172   4.267  11.000   5.824  0.0794  0.0708 -0.1151
  752POPS   GL111173   4.278  10.939   6.336 -0.1095  0.7993  0.1679
  752POPS   GL211174   4.470  10.937   6.565 -0.1014  0.2286 -0.1879
  752POPS   C1A11175   4.205  10.524   6.545  0.0026  0.0209  0.2636
  752POPS   D2A11176   4.199  10.141   6.684  0.1820 -0.0102 -0.0023
  752POPS   C3A11177   4.096  10.209   7.067 -0.0664 -0.0804 -0.1486
  752POPS   C4A11178   4.009  10.025   7.411  0.1004  0.0370 -0.0640
  752POPS   C1B11179   4.487  11.161   7.006 -0.0472 -0.2186  0.2408
  752POPS   C2B11180   4.620  11.258   7.393  0.0185 -0.2017  0.1579
  752POPS   C3B11181   4.575  11.461   7.779  0.0974 -0.3727  0.3551
  752POPS   C4B11182   4.337  11.739   7.989  0.1053  0.0466 -0.4457
  753POPS   CNO11183  13.240   8.839   5.886  0.0373  0.1134  0.2045
  753POPS   PO411184  12.995   8.653   5.610  0.2300  0.1483  0.0172
  753POPS   GL111185  12.788   8.679   6.099 -0.1663  0.0690 -0.1704
  753POPS   GL211186  13.012   8.758   6.347 -0.2119  0.0236 -0.0103
  753POPS   C1A11187  12.471   8.970   6.165 -0.1070  0.0972 -0.2141
  753POPS   D2A11188  12.214   9.198   6.465 -0.2475 -0.0881  0.1749
  753POPS   C3A11189  12.055   8.951   6.819  0.0236  0.1153 -0.4095
  753POPS   C4A11190  12.244   8.939   7.151 -0.1605 -0.3650  0.0985
  753POPS   C1B11191  13.052   8.762   6.773 -0.1222 -0.2777  0.0671
  753POPS   C2B11192  13.249   8.677   7.134  0.3917 -0.0889 -0.0889
  753POPS   C3B11193  13.293   8.717   7.570  0.0786  0.0712 -0.0154
  753POPS   C4B11194  13.555   8.846   7.933  0.0615 -0.0038 -0.0914
  754POPS   CNO11195   2.629  15.974   6.130 -0.0777 -0.4331  0.1551
  754POPS   PO411196   2.690  16.342   5.802  0.1434 -0.2347  0.0851
  754POPS   GL111197   2.774  16.420   6.198  0.0873 -0.0268  0.1659
  754POPS   GL211198   3.075  16.308   6.133 -0.0422  0.0659 -0.1861
  754POPS   C1A11199   2.693  16.262   6.630 -0.0216 -0.1112 -0.0957
  754POPS   D2A11200   2.477  16.474   6.850 -0.1497  0.0307  0.1561
  754POPS   C3A11201   2.643  16.653   7.295  0.0428  0.2626  0.1014
  754POPS   C4A11202   2.761  16.864   7.639 -0.0794  0.0517 -0.1629
  754POPS   C1B11203   3.429  16.401   6.346  0.3073 -0.1724 -0.1013
  754POPS   C2B11204   3.638  16.802   6.556 -0.1750  0.1460  0.3630
  754POPS   C3B11205   3.923  17.039   6.656  0.0623  0.1541  0.2952
  754POPS   C4B11206   4.325  17.240   6.638 -0.0458  0.0040  0.1169
  755POPS   CNO11207   7.877  13.837   5.769  0.2888  0.0383 -0.3566
  755POPS   PO411208   8.227  13.760   5.931  0.2156  0.2047  0.0380
  755POPS   GL111209   8.322  13.577   6.169  0.1493 -0.1375  0.1340
  755POPS   GL211210   8.548  13.691   6.376  0.0497  0.2042 -0.0335
  755POPS   C1A11211   8.094  13.484   6.538  0.3099 -0.1939 -0.1895
  755POPS   D2A11212   7.772  13.412   6.750 -0.2833  0.0962  0.0196
  755POPS   C3A11213   7.548  13.496   7.117 -0.1624  0.1007 -0.3479
  755POPS   C4A11214   7.382  13.503   7.508  0.0875  0.3808  0.0890
  755POPS   C1B11215   8.485  13.780   6.735 -0.1073 -0.2867 -0.2089
  755POPS   C2B11216   8.656  13.750   7.159 -0.2275  0.0477  0.1193
  755POPS   C3B11217   8.758  13.934   7.540  0.2272  0.1968 -0.2163
  755POPS   C4B11218   9.105  14.199   7.647 -0.3520 -0.2085 -0.2449
  756POPS   CNO11219   5.525  13.172   5.445 -0.0363 -0.0988 -0.1624
  756POPS   PO411220   5.235  13.265   5.767  0.1158 -0.3821 -0.1610
  756POPS   GL111221   5.231  13.443   6.118 -0.2758  0.0263  0.0391
  756POPS   GL211222   5.369  13.085   6.252  0.2878 -0.0946 -0.0515
  756POPS   C1A11223   5.385  13.634   6.522  0.0845  0.3387 -0.1581
  756POPS   D2A11224   5.698  13.793   6.890 -0.1201  0.1957  0.1678
  756POPS   C3A11225   5.824  14.053   7.241 -0.1822  0.1148 -0.2066
  756POPS   C4A11226   5.743  14.407   7.373 -0.1499  0.0729 -0.0093
  756POPS   C1B11227   5.502  12.979   6.636 -0.0030  0.0421  0.0909
  756POPS   C2B11228   5.706  12.618   6.853 -0.1531  0.1321  0.1746
  756POPS   C3B11229   6.071  12.669   7.093 -0.1124 -0.3446  0.1412
  756POPS   C4B11230   6.468  12.949   7.317 -0.1860  0.0585  0.0196
  757POPS   CNO11231  14.652   2.647   5.358 -0.1063 -0.0266 -0.0384
  757POPS   PO411232  14.609   2.559   5.806  0.1565  0.0450 -0.0434
  757POPS   GL111233  14.608   2.630   6.304  0.0192 -0.3181  0.2646
  757POPS   GL211234  14.330   2.704   6.563 -0.0231 -0.0736  0.0654
  757POPS   C1A11235  14.656   2.318   6.669  0.0811  0.2735  0.0979
  757POPS   D2A11236  14.740   2.224   7.125  0.1200  0.0761  0.3380
  757POPS   C3A11237  14.761   1.853   7.375  0.0385  0.0287 -0.2637
  757POPS   C4A11238  14.598   1.693   7.814  0.1789 -0.2043  0.2676
  757POPS   C1B11239  14.453   2.633   6.975  0.1125 -0.1349  0.0111
  757POPS   C2B11240  14.641   2.716   7.382 -0.0988  0.0407  0.0675
  757POPS   C3B11241  14.922   2.948   7.630  0.1745 -0.1939  0.0800
  757POPS   C4B11242  15.197   2.907   8.015 -0.3720  0.1064  0.0688
  758POPS   CNO11243   7.845   0.912   5.290  0.2404 -0.0610  0.0404
  758POPS   PO411244   7.862   0.509   5.545  0.1562 -0.0106  0.1475
  758POPS   GL111245   7.917   0.506   5.961 -0.1360  0.1322  0.2336
  758POPS   GL211246   7.704   0.441   6.195  0.1523  0.1628  0.4772
  758POPS   C1A11247   8.209   0.734   6.267  0.0543 -0.1098  0.1328
  758POPS   D2A11248   8.482   0.667   6.614  0.2651 -0.4438 -0.3994
  758POPS   C3A11249   8.452   0.735   7.001 -0.1654 -0.3088  0.1447
  758POPS   C4A11250   8.297   0.718   7.382 -0.1753 -0.0114  0.4478
  758POPS   C1B11251   7.778   0.763   6.495  0.2004 -0.2252 -0.1532
  758POPS   C2B11252   7.957   0.783   6.827  0.2130  0.1725  0.0646
  758POPS   C3B11253   7.836   0.795   7.280  0.0284  0.1660 -0.2849
  758POPS   C4B11254   7.861   0.840   7.731 -0.0151 -0.2861  0.3500
  759POPS   CNO11255   4.635   7.138   5.766 -0.0118 -0.2342  0.2168
  759POPS   PO411256   4.741   7.598   5.802 -0.0956  0.0116  0.0095
  759POPS   GL111257   4.703   7.432   6.243 -0.1767 -0.0623  0.0220
  759POPS   GL211258   4.399   7.528   6.450  0.0436 -0.1022  0.2957
  759POPS   C1A11259   4.667   7.107   6.627 -0.0594 -0.1232 -0.1580
  759POPS   D2A11260   4.771   6.536   6.624  0.1622  0.1745 -0.2139
  759POPS   C3A11261   4.679   6.341   6.931  0.1183  0.2496  0.2685
  759POPS   C4A11262   4.650   6.368   7.346 -0.2812 -0.2659  0.0217
  759POPS   C1B11263   4.849   7.682   6.645  0.2610  0.1148 -0.0779
  759POPS   C2B11264   5.181   7.828   6.874  0.2265 -0.3544 -0.0680
  759POPS   C3B11265   5.359   8.109   7.189  0.0648 -0.0967  0.1700
  759POPS   C4B11266   5.426   8.579   7.164 -0.2488 -0.1105 -0.2317
  760POPS   CNO11267  15.014   6.877   5.629  0.0604  0.0396  0.2439
  760POPS   PO411268  15.124   7.220   5.922 -0.0178  0.4398  0.0330
  760POPS   GL111269  15.280   7.193   6.312  0.4228  0.0374  0.2232
  760POPS   GL211270  14.911   7.105   6.385  0.0931 -0.1322  0.3023
  760POPS   C1A11271  15.421   7.200   6.708 -0.4828 -0.0372  0.1294
  760POPS   D2A11272  15.497   7.186   7.151  0.0360 -0.0689  0.3001
  760POPS   C3A11273  15.513   7.479   7.461 -0.0953  0.0229  0.2819
  760POPS   C4A11274  15.026   7.741   7.542 -0.0644  0.1033  0.0722
  760POPS   C1B11275  14.961   7.028   6.851 -0.1201  0.0608  0.1176
  760POPS   C2B11276  14.880   6.814   7.246 -0.1183  0.0983 -0.0729
  760POPS   C3B11277  14.761   7.035   7.588 -0.2934  0.0208  0.1600
  760POPS   C4B11278  15.070   7.289   7.746 -0.0832 -0.0880  0.5074
  761POPS   CNO11279   0.021   4.124   5.391 -0.2789  0.2450 -0.0180
  761POPS   PO411280   0.049   3.677   5.562  0.0205  0.0144  0.2295
  761POPS   GL111281   0.131   3.615   5.976 -0.2764  0.0077  0.0034
  761POPS   GL211282   0.385   3.720   6.082  0.0992  0.2208  0.1455
  761POPS   C1A11283   0.109   3.425   6.388  0.1055  0.0254  0.3932
  761POPS   D2A11284   0.137   3.358   6.792  0.2619 -0.2067  0.2486
  761POPS   C3A11285  -0.242   3.170   6.752  0.0157 -0.0091  0.2285
  761POPS   C4A11286  -0.514   3.022   6.416 -0.0531  0.0263  0.2047
  761POPS   C1B11287   0.667   3.818   6.390 -0.3028 -0.0203 -0.0710
  761POPS   C2B11288   0.583   3.654   6.839 -0.3290 -0.1575  0.4274
  761POPS   C3B11289   0.658   3.642   7.363 -0.2464  0.0260 -0.1696
  761POPS   C4B11290   0.577   3.955   7.601 -0.2936 -0.0102 -0.0007
  762POPS   CNO11291   0.243   5.553   5.417  0.1332  0.1339 -0.0420
  762POPS   PO411292   0.455   5.519   5.758  0.0919 -0.2431  0.1262
  762POPS   GL111293   0.354   5.528   6.186 -0.3046  0.0174 -0.1537
  762POPS   GL211294   0.419   5.202   6.197  0.0255  0.0117 -0.0296
  762POPS   C1A11295   0.285   5.646   6.585  0.1329  0.1324  0.1746
  762POPS   D2A11296   0.148   5.714   6.973 -0.2869 -0.2575 -0.1443
  762POPS   C3A11297   0.274   5.817   7.413 -0.1237  0.0404  0.2649
  762POPS   C4A11298   0.566   5.859   7.704 -0.0423 -0.1099  0.0842
  762POPS   C1B11299   0.152   5.167   6.551 -0.0804 -0.2472 -0.0187
  762POPS   C2B11300  -0.049   4.999   6.828  0.1234 -0.0255 -0.1213
  762POPS   C3B11301  -0.328   5.009   7.157  0.1081  0.1578 -0.1395
  762POPS   C4B11302  -0.575   5.125   7.519  0.1213  0.1136  0.5520
  763POPS   CNO11303   1.839   1.103   5.134 -0.0424 -0.0271 -0.1840
  763POPS   PO411304   1.878   0.895   5.527 -0.3404 -0.0659 -0.0725
  763POPS   GL111305   1.906   0.883   6.003 -0.0328 -0.1108 -0.0471
  763POPS   GL211306   2.226   0.763   6.272 -0.0203 -0.0233  0.1453
  763POPS   C1A11307   1.729   0.833   6.470 -0.1477 -0.0426  0.1599
  763POPS   D2A11308   1.801   1.107   6.690 -0.0299  0.1221  0.0802
  763POPS   C3A11309   1.471   1.173   6.993 -0.2985 -0.0848  0.0811
  763POPS   C4A11310   1.168   1.355   7.298  0.0083  0.1624  0.0372
  763POPS   C1B11311   2.304   0.903   6.622  0.3526 -0.1616 -0.1344
  763POPS   C2B11312   2.175   1.022   7.015 -0.1078  0.0554  0.2975
  763POPS   C3B11313   1.865   1.225   7.270 -0.1399  0.0443 -0.2719
  763POPS   C4B11314   1.569   1.234   7.559  0.0427  0.0847  0.1000
  764POPS   CNO11315  14.628   4.812   5.894 -0.1086  0.1418  0.3195
  764POPS   PO411316  14.999   4.553   5.963  0.1053 -0.2210 -0.1249
  764POPS   GL111317  14.791   4.638   6.387  0.7467 -0.1564  0.1758
  764POPS   GL211318  14.462   4.648   6.460 -0.1786  0.0666  0.2903
  764POPS   C1A11319  14.885   4.752   6.864 -0.1311  0.0596  0.1473
  764POPS   D2A11320  14.906   4.810   7.282  0.3344  0.1640 -0.0773
  764POPS   C3A11321  15.341   4.835   7.521 -0.1381  0.0194 -0.2032
  764POPS   C4A11322  15.719   4.557   7.507 -0.1984  0.2413  0.0647
  764POPS   C1B11323  14.255   4.590   6.853 -0.3516  0.1644  0.1752
  764POPS   C2B11324  14.441   4.609   7.259 -0.0377 -0.0895 -0.1097
  764POPS   C3B11325  14.411   4.748   7.666 -0.0065  0.0969  0.2015
  764POPS   C4B11326  14.622   4.838   8.092  0.0046 -0.0379  0.0319
  765POPS   CNO11327  15.095  13.482   6.280  0.1190  0.2437 -0.3628
  765POPS   PO411328  14.849  13.919   6.249  0.0242 -0.1545 -0.2014
  765POPS   GL111329  14.748  13.752   6.776  0.0332 -0.0693 -0.0080
  765POPS   GL211330  14.778  13.467   6.853  0.1737  0.0872  0.0962
  765POPS   C1A11331  14.816  14.013   7.134  0.1311 -0.2695 -0.1255
  765POPS   D2A11332  14.893  13.980   7.532  0.0516 -0.0110 -0.1585
  765POPS   C3A11333  14.757  14.127   7.988 -0.0276 -0.0737 -0.0147
  765POPS   C4A11334  14.854  14.221   8.391  0.0597 -0.0157 -0.2567
  765POPS   C1B11335  14.743  13.201   7.245 -0.0425 -0.0095  0.3743
  765POPS   C2B11336  14.817  12.958   7.649  0.0903 -0.0844  0.1025
  765POPS   C3B11337  14.743  12.839   8.107  0.0979  0.1158  0.3701
  765POPS   C4B11338  14.622  13.199   8.472  0.2728 -0.1178 -0.2096
  766POPS   CNO11339   5.689  16.266   5.734 -0.3133  0.2070  0.2265
  766POPS   PO411340   5.412  16.253   6.069 -0.1409 -0.2234  0.1554
  766POPS   GL111341   5.267  16.215   6.423 -0.2585 -0.2096  0.1101
  766POPS   GL211342   5.387  16.437   6.599  0.5714  0.3276 -0.2337
  766POPS   C1A11343   5.195  16.055   6.881 -0.3629 -0.1267 -0.0945
  766POPS   D2A11344   5.266  16.036   7.285 -0.2295 -0.2063  0.0805
  766POPS   C3A11345   5.035  16.022   7.627  0.0770  0.1676 -0.0805
  766POPS   C4A11346   5.106  16.172   7.975 -0.0400 -0.1497 -0.1643
  766POPS   C1B11347   5.377  16.554   7.046 -0.0205 -0.1941 -0.0254
  766POPS   C2B11348   5.112  16.568   7.518 -0.0423 -0.0039 -0.1187
  766POPS   C3B11349   5.062  16.694   7.933 -0.1461 -0.1584  0.1075
  766POPS   C4B11350   4.717  16.870   8.297 -0.1251 -0.1999 -0.4559
  767POPS   CNO11351   6.266  15.535   5.720 -0.3641  0.1940  0.3194
  767POPS   PO411352   6.104  15.441   6.063 -0.1094 -0.0532 -0.2759
  767POPS   GL111353   6.070  15.785   6.481  0.0181 -0.1346  0.0314
  767POPS   GL211354   6.241  15.998   6.537  0.2706 -0.0464  0.0300
  767POPS   C1A11355   6.120  15.739   6.929 -0.2616  0.1141 -0.1072
  767POPS   D2A11356   6.189  16.002   7.299 -0.0397 -0.0200 -0.4237
  767POPS   C3A11357   6.138  15.771   7.620 -0.0187  0.1922 -0.0235
  767POPS   C4A11358   6.167  15.681   8.009 -0.0624 -0.0063 -0.0743
  767POPS   C1B11359   6.286  16.312   6.899  0.1877 -0.1309 -0.0623
  767POPS   C2B11360   6.439  16.385   7.253 -0.0507 -0.2446  0.0434
  767POPS   C3B11361   6.575  16.423   7.642  0.1550  0.2054 -0.0848
  767POPS   C4B11362   6.447  16.604   7.943 -0.1717 -0.1042 -0.0948
  768POPS   CNO11363   0.215   0.327   6.563 -0.1782  0.1888  0.0279
  768POPS   PO411364   0.233   0.014   6.170 -0.0104 -0.0597  0.0998
  768POPS   GL111365  -0.025  -0.108   6.550 -0.2518 -0.1600 -0.0560
  768POPS   GL211366  -0.339  -0.129   6.461 -0.3479 -0.1023  0.2763
  768POPS   C1A11367  -0.033   0.143   6.942  0.0175  0.0071  0.2075
  768POPS   D2A11368   0.064   0.146   7.463 -0.0033  0.1900  0.2640
  768POPS   C3A11369  -0.169   0.322   7.770 -0.0889  0.2407 -0.3854
  768POPS   C4A11370  -0.100   0.555   8.133 -0.1517  0.1722  0.6628
  768POPS   C1B11371  -0.436  -0.158   6.904 -0.0921 -0.0495 -0.0413
  768POPS   C2B11372  -0.337  -0.187   7.365  0.0449 -0.0671 -0.1412
  768POPS   C3B11373  -0.117  -0.234   7.791  0.0409 -0.0635  0.0564
  768POPS   C4B11374   0.189   0.008   8.130 -0.2823 -0.3140 -0.2653
  769POPS   CNO11375  14.710   3.908   5.842  0.0747 -0.0561 -0.2520
  769POPS   PO411376  15.069   3.983   6.022 -0.0459  0.0391  0.1966
  769POPS   GL111377  14.913   4.103   6.425  0.0201  0.0268  0.1813
  769POPS   GL211378  14.581   4.167   6.569 -0.1312  0.0287  0.1037
  769POPS   C1A11379  15.050   4.320   6.688 -0.0296  0.2530 -0.1326
  769POPS   D2A11380  15.292   4.499   7.084  0.3833 -0.6054 -0.2933
  769POPS   C3A11381  15.271   4.311   7.633 -0.4954 -0.1621  0.0022
  769POPS   C4A11382  15.187   4.184   8.115  0.3512  0.2307 -0.2131
  769POPS   C1B11383  14.681   4.280   6.971  0.1998 -0.0615  0.0063
  769POPS   C2B11384  14.863   4.332   7.342  0.2170 -0.0637  0.2011
  769POPS   C3B11385  14.893   4.608   7.749  0.1815 -0.2624 -0.0798
  769POPS   C4B11386  15.230   4.702   8.022 -0.0546  0.0244  0.3995
  770POPS   CNO11387  15.331   9.987   6.349 -0.2570 -0.1498 -0.1237
  770POPS   PO411388  15.839   9.880   6.456  0.1909 -0.0208 -0.0188
  770POPS   GL111389  16.105   9.934   6.687 -0.2501  0.2575 -0.0226
  770POPS   GL211390  15.903   9.864   6.951 -0.4701 -0.3310 -0.0830
  770POPS   C1A11391  16.419   9.746   6.967 -0.0510 -0.1795  0.2703
  770POPS   D2A11392  16.792   9.563   7.198  0.3294 -0.1117 -0.2518
  770POPS   C3A11393  16.776   9.593   7.585  0.2173 -0.0571 -0.1457
  770POPS   C4A11394  16.614   9.374   7.917 -0.0762  0.1421  0.3112
  770POPS   C1B11395  15.893   9.669   7.425  0.0563  0.0982  0.2560
  770POPS   C2B11396  15.620   9.674   7.748  0.0792  0.0819  0.0806
  770POPS   C3B11397  15.306   9.919   7.826  0.0019  0.2367 -0.1489
  770POPS   C4B11398  15.129  10.059   8.167 -0.0098  0.1082 -0.2915
  771POPS   CNO11399   3.723  12.113   5.737 -0.1324 -0.3122 -0.1769
  771POPS   PO411400   3.340  11.996   5.695  0.1426 -0.1971 -0.0850
  771POPS   GL111401   3.317  12.124   6.155 -0.2573 -0.2512 -0.1114
  771POPS   GL211402   3.024  12.071   6.410 -0.0228  0.3010 -0.0132
  771POPS   C1A11403   3.364  12.440   6.470  0.0476  0.0310 -0.1484
  771POPS   D2A11404   3.223  12.695   6.708 -0.3122 -0.3083 -0.2989
  771POPS   C3A11405   3.312  12.834   7.134  0.4439  0.0022 -0.1542
  771POPS   C4A11406   3.336  13.172   7.474  0.2977 -0.0893  0.0885
  771POPS   C1B11407   3.103  11.939   6.824 -0.1453  0.0577 -0.0035
  771POPS   C2B11408   3.038  11.742   7.241 -0.0281 -0.2870 -0.2902
  771POPS   C3B11409   3.058  11.886   7.613  0.3919 -0.0183 -0.0880
  771POPS   C4B11410   2.928  11.907   8.034 -0.2141  0.1691 -0.0787
  772POPS   CNO11411  17.451  14.785   6.276  0.2906  0.3888 -0.5621
  772POPS   PO411412  17.016  14.592   6.326 -0.0799 -0.0017 -0.0610
  772POPS   GL111413  16.892  14.866   6.627 -0.0999  0.0896  0.2228
  772POPS   GL211414  17.203  14.969   6.676  0.1088 -0.1831  0.0532
  772POPS   C1A11415  16.825  14.822   7.075  0.1118  0.0114  0.1601
  772POPS   D2A11416  16.950  14.973   7.531 -0.1703 -0.0070  0.3184
  772POPS   C3A11417  16.927  14.842   8.011 -0.1260  0.5356 -0.0386
  772POPS   C4A11418  17.281  14.894   8.318  0.2607  0.0813 -0.2315
  772POPS   C1B11419  17.282  14.668   6.924  0.4060  0.1578 -0.3500
  772POPS   C2B11420  17.189  14.486   7.308  0.1923 -0.3516  0.0577
  772POPS   C3B11421  16.847  14.455   7.636  0.0331 -0.0923  0.2346
  772POPS   C4B11422  16.577  14.481   7.925  0.0448  0.0235  0.1822
  773POPS   CNO11423   9.642  11.458   5.862 -0.1367  0.0373 -0.1045
  773POPS   PO411424   9.419  11.817   6.106 -0.0627  0.1204 -0.2284
  773POPS   GL111425   9.212  11.662   6.417  0.1790  0.0149  0.3445
  773POPS   GL211426   9.006  11.523   6.377  0.0733 -0.0182  0.0649
  773POPS   C1A11427   9.380  11.827   6.859 -0.2852 -0.0320  0.1512
  773POPS   D2A11428   9.511  11.974   7.124  0.1321 -0.0435  0.1743
  773POPS   C3A11429   9.408  11.766   7.510 -0.1761 -0.1046 -0.1800
  773POPS   C4A11430   9.767  11.727   7.747 -0.3759  0.1654 -0.2257
  773POPS   C1B11431   8.908  11.484   6.693  0.3127 -0.1512  0.0139
  773POPS   C2B11432   8.679  11.434   7.038 -0.1708 -0.4832  0.0670
  773POPS   C3B11433   8.412  11.339   7.278 -0.0671  0.0302  0.2907
  773POPS   C4B11434   8.138  11.457   7.477  0.1014  0.1167  0.0278
  774POPS   CNO11435  11.032   3.935   5.736 -0.0913 -0.1726  0.1052
  774POPS   PO411436  10.760   3.784   6.118  0.3057 -0.1682  0.2095
  774POPS   GL111437  10.649   3.927   6.461 -0.0905 -0.0071 -0.2789
  774POPS   GL211438  10.769   4.162   6.527  0.0609 -0.0021  0.1495
  774POPS   C1A11439  10.634   3.813   6.926 -0.1063 -0.5115  0.0803
  774POPS   D2A11440  10.624   3.826   7.352  0.2058 -0.0754  0.1721
  774POPS   C3A11441  10.500   3.600   7.782 -0.1915 -0.1112 -0.0010
  774POPS   C4A11442  10.379   3.477   8.228 -0.0741 -0.0064 -0.1419
  774POPS   C1B11443  10.857   4.349   6.939 -0.2013 -0.0954  0.1681
  774POPS   C2B11444  10.840   4.605   7.344  0.0089  0.0309 -0.1788
  774POPS   C3B11445  10.618   4.750   7.684 -0.0889 -0.1526 -0.4072
  774POPS   C4B11446  10.298   5.152   7.700  0.2625 -0.0332 -0.3086
  775POPS   CNO11447   1.689  13.378   6.028 -0.0857 -0.1973 -0.1460
  775POPS   PO411448   1.945  13.304   6.257  0.1232 -0.1984 -0.0879
  775POPS   GL111449   2.100  13.319   6.659  0.1409 -0.3963 -0.0161
  775POPS   GL211450   2.211  13.623   6.614  0.0064 -0.2304  0.2193
  775POPS   C1A11451   2.520  13.251   6.946  0.0577 -0.2183  0.0123
  775POPS   D2A11452   2.770  13.286   7.278 -0.0540  0.2184  0.1199
  775POPS   C3A11453   2.544  13.287   7.763 -0.0312  0.0665  0.1645
  775POPS   C4A11454   2.536  13.184   8.237  0.0255 -0.0387 -0.1184
  775POPS   C1B11455   2.156  13.616   7.097 -0.0435  0.1337 -0.0799
  775POPS   C2B11456   1.987  13.457   7.471 -0.2911 -0.0582 -0.0663
  775POPS   C3B11457   2.028  13.319   7.853 -0.2880  0.2064  0.0777
  775POPS   C4B11458   2.063  13.030   8.294  0.0677 -0.0318 -0.0242
  776POPS   CNO11459  14.872  17.262   5.993  0.2375 -0.2190  0.1067
  776POPS   PO411460  15.240  17.317   6.104 -0.3548  0.2153 -0.3422
  776POPS   GL111461  15.025  17.505   6.416  0.1220 -0.0506  0.0255
  776POPS   GL211462  14.874  17.251   6.661 -0.0719  0.2536 -0.1413
  776POPS   C1A11463  14.954  17.818   6.603 -0.1561  0.2039 -0.1978
  776POPS   D2A11464  14.874  17.929   7.030  0.0490 -0.0265  0.2215
  776POPS   C3A11465  15.175  18.062   7.391  0.0931  0.1364  0.3195
  776POPS   C4A11466  15.479  18.042   7.802  0.1029 -0.0862  0.1696
  776POPS   C1B11467  14.654  17.494   7.000  0.0245  0.2719 -0.0510
  776POPS   C2B11468  14.654  17.441   7.425 -0.0161 -0.1796  0.2062
  776POPS   C3B11469  14.591  17.181   7.742  0.0620  0.2380 -0.0384
  776POPS   C4B11470  14.613  16.800   7.990 -0.0417 -0.0550  0.0867
  777POPS   CNO11471  12.022   6.719   5.933  0.2031  0.2753  0.1776
  777POPS   PO411472  12.337   7.000   6.058  0.0944  0.2882  0.0165
  777POPS   GL111473  12.114   6.918   6.371  0.1234  0.1005 -0.1135
  777POPS   GL211474  12.193   6.559   6.453  0.1203 -0.0337 -0.1362
  777POPS   C1A11475  11.896   7.012   6.723 -0.0405 -0.1352  0.4598
  777POPS   D2A11476  11.918   7.042   7.146  0.2603  0.1625  0.0848
  777POPS   C3A11477  11.796   7.314   7.509  0.3346  0.0334 -0.0567
  777POPS   C4A11478  11.860   7.636   7.675 -0.1519  0.1815 -0.0209
  777POPS   C1B11479  12.153   6.491   6.775 -0.1599 -0.1258 -0.3247
  777POPS   C2B11480  12.163   6.483   7.186 -0.0539  0.1830 -0.1811
  777POPS   C3B11481  12.209   6.591   7.606  0.1708  0.0672 -0.0214
  777POPS   C4B11482  12.183   6.270   7.973 -0.0149 -0.1976 -0.0364
  778POPS   CNO11483   2.718   9.205   5.949 -0.0267  0.2430  0.1051
  778POPS   PO411484   2.356   8.868   5.765 -0.3494  0.0600  0.1176
  778POPS   GL111485   2.276   9.074   6.155  0.2887 -0.0575 -0.3176
  778POPS   GL211486   2.259   9.470   6.186  0.1028 -0.0044  0.0516
  778POPS   C1A11487   2.239   8.959   6.645  0.0014  0.1288  0.0609
  778POPS   D2A11488   2.105   8.860   7.049 -0.1006 -0.1821 -0.0180
  778POPS   C3A11489   2.457   8.680   7.368  0.3955 -0.1781 -0.4117
  778POPS   C4A11490   2.754   8.445   7.683 -0.1936 -0.1199  0.1844
  778POPS   C1B11491   2.288   9.547   6.596 -0.2087 -0.1346  0.1135
  778POPS   C2B11492   2.344   9.402   6.997  0.0858  0.0415  0.3167
  778POPS   C3B11493   2.538   9.158   7.308  0.1836 -0.1037  0.1179
  778POPS   C4B11494   2.716   9.022   7.697 -0.4431  0.1548  0.2805
  779POPS   CNO11495   0.214   6.764   5.564 -0.0773 -0.2102  0.0261
  779POPS   PO411496  -0.125   6.933   5.656  0.3501 -0.1876 -0.0467
  779POPS   GL111497  -0.327   7.031   6.075 -0.1069  0.1842  0.1585
  779POPS   GL211498  -0.648   7.046   5.957  0.2465  0.1159 -0.3579
  779POPS   C1A11499  -0.719   7.232   6.377 -0.4441 -0.0185 -0.1644
  779POPS   D2A11500  -1.088   7.102   6.169  0.0578 -0.0863  0.2024
  779POPS   C3A11501  -1.169   6.749   6.362  0.0020 -0.0133  0.3093
  779POPS   C4A11502  -1.286   6.367   6.431  0.0232 -0.0171 -0.0121
  779POPS   C1B11503  -0.718   6.659   6.230  0.1875  0.2199  0.3410
  779POPS   C2B11504  -0.883   6.499   6.680 -0.1003 -0.2954  0.1810
  779POPS   C3B11505  -1.218   6.342   7.047  0.1547  0.0898  0.4058
  779POPS   C4B11506  -1.311   6.221   7.488  0.1330  0.0659  0.1594
  780POPS   CNO11507  16.952   8.438   5.714 -0.1252  0.0837 -0.0595
  780POPS   PO411508  16.684   8.555   6.012 -0.2402  0.1408  0.0575
  780POPS   GL111509  16.376   8.527   6.396  0.4170 -0.0697 -0.0587
  780POPS   GL211510  16.610   8.692   6.540  0.3269 -0.3242  0.0814
  780POPS   C1A11511  16.164   8.885   6.736  0.1647  0.0250 -0.0369
  780POPS   D2A11512  16.148   8.914   7.244  0.1151  0.1022 -0.0410
  780POPS   C3A11513  16.305   8.689   7.448 -0.0365  0.2424 -0.0253
  780POPS   C4A11514  16.564   8.390   7.653  0.0466 -0.2560  0.2974
  780POPS   C1B11515  16.492   8.543   6.927 -0.1399  0.1876 -0.1689
  780POPS   C2B11516  16.541   8.167   7.115 -0.0310 -0.0652 -0.3401
  780POPS   C3B11517  16.424   7.932   7.446  0.1851  0.0909  0.0479
  780POPS   C4B11518  16.308   7.789   7.856  0.2110 -0.0048  0.0986
  781POPS   CNO11519   2.914   4.687   5.375  0.0942 -0.0460 -0.0451
  781POPS   PO411520   2.514   4.871   5.764  0.0410 -0.0445 -0.1966
  781POPS   GL111521   2.454   4.564   6.142 -0.0393 -0.2824  0.0425
  781POPS   GL211522   2.714   4.295   6.233 -0.2749  0.2000 -0.0841
  781POPS   C1A11523   2.439   4.564   6.564 -0.1560 -0.3987  0.2188
  781POPS   D2A11524   2.430   4.805   6.961 -0.3422  0.0213  0.1097
  781POPS   C3A11525   2.600   4.590   7.325 -0.0624 -0.1200  0.0190
  781POPS   C4A11526   2.855   4.709   7.716 -0.0051 -0.0338 -0.0487
  781POPS   C1B11527   2.647   3.811   6.481 -0.0968  0.0862  0.2275
  781POPS   C2B11528   2.648   3.653   6.813  0.1922 -0.0728 -0.0754
  781POPS   C3B11529   2.822   3.566   7.144 -0.0913  0.2544  0.3127
  781POPS   C4B11530   2.702   3.668   7.567 -0.0401 -0.2559  0.1996
  782POPS   CNO11531  11.052   9.494   5.608  0.1028 -0.2389 -0.2546
  782POPS   PO411532  10.910   9.205   5.377  0.1872  0.2504  0.3167
  782POPS   GL111533  10.740   9.096   5.734  0.2114  0.0668  0.0367
  782POPS   GL211534  10.914   9.297   6.025 -0.0185  0.3861 -0.1035
  782POPS   C1A11535  10.439   8.985   6.004 -0.3182 -0.2272  0.2178
  782POPS   D2A11536  10.291   8.995   6.467 -0.1131 -0.2027  0.1277
  782POPS   C3A11537  10.619   8.575   6.557 -0.0134 -0.1262  0.0956
  782POPS   C4A11538  10.541   8.213   6.845 -0.1674 -0.2210 -0.2400
  782POPS   C1B11539  10.783   9.071   6.438  0.3222  0.1675  0.2728
  782POPS   C2B11540  10.641   8.969   6.865  0.0399 -0.0825  0.2030
  782POPS   C3B11541  10.564   8.714   7.204 -0.4065 -0.1500  0.2358
  782POPS   C4B11542  10.370   8.609   7.612 -0.0952  0.0328  0.1212
  783POPS   CNO11543  11.443   7.996   5.563  0.0857  0.3027 -0.1769
  783POPS   PO411544  11.706   7.683   5.818 -0.0289 -0.1193 -0.0213
  783POPS   GL111545  11.620   7.735   6.136 -0.1038 -0.2457  0.0121
  783POPS   GL211546  11.869   7.948   6.267 -0.1341 -0.0161  0.4816
  783POPS   C1A11547  11.451   7.877   6.492 -0.0373 -0.2674  0.0866
  783POPS   D2A11548  11.507   8.208   6.679  0.2784  0.0832  0.0859
  783POPS   C3A11549  11.490   8.290   7.082  0.1881  0.3595 -0.3710
  783POPS   C4A11550  11.346   8.481   7.440 -0.1310  0.0095 -0.2075
  783POPS   C1B11551  11.919   7.939   6.729 -0.0020  0.1115 -0.0493
  783POPS   C2B11552  11.923   7.986   7.218  0.1495 -0.0099  0.0366
  783POPS   C3B11553  11.779   8.107   7.541  0.0668  0.0553  0.0722
  783POPS   C4B11554  11.678   8.023   7.900  0.2514 -0.0577  0.2532
  784POPS   CNO11555  13.779   4.885   5.457  0.3317 -0.3277  0.0129
  784POPS   PO411556  13.721   5.023   5.827  0.3596  0.1917 -0.0808
  784POPS   GL111557  13.561   4.891   6.172 -0.0362  0.0468 -0.4348
  784POPS   GL211558  13.713   5.197   6.344  0.1722 -0.1440  0.1420
  784POPS   C1A11559  13.568   4.446   6.169  0.0151 -0.0448  0.2086
  784POPS   D2A11560  13.122   4.392   6.056 -0.0285 -0.1831  0.1090
  784POPS   C3A11561  12.822   4.434   6.381 -0.0930  0.1236  0.0088
  784POPS   C4A11562  12.745   4.641   6.622  0.2042  0.2262 -0.1201
  784POPS   C1B11563  13.757   5.280   6.868 -0.0695 -0.1195  0.1018
  784POPS   C2B11564  13.610   5.233   7.217 -0.0029  0.0619  0.0725
  784POPS   C3B11565  13.489   5.205   7.672 -0.0391  0.0386  0.1219
  784POPS   C4B11566  13.281   5.093   8.059  0.3285  0.4323  0.2650
  785POPS   CNO11567  14.816  13.137   6.044 -0.2744 -0.0521  0.4402
  785POPS   PO411568  14.466  13.002   6.154  0.1246 -0.0554 -0.2247
  785POPS   GL111569  14.161  12.890   6.459  0.0083 -0.0265  0.4841
  785POPS   GL211570  13.955  12.989   6.530  0.1599  0.0961  0.1254
  785POPS   C1A11571  14.037  12.617   6.877  0.0526  0.0719  0.0306
  785POPS   D2A11572  13.713  12.459   7.209  0.0487  0.1933  0.0019
  785POPS   C3A11573  13.718  12.369   7.671  0.0964  0.1388  0.1232
  785POPS   C4A11574  13.729  12.120   8.051 -0.1047  0.1354  0.1848
  785POPS   C1B11575  13.858  13.247   6.718  0.0084  0.0250 -0.2496
  785POPS   C2B11576  13.792  13.283   7.136 -0.0248 -0.5079 -0.2203
  785POPS   C3B11577  13.628  13.304   7.559  0.0948  0.1088  0.0621
  785POPS   C4B11578  13.507  13.121   7.895  0.1052  0.0252 -0.0365
  786POPS   CNO11579   0.324   1.573   6.218 -0.0449 -0.0639  0.0200
  786POPS   PO411580   0.781   1.602   6.103 -0.1556  0.1961  0.1258
  786POPS   GL111581   1.001   1.565   6.490 -0.2282 -0.1407  0.2048
  786POPS   GL211582   1.275   1.463   6.364  0.1334 -0.1792  0.0533
  786POPS   C1A11583   1.166   1.689   6.854 -0.0957 -0.1246  0.2194
  786POPS   D2A11584   1.295   2.007   7.117  0.1577 -0.2813 -0.1423
  786POPS   C3A11585   1.015   1.900   7.495 -0.1768  0.0796  0.0187
  786POPS   C4A11586   0.778   1.501   7.665 -0.2158  0.2389  0.1548
  786POPS   C1B11587   1.602   1.522   6.625 -0.0327 -0.4787 -0.0452
  786POPS   C2B11588   1.622   1.644   7.157  0.0248 -0.4390  0.2680
  786POPS   C3B11589   1.570   1.740   7.532  0.2141  0.0267  0.1949
  786POPS   C4B11590   1.779   1.942   7.914 -0.3219 -0.1050  0.0252
  787POPS   CNO11591  17.218   9.570   6.504  0.3549  0.0162 -0.3077
  787POPS   PO411592  16.838   9.636   6.218  0.0285 -0.0467  0.1499
  787POPS   GL111593  16.681   9.499   6.563 -0.1084 -0.1557 -0.0939
  787POPS   GL211594  16.914   9.275   6.748  0.0071 -0.0873  0.0414
  787POPS   C1A11595  16.455   9.240   6.970  0.0702 -0.2422 -0.1696
  787POPS   D2A11596  16.319   9.361   7.421  0.0124  0.2511 -0.0276
  787POPS   C3A11597  16.150   9.016   7.793 -0.2807  0.0575  0.1076
  787POPS   C4A11598  15.872   8.734   8.114 -0.1521  0.0380  0.2816
  787POPS   C1B11599  17.192   9.282   7.117 -0.1893 -0.0598  0.2758
  787POPS   C2B11600  17.153   9.233   7.506 -0.1198 -0.0161  0.1250
  787POPS   C3B11601  17.121   9.090   7.918 -0.1069 -0.1089 -0.1603
  787POPS   C4B11602  16.870   8.888   8.110  0.2465 -0.3743  0.0300
  788POPS   CNO11603   3.248   3.121   5.855  0.0866 -0.1147 -0.1756
  788POPS   PO411604   3.074   2.921   6.072  0.1998  0.2963  0.1573
  788POPS   GL111605   3.142   2.980   6.380 -0.0449 -0.1324  0.2446
  788POPS   GL211606   2.937   2.787   6.565  0.2927 -0.0708 -0.3363
  788POPS   C1A11607   3.301   3.015   6.788 -0.1001 -0.0239 -0.1392
  788POPS   D2A11608   3.568   2.871   7.208  0.1169 -0.1646 -0.1069
  788POPS   C3A11609   3.678   3.208   7.586  0.1876  0.2925 -0.0811
  788POPS   C4A11610   3.790   3.138   8.021 -0.1023 -0.1677  0.2562
  788POPS   C1B11611   2.874   2.986   6.987  0.0287 -0.3046 -0.0310
  788POPS   C2B11612   2.728   3.166   7.431 -0.0990 -0.4638 -0.3709
  788POPS   C3B11613   2.813   3.345   7.849 -0.1546  0.1091 -0.0389
  788POPS   C4B11614   3.028   3.188   8.152 -0.1065 -0.0456  0.0328
  789POPS   CNO11615   3.458  11.303   6.311  0.2641 -0.4071 -0.0817
  789POPS   PO411616   3.113  11.594   6.113  0.0277 -0.0607 -0.1922
  789POPS   GL111617   2.998  11.556   6.531 -0.2738  0.2961  0.0876
  789POPS   GL211618   3.046  11.199   6.599 -0.1679 -0.0382 -0.4168
  789POPS   C1A11619   2.699  11.493   6.893 -0.1308 -0.0122  0.0839
  789POPS   D2A11620   2.578  11.436   7.326  0.3102  0.1362  0.0458
  789POPS   C3A11621   2.807  11.027   7.512 -0.0778  0.2223  0.2775
  789POPS   C4A11622   2.938  10.858   7.867  0.0824 -0.3274  0.0062
  789POPS   C1B11623   3.432  11.111   6.731 -0.0832  0.1722  0.0764
  789POPS   C2B11624   3.529  11.011   7.057 -0.3244 -0.0356 -0.1389
  789POPS   C3B11625   3.364  10.857   7.434  0.1247  0.0807 -0.0474
  789POPS   C4B11626   3.530  11.006   7.892 -0.1928 -0.1600 -0.2184
  790POPS   CNO11627   5.896   5.780   5.843  0.0691 -0.0808 -0.1939
  790POPS   PO411628   5.826   5.516   6.074  0.0138 -0.0182  0.0736
  790POPS   GL111629   5.941   5.757   6.346 -0.1652 -0.1246  0.0106
  790POPS   GL211630   5.692   5.913   6.435 -0.0235 -0.1137  0.3778
  790POPS   C1A11631   6.203   5.756   6.743 -0.0949 -0.1986 -0.1664
  790POPS   D2A11632   6.593   5.757   6.896 -0.1510 -0.1994  0.1683
  790POPS   C3A11633   6.621   5.733   7.270  0.3253  0.2544  0.0023
  790POPS   C4A11634   6.762   5.741   7.689  0.0441  0.0917  0.0412
  790POPS   C1B11635   5.538   5.917   6.905  0.3154  0.4264 -0.2340
  790POPS   C2B11636   5.550   5.988   7.310 -0.0937 -0.0190 -0.3524
  790POPS   C3B11637   5.725   5.949   7.729  0.1941  0.0764 -0.2250
  790POPS   C4B11638   6.034   6.015   7.924 -0.0142  0.3435 -0.0155
  791POPS   CNO11639   8.593   7.748   5.480 -0.1692 -0.2638  0.5586
  791POPS   PO411640   8.990   7.962   5.723 -0.2833  0.1320  0.0474
  791POPS   GL111641   9.006   7.772   6.217 -0.3324  0.1211  0.2130
  791POPS   GL211642   9.033   7.519   6.271 -0.0818  0.0413  0.1795
  791POPS   C1A11643   9.073   8.023   6.541  0.2636  0.1061  0.1492
  791POPS   D2A11644   8.987   8.080   6.890 -0.0395 -0.1196  0.0347
  791POPS   C3A11645   9.212   8.076   7.213 -0.1541  0.1579  0.0634
  791POPS   C4A11646   9.191   7.850   7.582 -0.0425  0.2930  0.1321
  791POPS   C1B11647   9.103   7.505   6.738  0.1088  0.3270  0.0351
  791POPS   C2B11648   8.984   7.520   7.251  0.3027 -0.3640  0.3266
  791POPS   C3B11649   8.854   7.449   7.661  0.0700 -0.0475 -0.1946
  791POPS   C4B11650   9.044   7.258   7.978 -0.2524 -0.1440 -0.2301
  792POPS   CNO11651  14.507  10.740   5.812 -0.0685  0.0231  0.0768
  792POPS   PO411652  14.135  10.832   6.114 -0.0646 -0.0562 -0.0138
  792POPS   GL111653  14.096  10.561   6.511  0.2075  0.0318  0.0701
  792POPS   GL211654  13.953  10.221   6.562  0.1534  0.3423 -0.2051
  792POPS   C1A11655  14.201  10.669   6.904  0.0827 -0.0607  0.0947
  792POPS   D2A11656  14.533  10.848   7.206 -0.3757  0.0590  0.0801
  792POPS   C3A11657  14.615  11.203   7.369  0.3371  0.0316  0.0537
  792POPS   C4A11658  14.831  11.443   7.675 -0.3120  0.0396  0.0956
  792POPS   C1B11659  13.979  10.178   7.008  0.0482 -0.1607  0.0332
  792POPS   C2B11660  13.876  10.124   7.415  0.0374 -0.1340 -0.0960
  792POPS   C3B11661  14.040  10.190   7.813  0.2286  0.2245  0.1360
  792POPS   C4B11662  13.924   9.842   8.179 -0.2549 -0.0590 -0.1547
  793POPS   CNO11663   7.240  17.350   5.717 -0.0189  0.2936 -0.0746
  793POPS   PO411664   7.398  17.688   5.919  0.2857  0.2569 -0.2488
  793POPS   GL111665   7.447  17.780   6.294  0.1723  0.3068 -0.0980
  793POPS   GL211666   7.691  17.965   6.305 -0.2204 -0.0188  0.1172
  793POPS   C1A11667   7.492  17.802   6.721  0.0175  0.0724  0.0147
  793POPS   D2A11668   7.466  17.905   7.093  0.1779  0.3088 -0.1376
  793POPS   C3A11669   7.653  17.756   7.453  0.1575  0.2646 -0.0402
  793POPS   C4A11670   7.789  17.889   7.801 -0.3406 -0.2221 -0.1059
  793POPS   C1B11671   7.535  18.281   6.681 -0.2465 -0.2254  0.0108
  793POPS   C2B11672   7.449  18.404   7.136  0.1178  0.1149 -0.0001
  793POPS   C3B11673   7.566  18.271   7.553 -0.2059  0.2125  0.0089
  793POPS   C4B11674   7.676  18.387   7.968 -0.2262 -0.2393 -0.0284
  794POPS   CNO11675  16.806   2.632   6.155 -0.0349  0.2979  0.1261
  794POPS   PO411676  16.676   2.403   5.815 -0.0694 -0.2741  0.1354
  794POPS   GL111677  16.497   2.146   6.182  0.0481  0.0447  0.2975
  794POPS   GL211678  16.394   2.244   6.374 -0.0340 -0.1683 -0.3390
  794POPS   C1A11679  16.789   2.160   6.608  0.0180  0.1425 -0.1888
  794POPS   D2A11680  16.827   2.219   7.008 -0.1910  0.3230 -0.2843
  794POPS   C3A11681  17.195   2.386   7.279  0.2128  0.0352  0.0812
  794POPS   C4A11682  17.174   2.427   7.731 -0.2174  0.1193 -0.4254
  794POPS   C1B11683  16.308   2.327   6.804 -0.0998 -0.1358 -0.2221
  794POPS   C2B11684  16.310   2.225   7.289  0.2228 -0.1239  0.0217
  794POPS   C3B11685  16.230   2.288   7.753 -0.0195  0.1860 -0.3527
  794POPS   C4B11686  16.345   2.466   8.168  0.1471 -0.2634 -0.0749
  795POPS   CNO11687  13.358  13.046   5.879 -0.2603 -0.2962 -0.2258
  795POPS   PO411688  13.202  13.552   5.929  0.1589 -0.2430 -0.0881
  795POPS   GL111689  13.060  13.403   6.257 -0.0324 -0.2583  0.1921
  795POPS   GL211690  12.806  13.480   6.391  0.2668 -0.1010 -0.2114
  795POPS   C1A11691  13.063  13.060   6.591 -0.0335 -0.1476 -0.0602
  795POPS   D2A11692  13.054  12.917   6.957 -0.0344  0.0531  0.2017
  795POPS   C3A11693  13.016  12.519   7.055  0.2099  0.1095  0.1616
  795POPS   C4A11694  12.838  12.058   6.992  0.2476 -0.0650  0.1541
  795POPS   C1B11695  12.663  13.308   6.747 -0.0112  0.1396  0.1129
  795POPS   C2B11696  12.638  13.287   7.277  0.1456  0.0279  0.3091
  795POPS   C3B11697  12.581  13.195   7.743 -0.2174 -0.1057 -0.2446
  795POPS   C4B11698  12.972  13.134   8.144  0.2515  0.0789 -0.1885
  796POPS   CNO11699  14.428  12.190   6.036 -0.4030 -0.1284 -0.2599
  796POPS   PO411700  14.219  12.526   6.069 -0.0401  0.0188 -0.0049
  796POPS   GL111701  14.194  12.277   6.522  0.0155 -0.0943  0.0701
  796POPS   GL211702  14.169  11.961   6.416 -0.0551  0.0558 -0.0827
  796POPS   C1A11703  13.874  12.121   6.862  0.1337  0.1696  0.0688
  796POPS   D2A11704  13.670  11.822   7.125  0.2091  0.0811  0.4936
  796POPS   C3A11705  13.782  11.895   7.556  0.1232 -0.1398  0.2843
  796POPS   C4A11706  13.744  11.651   7.866  0.2393  0.1184  0.0116
  796POPS   C1B11707  14.296  11.667   6.722  0.2141  0.0934  0.1732
  796POPS   C2B11708  14.196  11.699   7.119 -0.1366  0.1854 -0.0734
  796POPS   C3B11709  14.218  11.626   7.535  0.1018  0.1539  0.1676
  796POPS   C4B11710  14.301  11.451   7.907  0.3148 -0.0325 -0.1679
  797POPS   CNO11711   7.920   6.615   5.647  0.0517  0.1275 -0.0361
  797POPS   PO411712   8.153   6.632   6.078 -0.0980 -0.0759  0.0222
  797POPS   GL111713   8.055   6.650   6.476 -0.1068  0.3812  0.0283
  797POPS   GL211714   7.806   6.818   6.587  0.3027 -0.0479 -0.0140
  797POPS   C1A11715   7.946   6.392   6.849 -0.2836 -0.2388  0.2934
  797POPS   D2A11716   7.736   6.339   7.229  0.0524  0.2038  0.1132
  797POPS   C3A11717   7.715   6.487   7.640 -0.0024  0.1374 -0.2311
  797POPS   C4A11718   7.619   6.363   8.024  0.2431  0.0584  0.1912
  797POPS   C1B11719   7.759   6.919   7.021  0.2279 -0.1115 -0.1843
  797POPS   C2B11720   7.791   6.936   7.506 -0.0536  0.0842 -0.2905
  797POPS   C3B11721   7.577   6.983   7.864  0.1659  0.1605 -0.1092
  797POPS   C4B11722   7.145   7.071   8.009 -0.2659 -0.0563 -0.1643
  798POPS   CNO11723   0.274  16.943   5.850  0.0672  0.0655  0.2324
  798POPS   PO411724   0.115  17.108   6.182  0.2137 -0.4406  0.0577
  798POPS   GL111725   0.139  16.885   6.548  0.0644  0.2399  0.1375
  798POPS   GL211726  -0.286  16.918   6.747 -0.0097  0.0901 -0.1695
  798POPS   C1A11727   0.230  16.457   6.511 -0.3736  0.1138 -0.0854
  798POPS   D2A11728   0.580  16.252   6.567 -0.0663  0.1663 -0.1227
  798POPS   C3A11729   0.969  16.476   6.567  0.0626 -0.0761 -0.0523
  798POPS   C4A11730   1.436  16.396   6.676 -0.1896 -0.0222  0.0336
  798POPS   C1B11731   0.063  16.649   6.993 -0.2541 -0.1711  0.0437
  798POPS   C2B11732   0.239  16.635   7.462 -0.0408  0.1820 -0.0922
  798POPS   C3B11733   0.670  16.593   7.655  0.0003 -0.2108 -0.1993
  798POPS   C4B11734   1.015  16.685   7.929 -0.2629 -0.0979 -0.0590
  799POPS   CNO11735   6.190   9.775   5.927 -0.0997 -0.1893 -0.2477
  799POPS   PO411736   6.344   9.639   6.206 -0.0362  0.0373 -0.0110
  799POPS   GL111737   6.250   9.857   6.473  0.2842 -0.0381 -0.0794
  799POPS   GL211738   6.618   9.893   6.508 -0.2631 -0.1709 -0.3251
  799POPS   C1A11739   6.144   9.962   6.837  0.3533  0.0840  0.0039
  799POPS   D2A11740   6.034  10.093   7.227 -0.0814  0.1301  0.1526
  799POPS   C3A11741   5.761   9.928   7.481 -0.3334 -0.0778  0.1687
  799POPS   C4A11742   5.322   9.733   7.565  0.2481 -0.0031 -0.0326
  799POPS   C1B11743   6.804   9.959   6.916 -0.0320  0.0539 -0.0305
  799POPS   C2B11744   6.532   9.865   7.317  0.1834 -0.3191  0.1894
  799POPS   C3B11745   6.294  10.039   7.650  0.0762 -0.1223 -0.1379
  799POPS   C4B11746   6.416  10.246   7.971 -0.0647  0.0434 -0.1124
  800POPS   CNO11747   4.035  11.699   5.767 -0.1139 -0.2415  0.0054
  800POPS   PO411748   3.957  11.368   6.061  0.2024 -0.0903 -0.2806
  800POPS   GL111749   3.980  11.385   6.539 -0.0086  0.1135 -0.0320
  800POPS   GL211750   4.266  11.499   6.699  0.1147  0.1287 -0.3528
  800POPS   C1A11751   3.968  11.231   6.966  0.0237  0.1025 -0.0705
  800POPS   D2A11752   3.931  11.096   7.408 -0.2456 -0.2600  0.0242
  800POPS   C3A11753   4.289  10.774   7.503  0.2153  0.0602  0.2263
  800POPS   C4A11754   4.325  10.359   7.596  0.0462  0.0073  0.1149
  800POPS   C1B11755   4.280  11.579   7.103 -0.0113  0.0876 -0.1218
  800POPS   C2B11756   4.185  11.569   7.481  0.0619  0.1133 -0.2063
  800POPS   C3B11757   4.065  11.395   7.847 -0.3952  0.1158 -0.2070
  800POPS   C4B11758   4.233  11.060   7.980 -0.1820  0.0457  0.4514
  801POPS   CNO11759   0.981   9.018   5.479 -0.1780  0.1822 -0.1160
  801POPS   PO411760   1.192   8.738   5.828  0.0807  0.0361 -0.3461
  801POPS   GL111761   1.347   8.824   6.229  0.1558  0.2097 -0.0729
  801POPS   GL211762   1.175   8.602   6.444  0.0509  0.3735 -0.1354
  801POPS   C1A11763   1.492   8.906   6.674  0.0429 -0.1852 -0.0434
  801POPS   D2A11764   1.845   9.242   6.804 -0.3108 -0.1952 -0.0614
  801POPS   C3A11765   1.873   9.312   7.226  0.1766 -0.1960  0.0637
  801POPS   C4A11766   1.958   9.110   7.579  0.0017 -0.1099 -0.0479
  801POPS   C1B11767   1.239   8.532   6.834  0.0189  0.0849 -0.2309
  801POPS   C2B11768   1.357   8.481   7.238 -0.3948  0.0125 -0.1259
  801POPS   C3B11769   1.506   8.354   7.710 -0.1502 -0.0689 -0.2099
  801POPS   C4B11770   1.622   8.180   7.996 -0.0117  0.1180  0.1478
  802POPS   CNO11771   2.038  12.347   6.236  0.1247 -0.1851  0.3096
  802POPS   PO411772   1.685  12.095   6.103  0.3053 -0.0843  0.0074
  802POPS   GL111773   1.789  12.110   6.592 -0.1195 -0.1380 -0.2187
  802POPS   GL211774   1.738  12.382   6.744 -0.1407 -0.1811 -0.0127
  802POPS   C1A11775   2.031  11.992   7.002  0.0411  0.3291  0.0198
  802POPS   D2A11776   2.092  11.861   7.377 -0.2731 -0.0584  0.1785
  802POPS   C3A11777   2.226  12.221   7.659 -0.2730  0.1387 -0.1102
  802POPS   C4A11778   2.430  12.145   8.029  0.0964 -0.0306 -0.0189
  802POPS   C1B11779   1.862  12.436   7.188  0.2657 -0.5150 -0.1248
  802POPS   C2B11780   1.898  12.623   7.615  0.1629  0.3852 -0.0592
  802POPS   C3B11781   1.807  12.864   7.892 -0.1119  0.3853  0.0324
  802POPS   C4B11782   1.580  13.178   8.095  0.0959 -0.2880  0.0672
  803POPS   CNO11783  15.584   6.704   5.407 -0.2143  0.3125  0.1808
  803POPS   PO411784  15.213   6.438   5.647  0.0669 -0.1780  0.0923
  803POPS   GL111785  15.067   6.288   6.039 -0.3100 -0.3278  0.1582
  803POPS   GL211786  15.176   5.978   6.294 -0.0838 -0.3883 -0.2205
  803POPS   C1A11787  14.793   6.363   6.356  0.0436  0.0841 -0.0471
  803POPS   D2A11788  14.837   6.530   6.712 -0.2026  0.4334  0.0379
  803POPS   C3A11789  14.842   6.293   7.066 -0.0519  0.0790 -0.5042
  803POPS   C4A11790  15.086   6.353   7.390 -0.1951 -0.0408 -0.0220
  803POPS   C1B11791  15.047   5.976   6.664 -0.0202 -0.0187 -0.2131
  803POPS   C2B11792  15.292   5.982   7.042 -0.0841 -0.0439 -0.0765
  803POPS   C3B11793  15.652   6.131   7.282 -0.2621  0.2019  0.0366
  803POPS   C4B11794  15.506   6.360   7.715  0.3177  0.2407 -0.1395
  804POPS   CNO11795   4.618   4.099   6.346 -0.1776 -0.0583 -0.0147
  804POPS   PO411796   4.524   4.356   6.083 -0.1603  0.2958  0.0519
  804POPS   GL111797   4.302   4.505   6.369 -0.1272  0.0108  0.1675
  804POPS   GL211798   4.421   4.733   6.557  0.0093 -0.0267 -0.0602
  804POPS   C1A11799   4.010   4.509   6.717  0.2191 -0.0021  0.1895
  804POPS   D2A11800   3.867   4.561   7.077 -0.1888  0.0687  0.2451
  804POPS   C3A11801   4.055   4.507   7.446  0.0245  0.0440  0.3357
  804POPS   C4A11802   4.154   4.695   7.893  0.2091  0.0195  0.0887
  804POPS   C1B11803   4.382   4.654   7.018 -0.2238  0.2041  0.0671
  804POPS   C2B11804   4.319   4.883   7.473 -0.1179 -0.3539 -0.0185
  804POPS   C3B11805   4.422   5.139   7.905 -0.2544 -0.0781 -0.1999
  804POPS   C4B11806   4.734   5.135   8.241  0.0145 -0.3423  0.2218
  805POPS   CNO11807   7.768  15.296   5.821 -0.2375  0.0173 -0.1213
  805POPS   PO411808   8.184  15.435   5.897  0.0370  0.2120 -0.0626
  805POPS   GL111809   8.169  15.343   6.330  0.0243  0.2883 -0.0717
  805POPS   GL211810   7.800  15.573   6.386  0.1357  0.5075 -0.0834
  805POPS   C1A11811   8.324  15.306   6.754 -0.1838 -0.1083 -0.0669
  805POPS   D2A11812   8.199  15.537   7.111  0.2627  0.0919  0.1404
  805POPS   C3A11813   8.370  15.857   7.399  0.3586 -0.0260 -0.1671
  805POPS   C4A11814   8.569  16.023   7.676 -0.2303  0.1081 -0.0787
  805POPS   C1B11815   8.053  15.743   6.670 -0.2199  0.2076  0.1262
  805POPS   C2B11816   8.268  16.035   6.816 -0.1105 -0.0923 -0.1725
  805POPS   C3B11817   8.638  16.178   7.046  0.1821 -0.0768 -0.1078
  805POPS   C4B11818   9.042  16.236   7.193 -0.1590 -0.1152 -0.2201
  806POPS   CNO11819   6.569  13.220   5.417  0.2049  0.0577 -0.2616
  806POPS   PO411820   6.641  13.309   5.932  0.0260 -0.3349 -0.1078
  806POPS   GL111821   6.811  13.273   6.343 -0.1444  0.0440 -0.0201
  806POPS   GL211822   6.923  13.584   6.508  0.0215  0.0048  0.0668
  806POPS   C1A11823   6.703  13.202   6.823  0.2811 -0.1054  0.2718
  806POPS   D2A11824   6.450  13.314   7.000  0.1140 -0.1094 -0.0205
  806POPS   C3A11825   5.896  13.214   6.911 -0.4254 -0.0602  0.2540
  806POPS   C4A11826   5.759  13.363   6.681 -0.1443  0.0388  0.1695
  806POPS   C1B11827   7.135  13.416   6.809 -0.0614  0.3878 -0.0512
  806POPS   C2B11828   7.438  13.053   7.013 -0.0820  0.2354  0.0881
  806POPS   C3B11829   7.408  12.904   7.520  0.0074 -0.2078  0.2500
  806POPS   C4B11830   7.300  12.861   7.964  0.0292  0.0517 -0.1380
  807POPS   CNO11831  13.458  10.466   5.958  0.0986 -0.1109  0.0747
  807POPS   PO411832  13.691  10.208   6.099  0.1385  0.3427 -0.1787
  807POPS   GL111833  13.460  10.193   6.431  0.1713  0.1583  0.0570
  807POPS   GL211834  13.426  10.499   6.514  0.1126 -0.2747 -0.0596
  807POPS   C1A11835  13.517  10.173   6.845  0.0762  0.1663 -0.3901
  807POPS   D2A11836  13.566  10.457   7.187 -0.3717 -0.2228  0.0153
  807POPS   C3A11837  13.814  10.815   7.200 -0.0816 -0.2247 -0.0510
  807POPS   C4A11838  14.155  11.127   7.266 -0.3398  0.1111  0.1947
  807POPS   C1B11839  13.696  10.619   6.737  0.1824 -0.0493  0.2351
  807POPS   C2B11840  13.873  11.009   6.650  0.2387 -0.0848  0.3315
  807POPS   C3B11841  14.308  11.142   6.766 -0.2071 -0.0388 -0.0331
  807POPS   C4B11842  14.778  11.260   6.880 -0.0444  0.1464  0.1363
  808POPS   CNO11843   3.708  10.330   5.181  0.2325 -0.0381 -0.0277
  808POPS   PO411844   3.435  10.223   5.556 -0.1649 -0.1793 -0.0593
  808POPS   GL111845   3.410   9.932   5.897  0.0469 -0.3114  0.0472
  808POPS   GL211846   3.599  10.037   6.167 -0.1242 -0.0172  0.0265
  808POPS   C1A11847   3.199   9.618   6.164  0.1145 -0.1109 -0.0395
  808POPS   D2A11848   3.241   9.261   6.349  0.2750  0.0850  0.3535
  808POPS   C3A11849   3.113   9.235   6.761 -0.3435  0.0580 -0.1551
  808POPS   C4A11850   2.788   9.443   6.956  0.0782 -0.4504 -0.2053
  808POPS   C1B11851   3.725  10.094   6.610  0.0632  0.1132  0.1807
  808POPS   C2B11852   3.630  10.097   7.042  0.0157 -0.2196 -0.0856
  808POPS   C3B11853   3.616   9.799   7.257 -0.4809  0.2083 -0.2392
  808POPS   C4B11854   3.414   9.614   7.660  0.0613  0.0057 -0.2466
  809POPS   CNO11855  14.269   6.701   5.622  0.0398 -0.2098  0.1518
  809POPS   PO411856  14.225   6.751   5.982  0.2814  0.0715  0.3473
  809POPS   GL111857  14.420   6.988   6.267 -0.1472 -0.1001  0.3959
  809POPS   GL211858  14.210   7.136   6.301 -0.1177  0.2201 -0.0451
  809POPS   C1A11859  14.421   6.809   6.683  0.0127  0.0867  0.3788
  809POPS   D2A11860  14.444   7.000   7.093  0.0238  0.0526 -0.0125
  809POPS   C3A11861  14.677   7.318   7.214  0.2547 -0.0162  0.2039
  809POPS   C4A11862  15.070   7.360   7.260  0.1631 -0.0785  0.1183
  809POPS   C1B11863  14.130   7.200   6.734 -0.0952 -0.1088  0.1810
  809POPS   C2B11864  14.055   7.258   7.139  0.1495 -0.1124  0.2338
  809POPS   C3B11865  14.029   7.437   7.519  0.2394  0.3002  0.0763
  809POPS   C4B11866  14.160   7.422   7.910  0.1812  0.1074 -0.2420
  810POPS   CNO11867   9.492   2.062   5.703  0.0693  0.1585  0.2876
  810POPS   PO411868   9.712   2.261   5.990  0.0364 -0.0152  0.2044
  810POPS   GL111869   9.671   2.180   6.402 -0.2241 -0.0677  0.1416
  810POPS   GL211870   9.393   1.969   6.408 -0.1760 -0.0059 -0.0421
  810POPS   C1A11871   9.652   1.970   6.854 -0.0798 -0.1869 -0.5337
  810POPS   D2A11872   9.619   1.890   7.301 -0.2200  0.2683 -0.2430
  810POPS   C3A11873   9.431   1.703   7.627  0.2082  0.2841 -0.2758
  810POPS   C4A11874   9.278   1.556   8.051  0.0235 -0.0267 -0.3610
  810POPS   C1B11875   9.289   1.717   6.854  0.1401  0.1001 -0.0801
  810POPS   C2B11876   9.186   1.620   7.218 -0.2069  0.1202 -0.1746
  810POPS   C3B11877   8.960   1.489   7.667 -0.4700 -0.1190 -0.1749
  810POPS   C4B11878   8.961   1.886   7.913  0.1706  0.0145  0.1010
  811YOPS   CNO11879   0.272   0.428   5.857  0.0835  0.2249  0.1091
  811YOPS   PO411880   0.550   0.738   5.862  0.1439  0.3894 -0.1897
  811YOPS   GL111881   0.705   0.808   6.238  0.0999  0.0081  0.2404
  811YOPS   GL211882   0.849   1.060   6.335 -0.2189  0.0382 -0.1174
  811YOPS   C1A11883   0.923   0.566   6.576  0.3417  0.1104 -0.1704
  811YOPS   D2A11884   1.024   0.331   7.018  0.0240 -0.1675  0.3182
  811YOPS   C3A11885   1.232   0.399   7.337 -0.0485  0.1525 -0.3016
  811YOPS   C4A11886   1.561   0.737   7.151 -0.4199 -0.0057 -0.1888
  811YOPS   C1B11887   0.716   1.220   6.694 -0.0472 -0.2825 -0.1310
  811YOPS   C2B11888   0.494   1.545   6.700  0.0554  0.2534  0.0504
  811YOPS   D3B11889   0.337   1.982   6.654  0.1521 -0.3037 -0.0949
  811YOPS   C4B11890   0.137   2.380   6.836  0.3241  0.0886  0.0284
  812YOPS   CNO11891   8.049   7.682   6.131  0.2271  0.2793 -0.2792
  812YOPS   PO411892   7.963   8.050   6.010  0.1037  0.0137  0.4811
  812YOPS   GL111893   8.049   8.129   6.405  0.1568 -0.0393  0.2832
  812YOPS   GL211894   8.375   8.151   6.408  0.3072  0.1051  0.1761
  812YOPS   C1A11895   8.014   8.072   6.834  0.0317  0.2324 -0.1440
  812YOPS   D2A11896   8.132   7.863   7.243  0.0969  0.0221 -0.1727
  812YOPS   C3A11897   8.443   7.542   7.435  0.2743 -0.2202 -0.4342
  812YOPS   C4A11898   8.527   7.837   7.820 -0.1606  0.0301 -0.2153
  812YOPS   C1B11899   8.454   8.324   6.829  0.1436 -0.0685  0.0695
  812YOPS   C2B11900   8.305   8.354   7.104 -0.0811  0.0444  0.0395
  812YOPS   D3B11901   8.290   8.188   7.572 -0.0129 -0.0648  0.0601
  812YOPS   C4B11902   8.096   8.271   7.950 -0.3865  0.3974 -0.2401
  813YOPS   CNO11903  14.265  15.485   6.211 -0.1597 -0.1348 -0.0710
  813YOPS   PO411904  13.888  15.507   6.054  0.0499 -0.0720 -0.1682
  813YOPS   GL111905  13.801  15.454   6.506  0.1077  0.2935 -0.1404
  813YOPS   GL211906  13.667  15.643   6.598 -0.2932 -0.1395 -0.1649
  813YOPS   C1A11907  13.973  15.332   6.870 -0.2577 -0.3124 -0.1139
  813YOPS   D2A11908  13.958  15.280   7.418 -0.1021  0.0698 -0.0970
  813YOPS   C3A11909  14.044  15.123   7.829  0.0042  0.0625 -0.0906
  813YOPS   C4A11910  13.855  14.701   7.933  0.1638  0.4113  0.2846
  813YOPS   C1B11911  13.529  15.511   6.964  0.2403 -0.4438 -0.0294
  813YOPS   C2B11912  13.457  15.322   7.279 -0.2532 -0.2541 -0.3336
  813YOPS   D3B11913  13.123  15.208   7.491 -0.1181  0.1092 -0.0548
  813YOPS   C4B11914  12.729  15.314   7.450 -0.3194 -0.1239  0.1759
  814YOPS   CNO11915   8.498  12.748   5.890  0.1214  0.3628 -0.1884
  814YOPS   PO411916   8.547  13.218   5.823 -0.3708 -0.0600  0.1966
  814YOPS   GL111917   8.449  13.106   6.213  0.1188 -0.3113 -0.0785
  814YOPS   GL211918   8.548  13.188   6.476 -0.0766 -0.2002 -0.1513
  814YOPS   C1A11919   8.453  12.710   6.413 -0.0534 -0.0712  0.3821
  814YOPS   D2A11920   8.518  12.755   6.846 -0.1756  0.1570  0.0842
  814YOPS   C3A11921   8.386  12.699   7.199  0.0843 -0.0605  0.0065
  814YOPS   C4A11922   8.053  12.449   7.370  0.0075  0.1043  0.0982
  814YOPS   C1B11923   8.433  13.290   6.865  0.0119 -0.1134  0.0516
  814YOPS   C2B11924   8.122  13.400   7.185  0.1352  0.1842 -0.0140
  814YOPS   D3B11925   7.970  13.393   7.650 -0.0815 -0.1296  0.2647
  814YOPS   C4B11926   7.780  13.159   7.942  0.5075 -0.1576  0.2252
  815YOPS   CNO11927   6.630   7.609   5.550  0.1521 -0.2659  0.0302
  815YOPS   PO411928   6.452   7.621   5.988  0.5487  0.3157 -0.0785
  815YOPS   GL111929   6.532   7.873   6.336  0.0658  0.2042 -0.1559
  815YOPS   GL211930   6.559   8.184   6.498 -0.0754 -0.4570 -0.1301
  815YOPS   C1A11931   6.374   7.794   6.697 -0.2200 -0.1572 -0.1329
  815YOPS   D2A11932   6.321   7.962   7.115  0.0343  0.0394  0.1059
  815YOPS   C3A11933   6.239   7.906   7.570 -0.0968  0.1946  0.1700
  815YOPS   C4A11934   6.263   8.124   7.988  0.0555  0.0266 -0.1239
  815YOPS   C1B11935   6.842   8.010   6.866 -0.0366  0.0995 -0.3745
  815YOPS   C2B11936   6.841   7.797   7.281 -0.2660  0.0687  0.0380
  815YOPS   D3B11937   6.932   7.610   7.546  0.0982 -0.2759 -0.0923
  815YOPS   C4B11938   7.237   7.162   7.490 -0.0211  0.1882  0.0042
  816YOPS   CNO11939  15.469   5.318   5.786  0.1605  0.1683  0.1274
  816YOPS   PO411940  15.927   5.468   5.648 -0.1465  0.1748 -0.0466
  816YOPS   GL111941  16.053   5.464   6.090 -0.1656  0.1059  0.2469
  816YOPS   GL211942  16.219   5.189   6.129  0.0034  0.1758  0.0929
  816YOPS   C1A11943  15.975   5.624   6.424  0.0652 -0.2861 -0.0447
  816YOPS   D2A11944  16.030   5.912   6.752  0.0321  0.1307 -0.0535
  816YOPS   C3A11945  16.179   5.768   7.138  0.2940 -0.2580 -0.0735
  816YOPS   C4A11946  16.274   5.860   7.526  0.0586  0.0906  0.1925
  816YOPS   C1B11947  16.365   5.258   6.479  0.0428 -0.0993 -0.0046
  816YOPS   C2B11948  16.478   5.574   6.822 -0.2597  0.0144 -0.1771
  816YOPS   D3B11949  16.609   5.903   6.749  0.2401  0.0718 -0.2536
  816YOPS   C4B11950  16.954   5.937   6.542  0.2730  0.1059 -0.0679
  817YOPS   CNO11951  17.342  13.816   6.010  0.2973 -0.1976  0.0893
  817YOPS   PO411952  17.248  13.604   6.473 -0.5138  0.3250 -0.1530
  817YOPS   GL111953  17.324  13.869   6.831  0.2117  0.1274  0.0728
  817YOPS   GL211954  17.423  14.139   6.915  0.1147  0.0947  0.0129
  817YOPS   C1A11955  17.504  13.677   7.154 -0.1056  0.3253 -0.2158
  817YOPS   D2A11956  17.554  13.687   7.509  0.1967  0.2073 -0.2290
  817YOPS   C3A11957  17.664  13.343   7.852 -0.0753  0.1157 -0.1224
  817YOPS   C4A11958  17.453  13.244   8.203  0.1372  0.0240  0.0223
  817YOPS   C1B11959  17.484  14.148   7.289 -0.0816 -0.1295 -0.0460
  817YOPS   C2B11960  17.758  14.119   7.705 -0.2289 -0.0717  0.2483
  817YOPS   D3B11961  17.942  14.228   8.092  0.1406  0.1027  0.0036
  817YOPS   C4B11962  17.607  14.467   8.353  0.2803  0.1246  0.2769
  818YOPS   CNO11963   3.962  15.894   5.888 -0.1290 -0.0221  0.2070
  818YOPS   PO411964   3.780  15.498   5.999  0.1605  0.0323  0.1938
  818YOPS   GL111965   3.662  15.290   6.317  0.1396 -0.2541 -0.1241
  818YOPS   GL211966   3.690  15.016   6.437  0.3127 -0.0806 -0.2957
  818YOPS   C1A11967   3.709  15.339   6.792 -0.1634  0.1770  0.0024
  818YOPS   D2A11968   3.911  15.307   7.220 -0.1441  0.0145 -0.1336
  818YOPS   C3A11969   4.040  15.277   7.636 -0.0169  0.0516  0.0959
  818YOPS   C4A11970   4.394  15.094   7.672 -0.0348 -0.2299  0.1797
  818YOPS   C1B11971   3.487  14.853   6.732 -0.2174  0.0070 -0.1430
  818YOPS   C2B11972   3.528  14.945   7.204  0.0320  0.2182 -0.0722
  818YOPS   D3B11973   3.532  14.830   7.661  0.1062  0.0368 -0.0603
  818YOPS   C4B11974   3.835  14.957   7.943  0.0480  0.0546 -0.2089
  819YOPS   CNO11975  10.559   2.875   5.834 -0.0702 -0.2469  0.3217
  819YOPS   PO411976  10.589   2.585   6.140 -0.1187  0.2635 -0.2043
  819YOPS   GL111977  10.647   2.903   6.569  0.0688  0.0317  0.3151
  819YOPS   GL211978  10.929   2.916   6.729 -0.0149 -0.0759  0.0776
  819YOPS   C1A11979  10.631   2.849   7.088 -0.0009 -0.0408  0.1281
  819YOPS   D2A11980  10.501   2.868   7.476  0.4496  0.1133 -0.0857
  819YOPS   C3A11981  10.424   3.104   7.861 -0.5417  0.1338  0.1586
  819YOPS   C4A11982  10.127   2.996   8.160  0.0389  0.0923  0.0540
  819YOPS   C1B11983  11.130   2.918   7.163  0.0182 -0.0897 -0.2870
  819YOPS   C2B11984  10.964   2.853   7.532  0.2006 -0.1661 -0.0446
  819YOPS   D3B11985  10.837   2.733   7.909 -0.0746  0.1005  0.2331
  819YOPS   C4B11986  10.468   2.586   7.905  0.0172 -0.2809  0.4437
  820YOPS   CNO11987   5.706   2.900   6.265 -0.0419  0.0448  0.1821
  820YOPS   PO411988   5.161   2.822   6.122  0.0065  0.2409 -0.3059
  820YOPS   GL111989   4.840   2.945   6.461  0.0439 -0.0088  0.1109
  820YOPS   GL211990   4.544   2.766   6.625 -0.0436 -0.1144  0.0549
  820YOPS   C1A11991   4.825   3.123   6.897 -0.1697  0.1918 -0.0073
  820YOPS   D2A11992   4.908   3.320   7.217  0.1636 -0.1305 -0.4749
  820YOPS   C3A11993   5.072   3.260   7.613 -0.1079  0.2262 -0.1858
  820YOPS   C4A11994   5.143   2.912   7.869  0.3759  0.0545 -0.2468
  820YOPS   C1B11995   4.522   2.740   7.086  0.0131 -0.2335  0.3069
  820YOPS   C2B11996   4.546   2.364   7.415 -0.2764  0.4405  0.0202
  820YOPS   D3B11997   4.610   2.413   7.901 -0.2292 -0.0390  0.3618
  820YOPS   C4B11998   4.292   2.594   8.051 -0.3048 -0.0147  0.3875
  821YOPS   CNO11999   3.092  13.039   5.690 -0.0452  0.1772 -0.1349
  821YOPS   PO412000   2.790  13.005   6.059  0.0196  0.0307 -0.1889
  821YOPS   GL112001   2.854  13.092   6.440  0.1729  0.0701  0.2376
  821YOPS   GL212002   2.704  12.859   6.646  0.0517 -0.2203 -0.1263
  821YOPS   C1A12003   3.059  13.124   6.815 -0.1236 -0.0022 -0.3199
  821YOPS   D2A12004   3.205  13.428   7.092 -0.1259  0.0337  0.2361
  821YOPS   C3A12005   3.075  13.560   7.521 -0.2244  0.2538 -0.2195
  821YOPS   C4A12006   3.069  13.273   7.854  0.1835 -0.1213  0.1133
  821YOPS   C1B12007   2.762  12.803   7.073  0.1948  0.1734  0.0149
  821YOPS   C2B12008   2.894  12.882   7.550  0.1967 -0.2618 -0.1512
  821YOPS   D3B12009   2.791  12.808   7.989 -0.1403 -0.0175 -0.0789
  821YOPS   C4B12010   2.974  12.912   8.278 -0.0859  0.0221  0.0222
  822YOPS   CNO12011  15.708  14.871   6.441  0.2211  0.1073  0.0564
  822YOPS   PO412012  15.726  14.441   6.383 -0.1634  0.0198 -0.0333
  822YOPS   GL112013  15.667  14.379   6.798 -0.0422 -0.1889  0.0478
  822YOPS   GL212014  15.564  14.611   6.954  0.1148  0.1251  0.1272
  822YOPS   C1A12015  15.410  14.213   7.134  0.0999 -0.0523 -0.0206
  822YOPS   D2A12016  15.404  13.973   7.458 -0.1698  0.3016  0.0021
  822YOPS   C3A12017  15.221  13.669   7.781  0.0302  0.2799 -0.2983
  822YOPS   C4A12018  14.942  13.686   8.035 -0.1788 -0.0340  0.0085
  822YOPS   C1B12019  15.620  14.620   7.426 -0.0576  0.3141  0.2114
  822YOPS   C2B12020  15.603  14.302   7.794  0.1507 -0.0604 -0.0721
  822YOPS   D3B12021  15.308  14.137   8.027  0.0525 -0.0833  0.0520
  822YOPS   C4B12022  15.272  14.374   8.452  0.1472  0.2198  0.3765
  823YOPS   CNO12023  15.884   3.084   5.366 -0.2320  0.1767 -0.1750
  823YOPS   PO412024  15.691   2.837   5.625  0.2320 -0.0586 -0.1798
  823YOPS   GL112025  15.834   2.599   6.042  0.0239 -0.1843 -0.2069
  823YOPS   GL212026  15.762   2.930   6.251 -0.4060  0.3328  0.1226
  823YOPS   C1A12027  15.978   2.569   6.565  0.1055 -0.1085 -0.3739
  823YOPS   D2A12028  16.011   2.743   6.891 -0.1716  0.3346 -0.0023
  823YOPS   C3A12029  16.370   2.749   7.058 -0.1945  0.0734 -0.0334
  823YOPS   C4A12030  16.352   2.698   7.441 -0.1103  0.3015  0.0856
  823YOPS   C1B12031  16.067   3.126   6.561 -0.1418 -0.1335  0.0072
  823YOPS   C2B12032  16.257   3.198   6.974 -0.0479  0.0367  0.0109
  823YOPS   D3B12033  16.213   3.552   7.305  0.0451 -0.0828  0.1883
  823YOPS   C4B12034  16.250   3.897   7.319  0.0392  0.0919 -0.1032
  824YOPS   CNO12035   7.665   5.954   6.144 -0.0567 -0.1006 -0.1236
  824YOPS   PO412036   7.939   5.696   5.883  0.4175 -0.1486 -0.3684
  824YOPS   GL112037   8.155   5.520   6.215 -0.0974 -0.0108  0.0423
  824YOPS   GL212038   8.099   5.276   6.309  0.1207  0.0542 -0.0987
  824YOPS   C1A12039   8.381   5.601   6.548  0.0913  0.1014 -0.1300
  824YOPS   D2A12040   8.289   5.887   6.805 -0.1323  0.0153 -0.2396
  824YOPS   C3A12041   8.132   6.051   7.166  0.1010 -0.0506 -0.0409
  824YOPS   C4A12042   8.216   6.177   7.656 -0.0455  0.0824  0.2323
  824YOPS   C1B12043   8.018   5.234   6.746  0.1053 -0.1098 -0.0967
  824YOPS   C2B12044   8.065   5.109   7.199  0.0329  0.2527 -0.2610
  824YOPS   D3B12045   8.231   5.003   7.500  0.2746 -0.2695 -0.2404
  824YOPS   C4B12046   8.231   5.225   7.891  0.0493  0.0276 -0.0667
  825YOPS   CNO12047  12.171   7.514   5.573  0.2730  0.0878 -0.0040
  825YOPS   PO412048  12.163   7.813   5.919  0.0771 -0.2754 -0.1492
  825YOPS   GL112049  12.239   7.572   6.384  0.1607  0.0075 -0.1187
  825YOPS   GL212050  12.364   7.327   6.439  0.0154  0.0966 -0.1622
  825YOPS   C1A12051  12.204   7.523   6.875  0.1185  0.1067  0.1012
  825YOPS   D2A12052  12.202   7.518   7.314 -0.0397 -0.0501  0.4044
  825YOPS   C3A12053  12.306   7.873   7.590  0.1330  0.1629  0.1416
  825YOPS   C4A12054  12.176   8.257   7.766 -0.0075  0.4306  0.1069
  825YOPS   C1B12055  12.395   7.033   6.823 -0.0447 -0.3377 -0.1086
  825YOPS   C2B12056  12.471   7.083   7.247 -0.1129  0.0418 -0.2130
  825YOPS   D3B12057  12.247   7.097   7.599  0.0322  0.3179  0.0289
  825YOPS   C4B12058  12.060   7.323   7.990 -0.2266 -0.0586 -0.1849
  826YOPS   CNO12059   2.532   7.298   5.800  0.1597  0.4388 -0.0287
  826YOPS   PO412060   2.851   7.202   5.972  0.1613  0.1597  0.0420
  826YOPS   GL112061   2.955   7.450   6.282  0.2366 -0.1332  0.0345
  826YOPS   GL212062   3.189   7.490   6.368  0.0042  0.0569 -0.1814
  826YOPS   C1A12063   2.811   7.774   6.542 -0.1267 -0.0083  0.1094
  826YOPS   D2A12064   2.641   8.098   6.787  0.0565  0.0791  0.1733
  826YOPS   C3A12065   2.761   8.421   7.062  0.1044 -0.0995 -0.0192
  826YOPS   C4A12066   2.745   8.850   6.872  0.0280  0.2535 -0.0993
  826YOPS   C1B12067   2.991   7.448   6.828 -0.2266  0.1057  0.4069
  826YOPS   C2B12068   2.813   7.660   7.137 -0.1544 -0.0913  0.0145
  826YOPS   D3B12069   3.010   7.665   7.517  0.1070  0.1327 -0.0015
  826YOPS   C4B12070   3.175   7.582   7.841  0.0912  0.0601  0.0653
  827YOPS   CNO12071  16.509   1.648   5.513 -0.1835  0.0809  0.0993
  827YOPS   PO412072  16.513   1.399   5.876  0.0109 -0.1298 -0.2034
  827YOPS   GL112073  16.426   1.532   6.200  0.1529 -0.1256 -0.0428
  827YOPS   GL212074  16.085   1.493   6.250  0.0071 -0.3367 -0.3115
  827YOPS   C1A12075  16.368   1.775   6.622 -0.1502  0.2291 -0.2614
  827YOPS   D2A12076  16.531   1.802   7.003  0.1677  0.0514  0.1347
  827YOPS   C3A12077  16.735   1.773   7.323 -0.2102  0.3500  0.3434
  827YOPS   C4A12078  16.649   1.947   7.736  0.7230  0.0805  0.0313
  827YOPS   C1B12079  15.932   1.556   6.666 -0.2008  0.0084 -0.0368
  827YOPS   C2B12080  15.805   1.303   6.956  0.2006  0.1092 -0.2398
  827YOPS   D3B12081  15.505   1.277   7.265  0.0857  0.2276  0.1321
  827YOPS   C4B12082  15.553   1.052   7.688 -0.0273 -0.2036 -0.0017
  828YOPS   CNO12083   1.320   9.297   6.399 -0.0406  0.2205 -0.0101
  828YOPS   PO412084   0.959   9.298   6.235  0.1976 -0.0084 -0.1107
  828YOPS   GL112085   0.792   9.037   6.627  0.0903 -0.0207 -0.1550
  828YOPS   GL212086   0.572   9.238   6.811 -0.0935  0.0840 -0.1520
  828YOPS   C1A12087   1.016   8.959   6.929 -0.0543  0.2860  0.3149
  828YOPS   D2A12088   1.074   8.915   7.385  0.0152 -0.1358 -0.0010
  828YOPS   C3A12089   1.397   8.862   7.665  0.0712  0.0862  0.3100
  828YOPS   C4A12090   1.362   9.159   7.953 -0.1175  0.0635  0.0236
  828YOPS   C1B12091   0.593   9.035   7.174 -0.1098  0.0022  0.1296
  828YOPS   C2B12092   0.520   8.783   7.499 -0.1408  0.0914 -0.1184
  828YOPS   D3B12093   0.511   8.617   7.918  0.0259  0.1914  0.0750
  828YOPS   C4B12094   0.314   8.237   8.067  0.1732  0.1922 -0.2848
  829YOPS   CNO12095   8.446  16.754   5.530  0.0086  0.0313  0.3684
  829YOPS   PO412096   8.502  16.701   6.012 -0.0910  0.2695  0.0936
  829YOPS   GL112097   8.603  16.849   6.361  0.0881 -0.3490 -0.1278
  829YOPS   GL212098   8.752  17.227   6.263  0.1664  0.2651  0.1567
  829YOPS   C1A12099   8.655  16.999   6.702  0.0904 -0.0669 -0.1654
  829YOPS   D2A12100   8.558  17.242   7.099  0.0909  0.0835 -0.0319
  829YOPS   C3A12101   8.473  17.429   7.515 -0.2199  0.0073  0.1748
  829YOPS   C4A12102   8.782  17.475   7.683 -0.2365 -0.4665  0.3241
  829YOPS   C1B12103   8.709  17.502   6.514 -0.0615 -0.0377  0.2526
  829YOPS   C2B12104   8.698  17.864   6.462 -0.2516 -0.3761 -0.0282
  829YOPS   D3B12105   8.553  18.185   6.730 -0.3242  0.0173  0.0410
  829YOPS   C4B12106   8.491  18.172   7.164 -0.1679 -0.0374  0.4136
  830YOPS   CNO12107   5.257   1.565   6.316 -0.0541  0.1522  0.1905
  830YOPS   PO412108   5.033   1.253   6.134 -0.4428  0.1605 -0.1772
  830YOPS   GL112109   5.151   1.080   6.481 -0.0932  0.0889  0.1355
  830YOPS   GL212110   5.513   1.085   6.385 -0.0076  0.0034 -0.1156
  830YOPS   C1A12111   5.111   0.961   6.857 -0.1408 -0.2176 -0.0549
  830YOPS   D2A12112   4.799   0.837   7.220 -0.0538 -0.0258 -0.0574
  830YOPS   C3A12113   4.427   0.576   7.452  0.3696 -0.2932  0.2447
  830YOPS   C4A12114   4.259   0.565   7.853 -0.2035 -0.3893  0.2710
  830YOPS   C1B12115   5.563   1.464   6.698  0.0098 -0.0903  0.0879
  830YOPS   C2B12116   5.696   1.611   7.135  0.0663  0.0763  0.1304
  830YOPS   D3B12117   5.760   1.757   7.529  0.1210 -0.2667  0.0288
  830YOPS   C4B12118   5.680   1.589   7.953 -0.3031  0.1791 -0.0502
  831YOPS   CNO12119   6.943  15.853   5.489 -0.4520  0.1025  0.1630
  831YOPS   PO412120   6.777  15.531   5.765 -0.3892 -0.1810  0.1534
  831YOPS   GL112121   6.908  15.497   6.229 -0.0524  0.1623  0.2301
  831YOPS   GL212122   7.069  15.184   6.272  0.0860 -0.1779  0.2080
  831YOPS   C1A12123   6.900  15.539   6.708 -0.1526 -0.0786  0.1686
  831YOPS   D2A12124   7.069  15.454   7.080 -0.0451  0.2592 -0.2506
  831YOPS   C3A12125   7.190  15.317   7.480 -0.0824  0.0491 -0.1026
  831YOPS   C4A12126   6.983  15.199   7.838  0.0803 -0.2002  0.0122
  831YOPS   C1B12127   7.351  15.364   6.629 -0.5647 -0.0902 -0.0586
  831YOPS   C2B12128   7.643  15.392   7.038 -0.3250  0.1176  0.0477
  831YOPS   D3B12129   7.849  15.387   7.380  0.1001  0.2803  0.0978
  831YOPS   C4B12130   7.967  14.946   7.599 -0.0194 -0.0088  0.0163
  832YOPS   CNO12131   1.229  16.044   5.752 -0.3469  0.1605  0.1186
  832YOPS   PO412132   1.269  15.863   6.081  0.1817  0.0068 -0.2382
  832YOPS   GL112133   1.261  15.853   6.519  0.2349  0.1183  0.3600
  832YOPS   GL212134   0.963  15.900   6.553 -0.2645 -0.4133  0.3341
  832YOPS   C1A12135   1.332  15.969   6.953 -0.2284  0.0284  0.1280
  832YOPS   D2A12136   1.457  16.156   7.266  0.1616 -0.3225 -0.2804
  832YOPS   C3A12137   1.338  16.196   7.695 -0.0473 -0.2639  0.1580
  832YOPS   C4A12138   1.005  15.807   7.853  0.0449 -0.3487  0.2076
  832YOPS   C1B12139   0.889  16.173   6.946 -0.1186 -0.0629  0.0699
  832YOPS   C2B12140   0.751  16.087   7.455 -0.0586 -0.0358  0.0135
  832YOPS   D3B12141   0.367  16.186   7.721 -0.3531  0.0780 -0.2704
  832YOPS   C4B12142   0.378  15.857   8.057  0.0990  0.0007 -0.2126
  833YOPS   CNO12143  13.009  17.727   5.904 -0.0549  0.1237 -0.1750
  833YOPS   PO412144  13.339  17.463   5.930 -0.0980 -0.0939 -0.1592
  833YOPS   GL112145  13.237  17.526   6.379  0.1042 -0.0017  0.2192
  833YOPS   GL212146  13.227  17.209   6.412 -0.1745 -0.0583  0.0338
  833YOPS   C1A12147  13.037  17.426   6.779 -0.1374  0.2263 -0.0146
  833YOPS   D2A12148  12.982  17.557   7.244 -0.2956  0.1816  0.0745
  833YOPS   C3A12149  13.160  17.579   7.690  0.1475 -0.1692  0.0531
  833YOPS   C4A12150  13.583  17.459   7.758  0.2132 -0.0774  0.3384
  833YOPS   C1B12151  13.329  16.998   6.809  0.2652 -0.0633  0.0582
  833YOPS   C2B12152  13.583  16.693   7.035  0.0487 -0.2986  0.3162
  833YOPS   D3B12153  13.869  16.634   7.335  0.0022 -0.2164  0.1963
  833YOPS   C4B12154  13.638  16.585   7.584 -0.0878 -0.1929 -0.2311
  834YOPS   CNO12155   6.452  10.183   6.127  0.1185 -0.2002 -0.1406
  834YOPS   PO412156   6.666  10.587   6.163 -0.1157  0.2419  0.0500
  834YOPS   GL112157   6.863  10.810   6.429  0.3255 -0.1443 -0.3459
  834YOPS   GL212158   6.674  11.092   6.378 -0.0377  0.2308 -0.1201
  834YOPS   C1A12159   6.802  10.847   6.833 -0.4806 -0.0331 -0.1031
  834YOPS   D2A12160   6.891  10.875   7.273  0.2538 -0.1304 -0.0412
  834YOPS   C3A12161   7.056  10.597   7.547  0.0485 -0.0887  0.0845
  834YOPS   C4A12162   7.278  10.647   7.850  0.3805  0.0291  0.3261
  834YOPS   C1B12163   6.570  11.344   6.719  0.2223  0.0890  0.5442
  834YOPS   C2B12164   6.807  11.425   7.131  0.1069 -0.4212  0.0892
  834YOPS   D3B12165   6.822  11.434   7.653 -0.2060  0.0499 -0.0238
  834YOPS   C4B12166   6.708  11.125   7.695  0.0948 -0.0988 -0.0708
  835YOPS   CNO12167   7.164   6.123   5.836  0.2942 -0.0750 -0.1534
  835YOPS   PO412168   7.473   6.428   5.880  0.0519  0.2811 -0.1673
  835YOPS   GL112169   7.480   6.487   6.362  0.0688 -0.0308 -0.0902
  835YOPS   GL212170   7.684   6.318   6.470  0.0704 -0.4676 -0.0122
  835YOPS   C1A12171   7.399   6.532   6.810 -0.2704  0.3396 -0.1281
  835YOPS   D2A12172   7.341   6.721   7.242  0.0880 -0.1308 -0.2562
  835YOPS   C3A12173   7.207   6.678   7.703  0.0663 -0.4000  0.3957
  835YOPS   C4A12174   7.013   6.579   8.022  0.2677  0.0505 -0.2475
  835YOPS   C1B12175   7.505   5.993   6.857 -0.2968  0.0360  0.2058
  835YOPS   C2B12176   7.453   5.834   7.244 -0.0039  0.0402 -0.0235
  835YOPS   D3B12177   7.734   5.929   7.643  0.1592 -0.4293  0.1612
  835YOPS   C4B12178   7.839   5.531   7.945 -0.3143 -0.1480 -0.1293
  836YOPS   CNO12179   2.763   0.141   5.962 -0.0447 -0.1978  0.3086
  836YOPS   PO412180   2.357   0.271   6.005  0.1281 -0.0001 -0.1147
  836YOPS   GL112181   2.562   0.299   6.418  0.1674 -0.0355 -0.0853
  836YOPS   GL212182   2.715   0.632   6.470  0.0347 -0.0915  0.1094
  836YOPS   C1A12183   2.540   0.207   6.845  0.0187  0.2473  0.0217
  836YOPS   D2A12184   2.584   0.173   7.272  0.1715 -0.1104  0.2861
  836YOPS   C3A12185   2.705   0.282   7.624 -0.2770  0.0683  0.1993
  836YOPS   C4A12186   2.369   0.489   7.752 -0.2303  0.0432  0.2464
  836YOPS   C1B12187   2.645   0.748   6.933 -0.2069  0.0499  0.0046
  836YOPS   C2B12188   2.566   0.843   7.346 -0.0448  0.0138 -0.1217
  836YOPS   D3B12189   2.349   1.222   7.495 -0.3805 -0.3600 -0.0560
  836YOPS   C4B12190   2.532   1.599   7.620  0.0314 -0.0502 -0.0930
  837YOPS   CNO12191   8.961   1.669   6.140  0.1537  0.0936  0.0674
  837YOPS   PO412192   9.017   2.085   6.060  0.1639 -0.0009 -0.0868
  837YOPS   GL112193   8.922   2.200   6.456  0.1076  0.0008 -0.0301
  837YOPS   GL212194   8.943   1.975   6.574 -0.2768 -0.0757 -0.0974
  837YOPS   C1A12195   8.694   2.406   6.797  0.3170  0.2098 -0.0052
  837YOPS   D2A12196   8.546   2.374   7.219 -0.2832  0.3322 -0.1234
  837YOPS   C3A12197   8.213   2.033   7.352  0.0488 -0.1800 -0.2060
  837YOPS   C4A12198   7.792   2.221   7.502 -0.1137  0.5415 -0.0422
  837YOPS   C1B12199   8.805   1.998   7.043  0.0599 -0.0641 -0.0584
  837YOPS   C2B12200   8.725   1.877   7.341 -0.1634 -0.0429 -0.0828
  837YOPS   D3B12201   8.554   2.054   7.672  0.0747  0.1066 -0.1378
  837YOPS   C4B12202   8.182   2.071   7.860  0.3139 -0.0006  0.0235
  838YOPS   CNO12203  11.374  12.606   5.908 -0.3333 -0.0440 -0.1163
  838YOPS   PO412204  11.351  13.015   5.908  0.0210  0.0301  0.1286
  838YOPS   GL112205  11.184  13.269   6.245  0.0356 -0.0398 -0.0291
  838YOPS   GL212206  10.877  13.247   6.281  0.0534  0.4468 -0.0287
  838YOPS   C1A12207  11.334  13.517   6.533 -0.4561 -0.1253 -0.0751
  838YOPS   D2A12208  11.439  13.880   6.892 -0.0112 -0.1363 -0.0370
  838YOPS   C3A12209  11.649  14.227   7.056  0.4108 -0.2350 -0.0811
  838YOPS   C4A12210  11.970  14.139   7.309 -0.1112 -0.0050  0.0277
  838YOPS   C1B12211  10.941  13.259   6.772  0.0890 -0.0859  0.2424
  838YOPS   C2B12212  10.941  13.263   7.224  0.3278  0.1144 -0.1020
  838YOPS   D3B12213  11.083  13.271   7.634  0.0009 -0.0580  0.3201
  838YOPS   C4B12214  11.134  13.427   8.013 -0.0793 -0.1713 -0.0821
  839YOPS   CNO12215   5.458   0.281   6.097  0.0018 -0.0569 -0.2148
  839YOPS   PO412216   5.744   0.565   5.886  0.1868  0.0667 -0.0181
  839YOPS   GL112217   5.767   0.568   6.381 -0.0852  0.1564  0.1517
  839YOPS   GL212218   6.170   0.478   6.485 -0.2281 -0.2651 -0.1940
  839YOPS   C1A12219   5.511   0.518   6.751  0.1423 -0.2168  0.4244
  839YOPS   D2A12220   5.404   0.615   7.178  0.2858  0.0129 -0.1381
  839YOPS   C3A12221   5.299   0.856   7.565  0.1365 -0.0862  0.1967
  839YOPS   C4A12222   4.875   0.700   7.745 -0.1452 -0.1885 -0.2959
  839YOPS   C1B12223   6.038   0.444   6.886  0.1066 -0.2759 -0.0804
  839YOPS   C2B12224   5.885   0.702   7.318  0.0796  0.4795  0.2438
  839YOPS   D3B12225   5.798   0.834   7.744 -0.1512 -0.1193  0.1094
  839YOPS   C4B12226   5.386   0.602   7.993 -0.3938 -0.0346 -0.0019
  840YOPS   CNO12227  12.788  14.389   5.939  0.0330 -0.0025  0.1062
  840YOPS   PO412228  12.968  13.993   6.053 -0.0125 -0.3306 -0.0471
  840YOPS   GL112229  13.006  13.897   6.480 -0.0599  0.1216  0.0879
  840YOPS   GL212230  13.346  14.006   6.581  0.2643  0.2176 -0.0033
  840YOPS   C1A12231  12.803  13.771   6.918 -0.2568 -0.1836 -0.0555
  840YOPS   D2A12232  12.835  13.775   7.280 -0.1333 -0.1793  0.0586
  840YOPS   C3A12233  12.909  13.574   7.671  0.1553  0.2286 -0.1883
  840YOPS   C4A12234  13.289  13.570   7.813 -0.1501 -0.1028  0.2625
  840YOPS   C1B12235  13.240  13.939   7.056  0.0111  0.0916 -0.1341
  840YOPS   C2B12236  13.014  14.254   7.349  0.0935  0.2412  0.2982
  840YOPS   D3B12237  12.920  14.367   7.681  0.0833 -0.2360 -0.2396
  840YOPS   C4B12238  13.049  14.098   8.008 -0.2115  0.1212  0.0828
  841POPE   NH312239   6.851   8.915   6.111 -0.1055 -0.0747  0.2879
  841POPE   PO412240   6.913   9.326   5.804  0.4251 -0.1210 -0.1398
  841POPE   GL112241   6.824   9.414   6.234  0.4560 -0.0689 -0.3582
  841POPE   GL212242   6.673   9.263   6.356  0.0416 -0.0882  0.0736
  841POPE   C1A12243   6.906   9.489   6.711 -0.0545 -0.0508 -0.1573
  841POPE   D2A12244   6.888   9.521   7.201  0.0826  0.0776  0.1368
  841POPE   C3A12245   6.597   9.326   7.363 -0.2407  0.0366  0.0980
  841POPE   C4A12246   6.249   9.109   7.502 -0.1389 -0.1590 -0.0071
  841POPE   C1B12247   6.575   9.089   6.698 -0.1087  0.0469  0.0889
  841POPE   C2B12248   6.435   8.965   7.082  0.1094 -0.1184  0.0134
  841POPE   C3B12249   6.357   8.622   7.476  0.1043 -0.0028 -0.1102
  841POPE   C4B12250   6.233   8.747   7.906 -0.0119 -0.0925  0.2282
  842POPE   NH312251   0.610   6.737   5.958  0.1302  0.1868 -0.0341
  842POPE   PO412252   0.705   7.041   6.191 -0.2271 -0.1257  0.1718
  842POPE   GL112253   0.953   7.063   6.560  0.1968  0.2605  0.0599
  842POPE   GL212254   0.810   7.315   6.654 -0.1597 -0.1977 -0.2640
  842POPE   C1A12255   1.099   6.800   6.940 -0.2169  0.0227 -0.1755
  842POPE   D2A12256   1.371   6.498   7.170 -0.0292  0.0732 -0.1371
  842POPE   C3A12257   1.624   6.742   7.533  0.0015  0.1063  0.3571
  842POPE   C4A12258   1.941   6.922   7.765  0.3555  0.3855 -0.2795
  842POPE   C1B12259   0.757   7.521   7.022 -0.0448  0.2058  0.0104
  842POPE   C2B12260   0.400   7.527   7.342  0.1517 -0.3525 -0.0426
  842POPE   C3B12261   0.475   7.732   7.810  0.2092  0.0748 -0.1486
  842POPE   C4B12262   0.186   7.751   8.238 -0.3790 -0.0248  0.4363
  843POPE   NH312263  10.148   2.922   6.210  0.2863  0.1033  0.2457
  843POPE   PO412264   9.878   3.267   6.219 -0.2075  0.0188  0.0774
  843POPE   GL112265   9.886   3.081   6.687  0.2564  0.3582  0.5580
  843POPE   GL212266  10.162   2.876   6.766  0.0340  0.0277  0.1434
  843POPE   C1A12267   9.744   3.146   6.993  0.0543  0.0293 -0.0312
  843POPE   D2A12268   9.749   3.161   7.381  0.2692 -0.0747 -0.1634
  843POPE   C3A12269   9.893   2.834   7.618  0.3192  0.0556 -0.1247
  843POPE   C4A12270   9.932   2.575   7.906  0.0491  0.2292 -0.4504
  843POPE   C1B12271  10.118   2.845   7.160  0.2010  0.0898  0.0822
  843POPE   C2B12272  10.190   2.485   7.483 -0.1381 -0.0176 -0.0865
  843POPE   C3B12273  10.138   2.159   7.635 -0.2881 -0.1094 -0.0776
  843POPE   C4B12274  10.004   2.061   8.066  0.1511  0.2089 -0.0541
  844POPE   NH312275   0.060  10.528   6.081 -0.3090 -0.0470  0.2241
  844POPE   PO412276   0.460  10.646   6.154  0.1538 -0.1099 -0.1541
  844POPE   GL112277   0.358  10.602   6.545 -0.0941  0.0737 -0.0436
  844POPE   GL212278   0.075  10.665   6.574 -0.2385  0.0215 -0.2141
  844POPE   C1A12279   0.290  10.392   6.880 -0.1093  0.2192  0.0037
  844POPE   D2A12280   0.062  10.096   7.094 -0.3472 -0.0281 -0.1342
  844POPE   C3A12281   0.148   9.897   7.486  0.1674  0.0740 -0.0835
  844POPE   C4A12282   0.128   9.787   7.929  0.0067 -0.0902 -0.0112
  844POPE   C1B12283  -0.082  10.731   6.970  0.1093 -0.0973  0.1465
  844POPE   C2B12284  -0.223  10.458   7.275  0.0370 -0.0748  0.0204
  844POPE   C3B12285  -0.158  10.633   7.622  0.1965 -0.1449  0.5212
  844POPE   C4B12286  -0.307  10.600   8.062  0.3148  0.2134  0.1165
  845POPE   NH312287   1.645   4.940   5.994  0.0849  0.3610  0.3088
  845POPE   PO412288   1.248   5.252   5.832 -0.2324 -0.0796  0.2052
  845POPE   GL112289   1.328   5.213   6.251  0.1008 -0.2694  0.0971
  845POPE   GL212290   1.687   5.320   6.371 -0.2829  0.0202  0.0226
  845POPE   C1A12291   1.237   5.303   6.660 -0.2197 -0.1290 -0.0934
  845POPE   D2A12292   1.523   5.546   6.902  0.1137 -0.1229 -0.2168
  845POPE   C3A12293   1.766   5.489   7.312  0.0742 -0.0451 -0.0632
  845POPE   C4A12294   1.951   5.255   7.739 -0.1163 -0.0586  0.4434
  845POPE   C1B12295   1.633   5.005   6.669 -0.1245 -0.1355 -0.0159
  845POPE   C2B12296   1.468   5.076   7.140 -0.3544  0.1868 -0.2693
  845POPE   C3B12297   1.262   5.245   7.533  0.0891 -0.1085 -0.4458
  845POPE   C4B12298   0.964   5.524   7.792 -0.2097  0.0447 -0.2681
  846POPE   NH312299   9.391  16.193   6.065  0.0326 -0.0717  0.0159
  846POPE   PO412300   9.698  16.574   6.173 -0.2794 -0.0022  0.2723
  846POPE   GL112301   9.706  16.761   6.588 -0.0785  0.0970  0.0420
  846POPE   GL212302   9.846  17.065   6.546  0.1167  0.0371  0.2317
  846POPE   C1A12303   9.903  16.641   7.084  0.1141  0.1907 -0.1468
  846POPE   D2A12304   9.928  16.594   7.536  0.0407  0.3429  0.0778
  846POPE   C3A12305   9.670  16.412   7.874  0.0077  0.1973 -0.3568
  846POPE   C4A12306   9.572  16.306   8.326 -0.1435 -0.1453 -0.2048
  846POPE   C1B12307   9.561  17.034   6.965  0.2378 -0.2142 -0.1684
  846POPE   C2B12308   9.375  17.127   7.378 -0.1542 -0.1762 -0.0185
  846POPE   C3B12309   9.489  16.864   7.710 -0.0381  0.1109 -0.1243
  846POPE   C4B12310   9.331  16.705   8.099 -0.1071  0.0395 -0.1359
  847POPE   NH312311   9.706   1.113   5.814 -0.0547  0.0912 -0.0226
  847POPE   PO412312   9.968   1.363   6.070 -0.1534  0.1597 -0.3326
  847POPE   GL112313  10.180   1.507   6.498  0.1713  0.1269  0.0144
  847POPE   GL212314  10.125   1.879   6.606  0.0809  0.1214  0.1083
  847POPE   C1A12315  10.330   1.354   6.861  0.1947  0.4102 -0.0444
  847POPE   D2A12316  10.359   1.385   7.349 -0.1843  0.2068  0.1644
  847POPE   C3A12317  10.416   1.716   7.725  0.0439  0.3182  0.1351
  847POPE   C4A12318  10.327   1.719   8.059  0.3651  0.1276 -0.1906
  847POPE   C1B12319  10.441   1.846   6.809 -0.4059  0.1319 -0.1754
  847POPE   C2B12320  10.682   1.678   7.068 -0.0215  0.1962  0.1754
  847POPE   C3B12321  10.923   1.581   7.488  0.0439  0.0539  0.0344
  847POPE   C4B12322  10.919   1.797   7.838  0.0456 -0.1142 -0.1333
  848POPE   NH312323   0.006   8.577   6.351 -0.1759 -0.1474 -0.4379
  848POPE   PO412324   0.391   8.841   6.352 -0.2481 -0.2746  0.2329
  848POPE   GL112325   0.373   8.598   6.776 -0.0774  0.1097  0.2832
  848POPE   GL212326   0.684   8.522   6.754 -0.0868  0.2865 -0.4428
  848POPE   C1A12327   0.270   8.523   7.147  0.0355  0.1338 -0.0731
  848POPE   D2A12328   0.122   8.361   7.630 -0.0712  0.3774 -0.5338
  848POPE   C3A12329  -0.051   8.005   7.858  0.0161 -0.1735  0.4417
  848POPE   C4A12330  -0.298   7.902   8.229  0.0023 -0.2414 -0.0541
  848POPE   C1B12331   0.818   8.502   7.179  0.1870  0.0951  0.0387
  848POPE   C2B12332   0.992   8.530   7.598  0.1581  0.2935 -0.2385
  848POPE   C3B12333   1.036   8.628   7.948  0.1834 -0.0809 -0.0049
  848POPE   C4B12334   1.317   8.697   8.273  0.3735  0.1272 -0.0808
  849POPE   NH312335   2.610  14.052   6.226  0.0797 -0.0604  0.2510
  849POPE   PO412336   2.652  14.541   6.109 -0.0432  0.1900  0.2848
  849POPE   GL112337   2.633  14.440   6.597 -0.1324 -0.0249 -0.0670
  849POPE   GL212338   2.352  14.492   6.695  0.1465  0.0343  0.1437
  849POPE   C1A12339   2.637  14.310   7.036  0.0666  0.1202  0.1621
  849POPE   D2A12340   2.735  14.376   7.464  0.2053 -0.1567  0.3172
  849POPE   C3A12341   3.127  14.559   7.592 -0.1413 -0.2577  0.1169
  849POPE   C4A12342   3.325  14.632   8.068  0.0517 -0.3175  0.0946
  849POPE   C1B12343   2.268  14.778   7.029  0.1883 -0.2021  0.0397
  849POPE   C2B12344   2.184  14.885   7.502 -0.2176 -0.2797  0.0551
  849POPE   C3B12345   2.307  15.054   7.879  0.0759 -0.2097 -0.0461
  849POPE   C4B12346   2.538  14.851   8.274 -0.0044 -0.0516  0.1025
  850POPE   NH312347   5.828  16.815   5.734 -0.0360 -0.0632 -0.2095
  850POPE   PO412348   5.837  17.116   6.031 -0.0575  0.1536  0.1794
  850POPE   GL112349   5.504  17.262   6.285  0.0893 -0.3130 -0.4730
  850POPE   GL212350   5.219  17.080   6.406 -0.1341 -0.1268  0.0282
  850POPE   C1A12351   5.258  17.549   6.555  0.3619  0.0503  0.0616
  850POPE   D2A12352   5.046  17.663   6.851  0.0999 -0.0081 -0.1298
  850POPE   C3A12353   4.966  17.819   7.197  0.0373 -0.5139  0.0996
  850POPE   C4A12354   5.096  18.221   7.357 -0.0481  0.0265 -0.1619
  850POPE   C1B12355   5.128  16.798   6.739 -0.0267  0.1485 -0.2561
  850POPE   C2B12356   4.947  16.880   7.145  0.2573 -0.1058  0.0739
  850POPE   C3B12357   5.041  17.071   7.640 -0.3066  0.1041 -0.0280
  850POPE   C4B12358   5.123  17.241   8.102 -0.0159  0.1889  0.0233
  851POPE   NH312359   7.830  17.486   6.011  0.0468 -0.2826 -0.0659
  851POPE   PO412360   8.202  17.640   5.944  0.2251 -0.0319  0.0999
  851POPE   GL112361   8.141  17.660   6.384  0.1768  0.0649 -0.1857
  851POPE   GL212362   8.182  17.341   6.578  0.0900 -0.2466  0.0073
  851POPE   C1A12363   8.348  17.768   6.781  0.1752 -0.0770  0.2240
  851POPE   D2A12364   8.682  17.752   6.942 -0.0699  0.1444  0.0309
  851POPE   C3A12365   8.768  17.863   7.397 -0.1409 -0.1488 -0.2335
  851POPE   C4A12366   8.934  18.002   7.820  0.1042  0.4247  0.0928
  851POPE   C1B12367   8.079  17.122   6.921 -0.6318 -0.0537 -0.1086
  851POPE   C2B12368   7.988  17.203   7.302  0.3940  0.2101  0.1013
  851POPE   C3B12369   8.039  17.427   7.660  0.1609  0.0968  0.2512
  851POPE   C4B12370   8.002  17.513   8.095  0.1683 -0.1549 -0.1522
  852POPE   NH312371  13.325  15.448   6.191  0.0508 -0.1444 -0.2649
  852POPE   PO412372  13.393  15.050   6.409 -0.1724  0.2773 -0.0808
  852POPE   GL112373  13.474  14.749   6.626  0.1222 -0.3641 -0.2299
  852POPE   GL212374  13.753  14.719   6.723 -0.0729 -0.1592  0.1409
  852POPE   C1A12375  13.173  14.403   6.799 -0.0226 -0.2141 -0.1450
  852POPE   D2A12376  12.737  14.337   6.903  0.0120  0.2600 -0.0497
  852POPE   C3A12377  12.504  14.339   7.352 -0.1809  0.1627  0.1204
  852POPE   C4A12378  12.380  14.419   7.668  0.2582  0.3826  0.1331
  852POPE   C1B12379  13.770  14.881   7.161  0.3006  0.1507  0.0654
  852POPE   C2B12380  13.598  14.930   7.537 -0.3734 -0.2366 -0.0691
  852POPE   C3B12381  13.251  14.887   7.786 -0.1812 -0.0210 -0.1544
  852POPE   C4B12382  13.071  15.161   7.985  0.1068  0.0930 -0.2305
  853POPE   NH312383  15.936   4.976   5.763 -0.0002 -0.0561  0.0474
  853POPE   PO412384  15.452   4.816   5.813 -0.0616  0.2651  0.0804
  853POPE   GL112385  15.655   4.889   6.221 -0.1832 -0.0107 -0.0354
  853POPE   GL212386  15.589   5.187   6.334 -0.1406 -0.0396 -0.0346
  853POPE   C1A12387  16.125   4.788   6.505 -0.0541 -0.0390 -0.1537
  853POPE   D2A12388  16.356   4.479   6.804 -0.0984  0.3101 -0.3564
  853POPE   C3A12389  16.422   4.503   7.177  0.0026 -0.2398 -0.1418
  853POPE   C4A12390  16.142   4.301   7.489  0.0706  0.2822 -0.2467
  853POPE   C1B12391  15.821   5.157   6.793  0.1307 -0.1357  0.0311
  853POPE   C2B12392  16.274   5.175   6.971  0.0630  0.1194 -0.2438
  853POPE   C3B12393  16.441   5.373   7.410 -0.0647 -0.0312  0.1477
  853POPE   C4B12394  16.435   5.451   7.783 -0.0554  0.0680  0.1374
  854POPE   NH312395   7.888   3.242   5.944 -0.2264 -0.3436 -0.0991
  854POPE   PO412396   7.441   3.132   6.140  0.1296  0.3267 -0.2808
  854POPE   GL112397   7.414   2.841   6.436 -0.0765  0.0742 -0.0601
  854POPE   GL212398   7.583   3.040   6.694  0.0831 -0.2396  0.1912
  854POPE   C1A12399   7.173   2.605   6.680  0.1822 -0.0451 -0.1424
  854POPE   D2A12400   7.104   2.178   6.927 -0.0984  0.0670  0.0502
  854POPE   C3A12401   7.124   2.234   7.382  0.1429  0.2209 -0.2848
  854POPE   C4A12402   7.263   2.141   7.738 -0.0285 -0.0419  0.0571
  854POPE   C1B12403   7.330   3.059   7.063  0.1221 -0.0724 -0.0830
  854POPE   C2B12404   7.547   3.128   7.479 -0.0636 -0.0921 -0.0874
  854POPE   C3B12405   7.468   3.205   7.913  0.2633  0.3377  0.4614
  854POPE   C4B12406   7.128   2.870   8.127 -0.0704  0.1525 -0.0359
  855POPE   NH312407  12.019   2.315   6.182  0.1364 -0.1815  0.2233
  855POPE   PO412408  11.786   1.847   6.430  0.1756 -0.0849 -0.3959
  855POPE   GL112409  11.647   1.425   6.626 -0.1608  0.1472 -0.0911
  855POPE   GL212410  11.429   1.150   6.415 -0.1712 -0.0398  0.0676
  855POPE   C1A12411  11.620   1.000   6.843 -0.1099 -0.2517  0.2440
  855POPE   D2A12412  11.580   0.584   7.101 -0.2056 -0.0168 -0.1068
  855POPE   C3A12413  11.710   0.543   7.498  0.3338  0.2509 -0.0510
  855POPE   C4A12414  11.825   0.548   7.839  0.2163  0.1023  0.3407
  855POPE   C1B12415  11.074   0.977   6.649 -0.0281 -0.1007  0.1977
  855POPE   C2B12416  10.741   1.028   6.898  0.0103  0.3494 -0.2370
  855POPE   C3B12417  10.747   1.147   7.234  0.0407  0.0111 -0.1835
  855POPE   C4B12418  10.591   0.970   7.504 -0.1019 -0.3730 -0.2610
  856POPE   NH312419   7.280  12.149   5.557  0.3733 -0.0505  0.1771
  856POPE   PO412420   6.894  12.155   5.729  0.1902  0.0946  0.2761
  856POPE   GL112421   6.734  12.016   6.135  0.0658  0.0025  0.0695
  856POPE   GL212422   6.823  12.306   6.313  0.0231 -0.0795  0.4051
  856POPE   C1A12423   6.499  11.947   6.520 -0.0088  0.1686  0.1585
  856POPE   D2A12424   6.519  11.794   6.934  0.0132 -0.1587  0.1442
  856POPE   C3A12425   6.592  11.890   7.351 -0.3397 -0.4230 -0.0808
  856POPE   C4A12426   6.445  12.138   7.633  0.0933 -0.0871 -0.2034
  856POPE   C1B12427   6.645  12.384   6.715 -0.0042 -0.0678  0.2124
  856POPE   C2B12428   6.545  12.448   7.185 -0.0579 -0.1730  0.0466
  856POPE   C3B12429   6.704  12.616   7.551 -0.3087 -0.0930 -0.2799
  856POPE   C4B12430   6.771  12.935   7.889  0.0106 -0.1616 -0.0234
  857POPE   NH312431   8.113  14.262   5.903  0.0044  0.2300  0.0216
  857POPE   PO412432   8.005  14.730   5.896 -0.1757 -0.0075 -0.2153
  857POPE   GL112433   7.796  14.946   6.245  0.0543  0.0358  0.3135
  857POPE   GL212434   7.452  14.864   6.255 -0.0773  0.0802 -0.3059
  857POPE   C1A12435   7.901  15.044   6.611  0.1927 -0.0680 -0.1923
  857POPE   D2A12436   8.041  15.082   7.062 -0.1044  0.2933  0.0853
  857POPE   C3A12437   8.427  15.193   7.321  0.1541  0.1977 -0.0772
  857POPE   C4A12438   8.495  15.424   7.719 -0.1273 -0.2958 -0.1580
  857POPE   C1B12439   7.426  14.859   6.656  0.0937 -0.0034  0.2023
  857POPE   C2B12440   7.608  14.880   6.988  0.1108 -0.2369 -0.2668
  857POPE   C3B12441   7.564  14.978   7.379  0.0119  0.3717 -0.3687
  857POPE   C4B12442   7.387  14.804   7.765  0.4713  0.2172  0.1239
  858POPE   NH312443  11.031   1.316   6.101  0.0889  0.1057 -0.0167
  858POPE   PO412444  10.622   0.993   6.174 -0.1273  0.1248 -0.0443
  858POPE   GL112445  10.344   0.873   6.549  0.0710 -0.1668  0.2168
  858POPE   GL212446   9.994   1.017   6.462 -0.0452 -0.1069 -0.0699
  858POPE   C1A12447  10.414   0.654   6.945  0.4566 -0.2206 -0.0761
  858POPE   D2A12448  10.671   0.370   6.949 -0.1558 -0.0847 -0.0171
  858POPE   C3A12449  10.642  -0.009   7.106  0.1638  0.0956  0.1705
  858POPE   C4A12450  11.025  -0.179   7.232  0.0117  0.0771  0.3119
  858POPE   C1B12451  10.008   0.963   6.909 -0.1846  0.0513  0.0081
  858POPE   C2B12452  10.116   0.931   7.295 -0.1176 -0.2642  0.2235
  858POPE   C3B12453  10.168   0.860   7.693 -0.1069  0.1567 -0.2033
  858POPE   C4B12454  10.448   0.691   8.040 -0.2181 -0.1253  0.0204
  859POPE   NH312455  16.451  13.797   6.256 -0.3097  0.0329  0.2243
  859POPE   PO412456  16.310  14.134   6.282  0.1576 -0.1257  0.2212
  859POPE   GL112457  16.196  14.080   6.677 -0.2134 -0.3398  0.2274
  859POPE   GL212458  16.292  13.784   6.779  0.1031  0.3873  0.1494
  859POPE   C1A12459  16.013  14.164   7.089  0.0489 -0.1661  0.1423
  859POPE   D2A12460  15.918  14.058   7.472  0.0246 -0.0140 -0.0973
  859POPE   C3A12461  15.723  13.808   7.752 -0.0332  0.0000  0.1574
  859POPE   C4A12462  15.724  13.779   8.191  0.2428  0.0236  0.1217
  859POPE   C1B12463  16.382  13.843   7.184 -0.1569  0.2233 -0.2550
  859POPE   C2B12464  16.460  14.056   7.572 -0.0566  0.1857 -0.1787
  859POPE   C3B12465  16.179  14.160   7.904 -0.2763 -0.1450 -0.3868
  859POPE   C4B12466  15.938  14.209   8.272 -0.0063  0.1962 -0.0272
  860POPE   NH312467   3.147  13.382   6.123 -0.2256  0.0656 -0.0026
  860POPE   PO412468   2.769  13.561   6.284 -0.1550  0.0440  0.3233
  860POPE   GL112469   3.067  13.537   6.554  0.1728  0.2215  0.0394
  860POPE   GL212470   3.428  13.552   6.481 -0.0997  0.0299  0.0211
  860POPE   C1A12471   3.165  13.965   6.906 -0.2069  0.0574 -0.0561
  860POPE   D2A12472   3.117  14.153   7.243  0.0972 -0.3410 -0.0754
  860POPE   C3A12473   3.013  14.046   7.725  0.1326  0.0122  0.2430
  860POPE   C4A12474   2.818  13.694   8.015  0.3406  0.1260  0.2719
  860POPE   C1B12475   3.515  13.158   6.666 -0.2977 -0.2641 -0.2207
  860POPE   C2B12476   3.718  13.147   7.088 -0.1079  0.3738  0.3990
  860POPE   C3B12477   3.802  13.105   7.587 -0.0272 -0.1705 -0.0088
  860POPE   C4B12478   3.960  12.838   7.817 -0.5626 -0.1118 -0.1536
  861POPE   NH312479   5.854   9.511   6.218  0.2252 -0.1799 -0.1650
  861POPE   PO412480   5.375   9.701   6.254  0.0050 -0.0452 -0.1294
  861POPE   GL112481   5.544   9.715   6.594  0.0760  0.0054 -0.0406
  861POPE   GL212482   5.447  10.003   6.623  0.0363 -0.2536 -0.0268
  861POPE   C1A12483   5.783   9.669   7.059  0.2133  0.0965 -0.0711
  861POPE   D2A12484   6.097   9.583   7.376 -0.1731 -0.5051 -0.0563
  861POPE   C3A12485   6.010   9.591   7.803 -0.1333  0.0490  0.2446
  861POPE   C4A12486   5.798   9.377   8.202 -0.0765 -0.1066 -0.2686
  861POPE   C1B12487   5.595  10.222   7.001 -0.0810  0.1963 -0.1976
  861POPE   C2B12488   5.389  10.392   7.339  0.1477  0.1102 -0.2310
  861POPE   C3B12489   5.172  10.568   7.669  0.3220  0.2568  0.1035
  861POPE   C4B12490   5.123  10.588   8.085  0.0795 -0.0146  0.0194
  862POPE   NH312491  13.890   6.341   5.829 -0.1614  0.1174 -0.2256
  862POPE   PO412492  14.387   6.289   5.865 -0.1223 -0.1617  0.1804
  862POPE   GL112493  14.409   6.092   6.246 -0.0961 -0.1010  0.1058
  862POPE   GL212494  14.256   6.352   6.356 -0.0630 -0.1932 -0.2330
  862POPE   C1A12495  14.576   5.809   6.542  0.2534  0.0125 -0.1334
  862POPE   D2A12496  14.612   5.788   7.004  0.4099  0.0761 -0.1929
  862POPE   C3A12497  14.906   5.865   7.350  0.1136 -0.0954 -0.0128
  862POPE   C4A12498  15.273   5.830   7.514  0.2140 -0.2397 -0.1035
  862POPE   C1B12499  14.456   6.264   6.767 -0.0543 -0.1051 -0.2273
  862POPE   C2B12500  14.445   6.541   7.188 -0.0143  0.2424 -0.0127
  862POPE   C3B12501  14.653   6.527   7.631  0.2233 -0.1468  0.2673
  862POPE   C4B12502  14.352   6.742   7.978 -0.2341 -0.1420  0.3293
  863POPE   NH312503   5.739  11.942   5.915 -0.2037 -0.0485  0.2115
  863POPE   PO412504   5.913  12.410   5.911 -0.3978 -0.0104 -0.1464
  863POPE   GL112505   5.738  12.245   6.290  0.0663  0.1771 -0.1465
  863POPE   GL212506   5.632  12.583   6.405  0.0367  0.1279  0.1069
  863POPE   C1A12507   5.561  12.166   6.711  0.1027 -0.1800 -0.1302
  863POPE   D2A12508   5.486  12.224   7.061 -0.3266 -0.1714  0.2949
  863POPE   C3A12509   5.721  12.488   7.368 -0.1732 -0.0984 -0.1385
  863POPE   C4A12510   6.129  12.469   7.540 -0.2162 -0.1390  0.0058
  863POPE   C1B12511   5.983  12.870   6.460  0.2147 -0.1218 -0.2326
  863POPE   C2B12512   6.312  12.902   6.742 -0.2004 -0.0252 -0.1311
  863POPE   C3B12513   6.776  12.789   6.494  0.3414 -0.0284 -0.0842
  863POPE   C4B12514   7.145  12.862   6.346 -0.2498  0.0365  0.2226
  864POPE   NH312515  12.755   8.252   5.852 -0.0137 -0.1904 -0.1021
  864POPE   PO412516  12.914   7.871   5.927  0.1689  0.1608 -0.0034
  864POPE   GL112517  12.940   7.718   6.247 -0.1846  0.0236  0.3637
  864POPE   GL212518  13.000   7.304   6.291  0.1346  0.1737 -0.1037
  864POPE   C1A12519  12.738   7.615   6.640 -0.0594 -0.0082 -0.2805
  864POPE   D2A12520  12.700   7.548   7.020 -0.4738 -0.1825 -0.1690
  864POPE   C3A12521  12.694   7.659   7.348 -0.1184  0.0438 -0.0686
  864POPE   C4A12522  12.790   7.923   7.696  0.0189 -0.1297  0.0371
  864POPE   C1B12523  12.926   7.167   6.648 -0.0262 -0.1450 -0.0759
  864POPE   C2B12524  12.971   7.041   7.122  0.1723 -0.2157  0.4154
  864POPE   C3B12525  12.930   7.265   7.487 -0.3650  0.3747  0.0182
  864POPE   C4B12526  13.038   7.460   7.932  0.1820  0.0600  0.0175
  865POPE   NH312527  12.135   0.654   6.263  0.0298 -0.1060 -0.1566
  865POPE   PO412528  12.388   0.206   6.208 -0.1498  0.1318  0.1217
  865POPE   GL112529  12.571   0.234   6.534 -0.1192 -0.0080 -0.0654
  865POPE   GL212530  12.429   0.400   6.763 -0.2631 -0.3359  0.0287
  865POPE   C1A12531  12.733   0.063   6.866  0.0181  0.2495  0.1930
  865POPE   D2A12532  12.937   0.135   7.295 -0.0619 -0.1689  0.1294
  865POPE   C3A12533  13.204   0.478   7.504 -0.1028  0.0915  0.0249
  865POPE   C4A12534  13.491   0.547   7.814  0.4306 -0.0115  0.1752
  865POPE   C1B12535  12.464   0.313   7.199 -0.1557  0.3354  0.0589
  865POPE   C2B12536  12.269   0.267   7.602  0.1494  0.0123  0.1733
  865POPE   C3B12537  12.188  -0.090   7.909  0.0633  0.0020  0.3762
  865POPE   C4B12538  12.549  -0.095   8.143  0.3795 -0.1682  0.1044
  866POPE   NH312539  12.964  15.159   6.023 -0.0350 -0.2487  0.0728
  866POPE   PO412540  12.661  14.942   5.906  0.2036 -0.2262 -0.2813
  866POPE   GL112541  12.576  14.768   6.260  0.1463  0.1807  0.0124
  866POPE   GL212542  12.926  14.743   6.307  0.1029  0.1188 -0.2498
  866POPE   C1A12543  12.329  14.620   6.608 -0.0130  0.0979  0.2216
  866POPE   D2A12544  12.225  14.201   6.886  0.2101  0.0541  0.0360
  866POPE   C3A12545  11.897  13.941   6.730  0.1058  0.0533  0.1438
  866POPE   C4A12546  11.819  13.443   6.664 -0.2627 -0.2239 -0.2919
  866POPE   C1B12547  12.779  14.818   6.760  0.0639 -0.0305  0.4097
  866POPE   C2B12548  12.778  14.799   7.265  0.1616 -0.0843 -0.1767
  866POPE   C3B12549  12.567  14.886   7.706 -0.0427  0.3027  0.1069
  866POPE   C4B12550  12.261  14.774   8.085  0.0441  0.0428  0.0978
  867POPE   NH312551  14.399   7.537   5.294 -0.3164 -0.1151 -0.0752
  867POPE   PO412552  14.360   7.587   5.684 -0.3454  0.0989  0.1639
  867POPE   GL112553  14.575   7.417   6.088  0.1053  0.2662 -0.0918
  867POPE   GL212554  14.817   7.643   6.236  0.1033  0.0833 -0.1297
  867POPE   C1A12555  14.509   7.395   6.539  0.2661  0.3265  0.0196
  867POPE   D2A12556  14.357   7.583   6.947  0.0575 -0.1318 -0.0091
  867POPE   C3A12557  14.277   7.808   7.309  0.0163 -0.0738  0.0581
  867POPE   C4A12558  14.483   8.033   7.685  0.3188  0.2011 -0.1527
  867POPE   C1B12559  14.878   8.078   6.342  0.0341  0.0112  0.1083
  867POPE   C2B12560  14.943   8.323   6.713  0.0780  0.0255  0.1503
  867POPE   C3B12561  14.915   8.705   7.050 -0.0332 -0.1271  0.1122
  867POPE   C4B12562  14.841   9.049   7.363  0.2518 -0.0913  0.0693
  868POPE   NH312563   2.073  14.692   6.197 -0.1673 -0.2432 -0.4115
  868POPE   PO412564   1.906  15.147   6.177 -0.1095 -0.0628 -0.0447
  868POPE   GL112565   1.812  15.043   6.595 -0.0081 -0.1970  0.2325
  868POPE   GL212566   1.838  14.730   6.754 -0.0164  0.0765  0.0666
  868POPE   C1A12567   1.520  15.031   6.975 -0.0351 -0.0488 -0.1440
  868POPE   D2A12568   1.458  15.229   7.286  0.3313  0.0119  0.1121
  868POPE   C3A12569   1.693  15.114   7.595  0.2610 -0.0482  0.0698
  868POPE   C4A12570   1.840  15.161   7.995 -0.2054 -0.2621  0.0783
  868POPE   C1B12571   1.818  14.674   7.216  0.0525 -0.1142  0.1456
  868POPE   C2B12572   1.784  14.569   7.607 -0.0000  0.1744 -0.3523
  868POPE   C3B12573   1.963  14.657   7.930 -0.1281 -0.0142  0.0962
  868POPE   C4B12574   2.021  14.881   8.361 -0.2615 -0.3311 -0.0379
  869POPE   NH312575   3.276  15.395   5.958  0.0500 -0.0522 -0.0116
  869POPE   PO412576   3.365  14.975   6.057 -0.2233  0.0131 -0.0952
  869POPE   GL112577   3.163  15.167   6.397 -0.3876  0.2243 -0.4917
  869POPE   GL212578   2.976  14.843   6.585 -0.1489  0.0667  0.1393
  869POPE   C1A12579   3.232  15.290   6.842  0.1334 -0.0003 -0.4010
  869POPE   D2A12580   3.453  15.442   7.237  0.2293  0.2146  0.0522
  869POPE   C3A12581   3.511  15.342   7.678 -0.0709  0.4248  0.1620
  869POPE   C4A12582   3.679  15.457   7.981  0.4210 -0.1765 -0.1679
  869POPE   C1B12583   2.693  14.953   6.791 -0.1243 -0.0894  0.0417
  869POPE   C2B12584   2.477  15.239   7.160  0.0369  0.0195 -0.1076
  869POPE   C3B12585   2.556  15.291   7.539  0.2927  0.0358  0.0560
  869POPE   C4B12586   2.725  15.406   7.908  0.0068 -0.1065 -0.2041
  870POPE   NH312587   0.296  11.501   6.296 -0.0613  0.0309 -0.2875
  870POPE   PO412588   0.153  11.754   6.072 -0.0654 -0.0331  0.0785
  870POPE   GL112589   0.051  11.921   6.500  0.0748 -0.1183  0.4386
  870POPE   GL212590   0.378  11.830   6.669  0.2023  0.1126 -0.0334
  870POPE   C1A12591  -0.314  11.986   6.709  0.2910  0.0331 -0.0352
  870POPE   D2A12592  -0.636  11.927   6.994 -0.0980  0.0984  0.0667
  870POPE   C3A12593  -0.627  11.953   7.448  0.0432  0.2951 -0.1892
  870POPE   C4A12594  -0.730  12.305   7.674  0.1896 -0.0113  0.0946
  870POPE   C1B12595   0.486  11.681   7.002 -0.1356  0.1686  0.1063
  870POPE   C2B12596   0.307  11.474   7.400 -0.0524 -0.0525 -0.1482
  870POPE   C3B12597   0.309  11.467   7.837  0.3456 -0.2130 -0.3170
  870POPE   C4B12598   0.348  11.761   8.180  0.0014  0.0520 -0.1468
  871YOPE   NH312599  14.262   4.067   5.496  0.5554  0.2218  0.1165
  871YOPE   PO412600  14.244   3.971   5.989  0.2410 -0.3225 -0.1921
  871YOPE   GL112601  14.141   3.810   6.343 -0.1701  0.0669  0.0153
  871YOPE   GL212602  14.003   3.537   6.427  0.0603  0.2831 -0.2207
  871YOPE   C1A12603  14.133   4.066   6.759  0.1845 -0.0459  0.1252
  871YOPE   D2A12604  14.144   4.156   7.215 -0.1019 -0.0331 -0.0508
  871YOPE   C3A12605  14.391   4.191   7.544 -0.1599 -0.1953  0.2105
  871YOPE   C4A12606  14.373   3.937   7.961 -0.0478  0.1057 -0.0123
  871YOPE   C1B12607  13.994   3.595   6.855 -0.2312 -0.1227  0.0940
  871YOPE   C2B12608  14.092   3.432   7.227  0.0315  0.0158  0.1585
  871YOPE   D3B12609  14.320   3.625   7.532 -0.4943 -0.0308  0.0714
  871YOPE   C4B12610  14.618   3.542   7.799  0.0941  0.0017 -0.0888
  872YOPE   NH312611  17.533   3.413   5.665  0.0968  0.4122 -0.0547
  872YOPE   PO412612  17.573   2.903   5.711 -0.0365  0.3285  0.1952
  872YOPE   GL112613  17.614   2.656   6.094 -0.0201  0.1777 -0.2927
  872YOPE   GL212614  17.879   2.773   6.359 -0.0776  0.1730  0.0814
  872YOPE   C1A12615  17.303   2.565   6.505  0.0577 -0.3075 -0.1394
  872YOPE   D2A12616  17.014   2.600   6.721  0.1583 -0.3340  0.1310
  872YOPE   C3A12617  16.580   2.749   6.550  0.2503 -0.1830  0.2097
  872YOPE   C4A12618  16.514   3.101   6.167 -0.2590 -0.0612  0.0046
  872YOPE   C1B12619  17.735   2.666   6.776 -0.0238 -0.1059  0.0272
  872YOPE   C2B12620  17.546   2.783   7.218 -0.0315  0.1285 -0.0258
  872YOPE   D3B12621  17.237   2.808   7.461  0.0272 -0.0247 -0.1258
  872YOPE   C4B12622  16.950   3.093   7.649  0.1431  0.2318  0.1820
  873YOPE   NH312623   6.304  17.361   6.056  0.2016 -0.2374  0.1319
  873YOPE   PO412624   6.444  17.919   6.101  0.0056  0.0781  0.3196
  873YOPE   GL112625   6.516  18.095   6.421 -0.0427  0.4690 -0.0695
  873YOPE   GL212626   6.808  17.994   6.390 -0.3697  0.2586  0.0702
  873YOPE   C1A12627   6.521  18.128   6.844 -0.2311  0.0265 -0.4321
  873YOPE   D2A12628   6.561  18.173   7.188  0.1552  0.0481  0.0536
  873YOPE   C3A12629   6.227  18.222   7.447 -0.0293  0.2231 -0.4023
  873YOPE   C4A12630   6.158  18.459   7.686  0.0604 -0.2436 -0.3220
  873YOPE   C1B12631   6.771  18.457   6.521  0.1784  0.3442 -0.5676
  873YOPE   C2B12632   6.959  18.635   6.939  0.1149 -0.0185  0.0044
  873YOPE   D3B12633   6.903  18.865   7.252  0.2396 -0.0398 -0.3749
  873YOPE   C4B12634   6.966  18.890   7.785 -0.2441  0.0183 -0.0885
  874YOPE   NH312635   6.971  16.961   5.940  0.0995 -0.5201  0.3164
  874YOPE   PO412636   6.783  17.343   5.860  0.0743  0.1766 -0.1522
  874YOPE   GL112637   6.788  17.528   6.258 -0.0367  0.0898  0.0455
  874YOPE   GL212638   6.525  17.526   6.492 -0.0627  0.3767  0.3485
  874YOPE   C1A12639   7.047  17.667   6.619 -0.2751  0.0532  0.0472
  874YOPE   D2A12640   7.002  18.123   6.857  0.1542  0.1951  0.3968
  874YOPE   C3A12641   7.011  18.329   7.321  0.4322  0.1201 -0.0271
  874YOPE   C4A12642   6.697  18.519   7.595 -0.0227 -0.1483  0.0706
  874YOPE   C1B12643   6.571  17.678   6.922 -0.0588  0.2438 -0.4017
  874YOPE   C2B12644   6.327  17.541   7.270  0.0882 -0.1672 -0.6082
  874YOPE   D3B12645   6.277  17.760   7.644  0.0217 -0.1373 -0.1599
  874YOPE   C4B12646   6.371  18.107   7.954  0.0208 -0.1401  0.2188
  875YOPE   NH312647   4.019   8.531   6.004  0.2458 -0.0100  0.0508
  875YOPE   PO412648   4.396   8.424   5.867 -0.0134  0.3740  0.1775
  875YOPE   GL112649   4.413   8.329   6.397  0.1335 -0.0516  0.1761
  875YOPE   GL212650   4.445   8.007   6.542  0.1032 -0.0188 -0.2561
  875YOPE   C1A12651   4.364   8.375   6.882 -0.0702 -0.1557  0.2207
  875YOPE   D2A12652   4.255   8.209   7.331  0.0540 -0.2711  0.0046
  875YOPE   C3A12653   4.500   8.341   7.718 -0.2049 -0.0395 -0.0809
  875YOPE   C4A12654   4.811   8.610   7.903  0.3893  0.1429  0.0283
  875YOPE   C1B12655   4.685   8.046   6.926 -0.1326  0.1475  0.1241
  875YOPE   C2B12656   4.879   7.831   7.294  0.1265 -0.2130 -0.2949
  875YOPE   D3B12657   4.894   8.011   7.790 -0.3482 -0.1208 -0.0201
  875YOPE   C4B12658   5.127   8.175   8.045  0.0767 -0.1063  0.0462
  876YOPE   NH312659   9.053  12.543   5.864  0.2603 -0.3809  0.1645
  876YOPE   PO412660   9.006  12.879   5.876 -0.0787 -0.0222 -0.0804
  876YOPE   GL112661   8.939  12.856   6.279 -0.0462  0.1094 -0.3301
  876YOPE   GL212662   9.035  12.582   6.352  0.0122  0.0895 -0.2840
  876YOPE   C1A12663   8.942  12.970   6.749 -0.2925 -0.0582  0.4162
  876YOPE   D2A12664   8.880  13.064   7.141  0.0980  0.0871 -0.0989
  876YOPE   C3A12665   8.507  13.153   7.393  0.0201 -0.0940 -0.0315
  876YOPE   C4A12666   8.444  13.335   7.709 -0.3566 -0.0337  0.0176
  876YOPE   C1B12667   8.791  12.422   6.644 -0.0903 -0.1118  0.1713
  876YOPE   C2B12668   8.668  12.286   6.997  0.3888  0.0966  0.0143
  876YOPE   D3B12669   8.541  12.205   7.490  0.2190  0.0566 -0.2695
  876YOPE   C4B12670   8.330  12.356   7.847  0.1976 -0.0093 -0.1133
  877YOPE   NH312671   3.854   9.119   5.513 -0.2017  0.0216  0.0235
  877YOPE   PO412672   3.611   8.764   5.807 -0.0620 -0.0258 -0.2130
  877YOPE   GL112673   3.572   8.747   6.218  0.3680 -0.2061  0.1559
  877YOPE   GL212674   3.694   9.086   6.359  0.2726  0.0974 -0.0433
  877YOPE   C1A12675   3.318   8.830   6.594 -0.1923 -0.0515  0.1391
  877YOPE   D2A12676   3.192   8.628   6.876 -0.0843 -0.4460  0.1359
  877YOPE   C3A12677   3.461   8.406   7.202  0.1154 -0.0482  0.0668
  877YOPE   C4A12678   3.776   8.180   7.353 -0.1461  0.0682 -0.2425
  877YOPE   C1B12679   3.681   9.183   6.766  0.0794  0.0081 -0.2373
  877YOPE   C2B12680   3.583   8.934   7.082 -0.1376 -0.2627  0.0419
  877YOPE   D3B12681   3.496   8.797   7.466 -0.1096  0.2637  0.1752
  877YOPE   C4B12682   3.475   8.520   7.670  0.0434 -0.0385  0.0491
  878YOPE   NH312683   0.886  11.394   6.284 -0.0552  0.0514 -0.2514
  878YOPE   PO412684   0.808  11.744   6.449  0.0370 -0.1140  0.0771
  878YOPE   GL112685   1.132  11.625   6.683 -0.0107  0.0860  0.0233
  878YOPE   GL212686   1.437  11.718   6.502 -0.0858 -0.1125 -0.1183
  878YOPE   C1A12687   1.105  11.663   7.088 -0.2249 -0.0942 -0.1614
  878YOPE   D2A12688   0.832  11.617   7.399  0.1156  0.1584 -0.0786
  878YOPE   C3A12689   0.701  11.865   7.721  0.0782 -0.2045 -0.0763
  878YOPE   C4A12690   0.538  12.284   7.817 -0.1278 -0.0400 -0.0194
  878YOPE   C1B12691   1.537  11.502   6.931 -0.1262  0.1554 -0.0422
  878YOPE   C2B12692   1.588  11.499   7.276  0.0910  0.5187 -0.1809
  878YOPE   D3B12693   1.680  11.570   7.735 -0.1284 -0.0640 -0.1626
  878YOPE   C4B12694   1.903  11.223   7.950  0.0180 -0.0242 -0.0269
  879YOPE   NH312695  10.758  15.739   5.776 -0.2076 -0.2544 -0.1546
  879YOPE   PO412696  11.228  15.471   5.906  0.1641  0.0321  0.1291
  879YOPE   GL112697  11.246  15.342   6.294 -0.1594  0.1208  0.4625
  879YOPE   GL212698  11.558  15.181   6.384  0.4075 -0.0923 -0.0693
  879YOPE   C1A12699  11.338  15.568   6.672 -0.0436 -0.0639  0.1576
  879YOPE   D2A12700  11.111  15.424   7.073  0.3386 -0.0126  0.3142
  879YOPE   C3A12701  11.030  15.598   7.437 -0.0907  0.1781  0.1383
  879YOPE   C4A12702  10.819  15.650   7.881  0.1872 -0.1757  0.0646
  879YOPE   C1B12703  11.322  15.083   6.718 -0.3912 -0.1545 -0.1786
  879YOPE   C2B12704  10.954  14.898   6.961  0.0270  0.0985 -0.0662
  879YOPE   D3B12705  10.767  14.766   7.324  0.0564  0.1357  0.1730
  879YOPE   C4B12706  10.612  14.709   7.708  0.0436  0.0428 -0.1961
  880YOPE   NH312707  11.673   9.957   6.065  0.4908  0.1133 -0.1193
  880YOPE   PO412708  11.492  10.332   6.039  0.3510  0.1028  0.2027
  880YOPE   GL112709  11.701  10.378   6.444 -0.0072 -0.0978  0.0378
  880YOPE   GL212710  12.007  10.527   6.485 -0.0752  0.3866  0.0600
  880YOPE   C1A12711  11.674  10.336   6.874 -0.0766  0.0661 -0.1856
  880YOPE   D2A12712  11.457  10.290   7.229 -0.1210  0.1147 -0.0323
  880YOPE   C3A12713  11.647  10.514   7.508 -0.1099  0.2541  0.0714
  880YOPE   C4A12714  11.666  10.806   7.936  0.2045 -0.1577  0.1284
  880YOPE   C1B12715  12.123  10.703   6.889  0.2458  0.0446  0.1343
  880YOPE   C2B12716  12.108  10.693   7.317 -0.2522 -0.0612  0.0399
  880YOPE   D3B12717  12.059  10.463   7.717  0.0927 -0.1746  0.0301
  880YOPE   C4B12718  12.060  10.488   8.094  0.3268  0.2604  0.2563
  881YOPE   NH312719  17.214  14.154   6.464 -0.3048 -0.0914  0.0050
  881YOPE   PO412720  16.942  14.048   6.267 -0.1102  0.0443  0.0315
  881YOPE   GL112721  16.711  14.298   6.552  0.0067  0.1102  0.0575
  881YOPE   GL212722  16.866  14.356   6.858 -0.1661  0.1140 -0.0967
  881YOPE   C1A12723  16.423  14.566   6.735  0.2339  0.1335 -0.2777
  881YOPE   D2A12724  16.063  14.639   6.899  0.0697  0.0815 -0.0492
  881YOPE   C3A12725  16.216  14.995   7.166 -0.0340 -0.2260 -0.2947
  881YOPE   C4A12726  16.549  15.152   7.309  0.0943  0.0779  0.0092
  881YOPE   C1B12727  16.567  14.290   7.118 -0.0302 -0.2076  0.2632
  881YOPE   C2B12728  16.289  14.556   7.344  0.0352  0.3382  0.3368
  881YOPE   D3B12729  16.439  14.886   7.694  0.1714 -0.0114  0.0210
  881YOPE   C4B12730  16.457  14.940   8.128 -0.1609 -0.2645 -0.2517
  882YOPE   NH312731  15.365  15.575   6.368 -0.3891 -0.3957  0.1665
  882YOPE   PO412732  15.535  15.932   6.554 -0.1806  0.0200 -0.0388
  882YOPE   GL112733  15.478  16.020   6.945 -0.1539 -0.0974 -0.1203
  882YOPE   GL212734  15.811  16.038   6.965  0.1216 -0.1219 -0.2684
  882YOPE   C1A12735  15.318  16.112   7.243 -0.0156 -0.3077 -0.1181
  882YOPE   D2A12736  15.273  16.216   7.571 -0.0153  0.4998 -0.2815
  882YOPE   C3A12737  15.416  16.612   7.684 -0.3055  0.3413  0.3982
  882YOPE   C4A12738  15.841  16.747   7.659  0.1434 -0.0667  0.0715
  882YOPE   C1B12739  16.177  16.012   7.200  0.2321 -0.2475  0.1247
  882YOPE   C2B12740  16.628  16.145   7.241  0.0069  0.1188 -0.5070
  882YOPE   D3B12741  16.774  16.219   7.686  0.2726 -0.2566  0.2183
  882YOPE   C4B12742  17.111  16.371   8.011 -0.3025  0.2621  0.3481
  883YOPE   NH312743  15.030  17.789   5.955 -0.0092  0.0817  0.2741
  883YOPE   PO412744  15.319  18.158   5.777 -0.1326 -0.0393 -0.2675
  883YOPE   GL112745  15.384  18.195   6.209 -0.0580  0.0665 -0.2068
  883YOPE   GL212746  15.480  17.997   6.436 -0.0047 -0.4766 -0.0074
  883YOPE   C1A12747  15.067  18.266   6.467 -0.1617 -0.0295  0.1430
  883YOPE   D2A12748  14.706  18.326   6.642  0.0522 -0.1382  0.0399
  883YOPE   C3A12749  14.610  18.346   7.088  0.1291 -0.2196 -0.1572
  883YOPE   C4A12750  14.568  18.404   7.497  0.2160  0.3465 -0.0023
  883YOPE   C1B12751  15.360  17.982   6.895 -0.2254  0.0152 -0.1158
  883YOPE   C2B12752  15.621  18.109   7.212  0.1495 -0.2162  0.1263
  883YOPE   D3B12753  15.809  17.796   7.504  0.0348 -0.4038  0.0535
  883YOPE   C4B12754  16.160  17.777   7.703 -0.3693  0.0064  0.2334
  884YOPE   NH312755   1.789   9.971   6.068  0.1649 -0.0655  0.1509
  884YOPE   PO412756   1.664   9.532   6.174  0.0367  0.0424  0.0544
  884YOPE   GL112757   1.692   9.778   6.532  0.1132 -0.1495 -0.0551
  884YOPE   GL212758   1.459   9.649   6.709 -0.3272 -0.3076 -0.2869
  884YOPE   C1A12759   1.992   9.765   6.909  0.1628  0.1951  0.2547
  884YOPE   D2A12760   1.915   9.793   7.372  0.3417  0.1131  0.0116
  884YOPE   C3A12761   2.081  10.065   7.714 -0.0820 -0.1990  0.0723
  884YOPE   C4A12762   2.269  10.147   8.086 -0.3103 -0.1070 -0.1383
  884YOPE   C1B12763   1.392   9.273   6.980 -0.0982 -0.3601  0.1531
  884YOPE   C2B12764   1.595   8.904   7.208 -0.1843  0.0786  0.1402
  884YOPE   D3B12765   1.729   8.472   6.938  0.0772  0.2322  0.1411
  884YOPE   C4B12766   1.516   8.034   6.825  0.0120 -0.4692 -0.0527
  885YOPE   NH312767  16.228  16.526   6.461 -0.0637  0.1065  0.0116
  885YOPE   PO412768  15.888  16.903   6.557 -0.2353 -0.1351  0.2821
  885YOPE   GL112769  15.761  16.835   6.905  0.0086 -0.1635  0.1668
  885YOPE   GL212770  15.729  17.115   6.974  0.4704  0.0496  0.1222
  885YOPE   C1A12771  15.691  16.474   7.201  0.1304 -0.0771 -0.0374
  885YOPE   D2A12772  15.751  16.145   7.489 -0.0423 -0.0157  0.0210
  885YOPE   C3A12773  15.779  15.947   7.888  0.3045 -0.0353  0.0880
  885YOPE   C4A12774  15.824  16.009   8.372 -0.2995  0.0021 -0.0649
  885YOPE   C1B12775  15.517  16.980   7.347  0.2010  0.0696 -0.0865
  885YOPE   C2B12776  15.529  17.126   7.777 -0.0664 -0.0282 -0.2525
  885YOPE   D3B12777  15.800  17.543   7.920 -0.4018 -0.3802  0.0642
  885YOPE   C4B12778  16.071  17.787   8.353  0.3518 -0.1202 -0.0687
  886YOPE   NH312779  11.839   8.175   5.821 -0.1162 -0.0434  0.0604
  886YOPE   PO412780  12.207   8.277   5.664 -0.0497  0.2464  0.0078
  886YOPE   GL112781  12.313   8.268   6.084  0.4615 -0.1072  0.1181
  886YOPE   GL212782  12.511   7.954   6.246  0.1179  0.1394  0.0504
  886YOPE   C1A12783  12.444   8.548   6.459  0.1794 -0.0399 -0.2801
  886YOPE   D2A12784  12.571   8.501   6.907 -0.3548 -0.1284 -0.1316
  886YOPE   C3A12785  12.729   8.740   7.205  0.2852  0.0243 -0.2747
  886YOPE   C4A12786  12.939   9.051   7.357 -0.1522  0.1073  0.1836
  886YOPE   C1B12787  12.416   8.093   6.676  0.1044  0.0714  0.0688
  886YOPE   C2B12788  12.447   8.056   7.166 -0.1057 -0.2865 -0.0217
  886YOPE   D3B12789  12.640   8.385   7.595  0.1056  0.2263 -0.0090
  886YOPE   C4B12790  12.994   8.409   7.871 -0.1205 -0.1953 -0.2440
  887YOPE   NH312791  11.146   9.894   5.933  0.0977  0.1593  0.3342
  887YOPE   PO412792  10.929  10.303   5.991  0.0424 -0.0016  0.0416
  887YOPE   GL112793  10.898  10.336   6.476 -0.1891  0.1384  0.1704
  887YOPE   GL212794  11.228  10.468   6.536  0.2847 -0.2582  0.5142
  887YOPE   C1A12795  10.703  10.271   6.734  0.2124 -0.0737 -0.3381
  887YOPE   D2A12796  10.668  10.473   7.215 -0.2767 -0.0361  0.1425
  887YOPE   C3A12797  10.845  10.312   7.591  0.0044  0.2560 -0.1669
  887YOPE   C4A12798  11.212  10.141   7.676  0.0642  0.2884  0.1684
  887YOPE   C1B12799  11.078  10.585   6.908  0.0437  0.2832 -0.1462
  887YOPE   C2B12800  11.115  10.642   7.302 -0.2479 -0.3609  0.0920
  887YOPE   D3B12801  11.230  10.605   7.717 -0.0690  0.0139 -0.3017
  887YOPE   C4B12802  11.164  10.421   8.096  0.0882 -0.1782  0.0481
  888YOPE   NH312803  14.405   2.111   5.636  0.3821 -0.0913 -0.0612
  888YOPE   PO412804  14.057   2.435   5.696 -0.0126 -0.1752 -0.1004
  888YOPE   GL112805  14.019   2.292   6.238  0.0015  0.2600 -0.0932
  888YOPE   GL212806  13.878   2.478   6.421  0.1336 -0.0979  0.0829
  888YOPE   C1A12807  14.141   2.232   6.740 -0.2681  0.1443  0.0636
  888YOPE   D2A12808  14.144   2.344   7.290 -0.0175 -0.1069  0.2598
  888YOPE   C3A12809  13.941   2.226   7.668 -0.0723  0.1613 -0.1044
  888YOPE   C4A12810  13.984   2.148   8.019  0.0213  0.2767  0.1524
  888YOPE   C1B12811  13.677   2.625   6.840  0.0915  0.1422  0.0510
  888YOPE   C2B12812  13.624   2.541   7.272  0.0706  0.0459  0.2171
  888YOPE   D3B12813  13.687   2.700   7.710 -0.1891  0.0168 -0.2082
  888YOPE   C4B12814  13.795   2.679   8.054  0.0288  0.1070  0.0773
  889YOPE   NH312815  11.691  10.802   6.148  0.1942 -0.0965  0.5291
  889YOPE   PO412816  12.146  10.856   6.088  0.4367 -0.1065  0.2184
  889YOPE   GL112817  12.025  11.094   6.379 -0.1306 -0.4035 -0.0266
  889YOPE   GL212818  12.036  11.422   6.371 -0.2166 -0.0117  0.1739
  889YOPE   C1A12819  11.767  11.287   6.730  0.0845  0.0182  0.2437
  889YOPE   D2A12820  11.738  11.454   7.146  0.0250  0.2080  0.1888
  889YOPE   C3A12821  11.372  11.752   7.249 -0.1689  0.1536 -0.0182
  889YOPE   C4A12822  11.165  11.755   6.910  0.0958 -0.1979  0.1461
  889YOPE   C1B12823  12.176  11.665   6.701  0.1657 -0.1036 -0.0749
  889YOPE   C2B12824  12.226  11.699   7.133 -0.0266  0.1429 -0.2590
  889YOPE   D3B12825  12.534  11.805   7.369 -0.2348 -0.2712 -0.1929
  889YOPE   C4B12826  12.929  11.658   7.525  0.1500  0.1027  0.1255
  890YOPE   NH312827  17.485   1.353   5.839 -0.1431  0.1036  0.3874
  890YOPE   PO412828  17.339   1.752   5.824  0.0231 -0.0473  0.1606
  890YOPE   GL112829  17.318   1.689   6.208  0.0918  0.1733  0.0384
  890YOPE   GL212830  17.429   1.353   6.345 -0.4501  0.1839 -0.1671
  890YOPE   C1A12831  17.262   1.840   6.552 -0.1156 -0.1406 -0.2292
  890YOPE   D2A12832  17.335   2.190   6.784  0.2361  0.2971 -0.0771
  890YOPE   C3A12833  17.698   2.272   7.092  0.1087 -0.0454 -0.0039
  890YOPE   C4A12834  17.641   2.267   7.543  0.2813  0.2244 -0.0282
  890YOPE   C1B12835  17.476   1.374   6.755 -0.0415 -0.2953  0.1691
  890YOPE   C2B12836  17.623   1.371   7.195 -0.1103  0.0544 -0.3300
  890YOPE   D3B12837  17.724   1.734   7.475  0.0902  0.2332  0.1057
  890YOPE   C4B12838  17.964   1.905   7.735 -0.3119 -0.0641 -0.1550
  891YOPE   NH312839   6.503  16.538   6.241 -0.2080  0.2222 -0.1698
  891YOPE   PO412840   6.231  16.845   6.087  0.0695  0.0417 -0.0567
  891YOPE   GL112841   6.155  17.086   6.429 -0.3523  0.2691 -0.2769
  891YOPE   GL212842   6.196  16.901   6.663 -0.0873 -0.3131  0.3298
  891YOPE   C1A12843   6.116  17.344   6.802  0.0690  0.2184  0.0539
  891YOPE   D2A12844   5.915  17.384   7.185  0.5222  0.1141 -0.1387
  891YOPE   C3A12845   5.781  17.639   7.404  0.1789  0.1076  0.3580
  891YOPE   C4A12846   5.414  17.902   7.522  0.2792  0.0152  0.1972
  891YOPE   C1B12847   6.298  16.938   7.121  0.2405 -0.1302 -0.0167
  891YOPE   C2B12848   6.286  17.185   7.561  0.0068  0.0210  0.1924
  891YOPE   D3B12849   5.979  17.303   7.814 -0.1929 -0.4510  0.0713
  891YOPE   C4B12850   5.604  17.549   7.918  0.2960  0.1775  0.4591
  892YOPE   NH312851  12.971   2.509   5.963  0.0270  0.2605 -0.0882
  892YOPE   PO412852  12.566   2.355   5.992  0.1304 -0.0751 -0.1120
  892YOPE   GL112853  12.739   2.179   6.416 -0.0450  0.2024  0.2065
  892YOPE   GL212854  12.725   1.815   6.447  0.0243  0.3546 -0.0625
  892YOPE   C1A12855  12.739   2.312   6.722 -0.0868  0.1999 -0.1109
  892YOPE   D2A12856  12.737   2.119   7.051  0.0270  0.0585 -0.0758
  892YOPE   C3A12857  12.636   2.359   7.302  0.1138 -0.1181 -0.2538
  892YOPE   C4A12858  12.386   2.688   7.577  0.1453  0.2878  0.2693
  892YOPE   C1B12859  13.102   1.998   6.729  0.0580  0.0695  0.4654
  892YOPE   C2B12860  13.231   2.015   7.103 -0.0006 -0.0432 -0.0135
  892YOPE   D3B12861  13.119   1.885   7.506  0.2617  0.1189  0.0976
  892YOPE   C4B12862  13.065   2.019   7.923 -0.1962 -0.1150 -0.0920
  893YOPE   NH312863   1.810  11.063   6.220  0.2567  0.0249 -0.0026
  893YOPE   PO412864   2.102  11.348   6.346 -0.0843 -0.0449  0.0567
  893YOPE   GL112865   2.275  11.562   6.695  0.0816  0.0164  0.0405
  893YOPE   GL212866   2.308  11.938   6.599 -0.0657  0.0658 -0.0217
  893YOPE   C1A12867   2.097  11.442   7.091 -0.4207 -0.2523  0.0758
  893YOPE   D2A12868   2.088  11.365   7.504  0.0060 -0.0484  0.1493
  893YOPE   C3A12869   2.451  11.121   7.831  0.0854 -0.3142  0.0240
  893YOPE   C4A12870   2.661  11.023   8.188 -0.1433  0.1532 -0.0289
  893YOPE   C1B12871   2.569  11.973   6.818 -0.1960 -0.1863  0.1815
  893YOPE   C2B12872   2.583  11.882   7.122  0.2359 -0.1133  0.3576
  893YOPE   D3B12873   2.554  11.826   7.647  0.0481  0.0389 -0.1623
  893YOPE   C4B12874   2.146  11.724   7.946 -0.1532  0.1613 -0.1105
  894YOPE   NH312875   3.755   5.171   5.993 -0.0413 -0.1297 -0.2127
  894YOPE   PO412876   4.251   5.337   5.994 -0.0329  0.0248  0.1180
  894YOPE   GL112877   4.127   5.242   6.361 -0.0653  0.0091 -0.0596
  894YOPE   GL212878   4.434   5.357   6.505  0.0575 -0.2045 -0.0518
  894YOPE   C1A12879   3.951   5.468   6.786 -0.0837 -0.1377  0.3862
  894YOPE   D2A12880   3.866   5.537   7.242  0.2192 -0.0480 -0.0041
  894YOPE   C3A12881   3.803   5.899   7.430  0.1737  0.1094  0.0358
  894YOPE   C4A12882   3.781   6.089   7.814  0.3157 -0.0613 -0.0542
  894YOPE   C1B12883   4.352   5.231   7.007 -0.2487  0.3930 -0.2388
  894YOPE   C2B12884   4.296   5.389   7.389 -0.2570 -0.0112  0.0346
  894YOPE   D3B12885   4.221   5.656   7.674  0.0288 -0.1259  0.0569
  894YOPE   C4B12886   4.323   5.555   8.108  0.0581 -0.0358  0.0462
  895YOPE   NH312887   5.990   0.106   6.142  0.1372  0.0086  0.0388
  895YOPE   PO412888   5.950  -0.286   5.919  0.1997 -0.1034  0.0148
  895YOPE   GL112889   6.004  -0.356   6.347  0.1523 -0.1082  0.0740
  895YOPE   GL212890   5.752  -0.430   6.583 -0.1111  0.1975 -0.1746
  895YOPE   C1A12891   6.168  -0.177   6.677  0.1239 -0.0959  0.1376
  895YOPE   D2A12892   6.027  -0.092   7.064 -0.0312  0.3974 -0.1025
  895YOPE   C3A12893   5.753   0.182   7.281  0.0921 -0.0234 -0.0368
  895YOPE   C4A12894   5.557   0.376   7.624 -0.0546 -0.3042 -0.0019
  895YOPE   C1B12895   5.534  -0.219   6.919 -0.0675  0.1434 -0.3684
  895YOPE   C2B12896   5.368   0.076   7.023  0.0340 -0.0661 -0.1484
  895YOPE   D3B12897   5.020   0.423   6.874  0.2763  0.0492 -0.0540
  895YOPE   C4B12898   4.609   0.599   6.793  0.0136 -0.0902 -0.1698
  896YOPE   NH312899   1.478  13.034   6.361  0.1992 -0.2273 -0.2313
  896YOPE   PO412900   1.608  12.607   6.264  0.2391 -0.4795  0.2660
  896YOPE   GL112901   1.355  12.715   6.699 -0.1299 -0.2877 -0.1824
  896YOPE   GL212902   1.063  12.663   6.733  0.0312 -0.2645 -0.2473
  896YOPE   C1A12903   1.495  12.716   7.070  0.4067 -0.0288  0.0785
  896YOPE   D2A12904   1.404  12.584   7.454  0.0855 -0.0093  0.1607
  896YOPE   C3A12905   1.489  12.448   7.893 -0.2102  0.2233 -0.0546
  896YOPE   C4A12906   1.385  12.108   8.128  0.1777  0.2549  0.1181
  896YOPE   C1B12907   0.980  12.851   7.216  0.1406 -0.0386 -0.0882
  896YOPE   C2B12908   0.695  12.750   7.512  0.1569 -0.0574  0.1194
  896YOPE   D3B12909   0.558  12.941   8.002 -0.0922  0.3990  0.0493
  896YOPE   C4B12910   0.629  12.944   8.368  0.0949 -0.1452  0.0914
  897YOPE   NH312911   6.246   3.080   6.113  0.2801 -0.5383  0.0651
  897YOPE   PO412912   6.595   3.323   6.083  0.2225 -0.0927 -0.0614
  897YOPE   GL112913   6.439   3.276   6.530 -0.1493  0.2685  0.0397
  897YOPE   GL212914   6.123   3.018   6.586 -0.0971 -0.0874 -0.2039
  897YOPE   C1A12915   6.304   3.429   6.941  0.0608 -0.1103  0.1566
  897YOPE   D2A12916   6.056   3.588   7.296  0.0652 -0.0463  0.3040
  897YOPE   C3A12917   5.873   4.010   7.146  0.1242  0.0290 -0.1946
  897YOPE   C4A12918   5.741   4.394   7.197 -0.1657  0.0283 -0.0269
  897YOPE   C1B12919   6.298   2.912   6.950  0.1177  0.3359  0.2597
  897YOPE   C2B12920   6.463   2.913   7.323 -0.1751  0.0148  0.1343
  897YOPE   D3B12921   6.614   3.070   7.813  0.0223 -0.1616 -0.0814
  897YOPE   C4B12922   6.864   3.400   7.969  0.3289 -0.0891  0.2496
  898YOPE   NH312923  10.914   2.401   6.491 -0.0579 -0.1693  0.1921
  898YOPE   PO412924  11.343   2.450   6.521 -0.1274 -0.0140  0.1097
  898YOPE   GL112925  11.340   2.309   6.829  0.0546  0.0142  0.0798
  898YOPE   GL212926  11.038   2.455   6.963 -0.0095 -0.5468  0.2118
  898YOPE   C1A12927  11.603   2.214   7.198  0.0229  0.0138 -0.1917
  898YOPE   D2A12928  11.828   1.888   7.384 -0.0484  0.0219  0.0336
  898YOPE   C3A12929  11.873   1.711   7.762 -0.2030  0.1695 -0.0180
  898YOPE   C4A12930  12.195   1.491   8.072  0.0208 -0.1237  0.2178
  898YOPE   C1B12931  11.278   2.446   7.474  0.0995  0.3000  0.0561
  898YOPE   C2B12932  11.375   2.700   7.859 -0.0741 -0.1861  0.1762
  898YOPE   D3B12933  11.441   3.123   8.016 -0.0452 -0.0727 -0.0484
  898YOPE   C4B12934  11.168   3.537   8.265 -0.2403  0.0514  0.1337
  899YOPE   NH312935  14.930  12.177   6.115  0.2753  0.1709  0.0864
  899YOPE   PO412936  14.711  11.785   6.115  0.1572 -0.0194 -0.1742
  899YOPE   GL112937  14.695  11.769   6.503 -0.1342 -0.0553 -0.0756
  899YOPE   GL212938  14.679  12.052   6.585 -0.0107 -0.0496 -0.2978
  899YOPE   C1A12939  14.731  11.717   6.977  0.2615  0.1750 -0.2454
  899YOPE   D2A12940  14.686  12.027   7.401  0.2266  0.0561 -0.0753
  899YOPE   C3A12941  14.612  11.869   7.786 -0.1354  0.2058 -0.0356
  899YOPE   C4A12942  14.605  11.689   8.197  0.1210  0.2548  0.1045
  899YOPE   C1B12943  14.382  12.115   6.909  0.3558  0.1952  0.2501
  899YOPE   C2B12944  14.131  12.141   7.262 -0.1251 -0.1477  0.3291
  899YOPE   D3B12945  14.188  12.196   7.743 -0.2301 -0.0572 -0.0816
  899YOPE   C4B12946  14.203  12.405   8.155 -0.1859  0.0825  0.2411
  900YOPE   NH312947   9.042   6.131   6.106 -0.0296  0.2418 -0.0207
  900YOPE   PO412948   9.527   6.032   6.113  0.0286 -0.0793  0.1190
  900YOPE   GL112949   9.474   5.908   6.557 -0.0177  0.0111  0.0060
  900YOPE   GL212950   9.653   6.122   6.661  0.3133  0.1614  0.0377
  900YOPE   C1A12951   9.323   5.764   6.941  0.0935  0.1456  0.2470
  900YOPE   D2A12952   9.595   5.723   7.361 -0.1182  0.0734 -0.6453
  900YOPE   C3A12953   9.455   5.382   7.679 -0.1230 -0.0958 -0.0721
  900YOPE   C4A12954   9.194   5.206   7.928 -0.1055 -0.0975 -0.3214
  900YOPE   C1B12955   9.510   6.146   7.127 -0.1026 -0.0936 -0.0370
  900YOPE   C2B12956   9.703   6.302   7.502  0.0131  0.1045 -0.1955
  900YOPE   D3B12957   9.606   6.585   7.913 -0.3011 -0.0729 -0.1647
  900YOPE   C4B12958   9.249   6.530   8.198 -0.0259  0.4092  0.0838
  901YOPE   NH312959  14.540   4.334   6.074  0.2286 -0.2059 -0.0456
  901YOPE   PO412960  14.243   4.523   5.783 -0.1261 -0.3057  0.5777
  901YOPE   GL112961  14.071   4.529   6.112  0.1805  0.0372 -0.2226
  901YOPE   GL212962  14.155   4.862   6.179  0.1641  0.2048  0.1133
  901YOPE   C1A12963  13.926   4.380   6.495  0.0367 -0.1539 -0.2150
  901YOPE   D2A12964  13.737   4.402   6.913 -0.1042  0.1149 -0.0734
  901YOPE   C3A12965  13.593   4.351   7.299  0.1436  0.1706  0.1288
  901YOPE   C4A12966  13.598   4.273   7.689 -0.3190 -0.2596  0.1097
  901YOPE   C1B12967  13.915   4.855   6.650  0.3123 -0.0524 -0.3249
  901YOPE   C2B12968  13.878   4.799   7.148 -0.1847  0.1472  0.1384
  901YOPE   D3B12969  14.010   4.501   7.553  0.1589 -0.2498  0.0666
  901YOPE   C4B12970  14.112   4.362   7.918 -0.4276 -0.2499  0.4976
  902YOPE   NH312971  11.391   7.255   5.874 -0.3051 -0.1528 -0.2092
  902YOPE   PO412972  10.916   7.469   5.713  0.0710 -0.0854  0.3132
  902YOPE   GL112973  10.823   7.450   6.214 -0.2689  0.0328  0.2620
  902YOPE   GL212974  11.220   7.468   6.361  0.0417 -0.2422  0.0864
  902YOPE   C1A12975  10.616   7.390   6.386  0.2421  0.1618  0.1061
  902YOPE   D2A12976  10.305   7.173   6.558 -0.1582 -0.0236  0.2967
  902YOPE   C3A12977  10.206   7.099   6.921 -0.0144  0.1462 -0.1294
  902YOPE   C4A12978   9.939   7.091   7.213  0.0369  0.1320  0.0262
  902YOPE   C1B12979  11.116   7.518   6.715 -0.0614  0.1659  0.1018
  902YOPE   C2B12980  10.576   7.510   6.896 -0.3616  0.0972 -0.2078
  902YOPE   D3B12981  10.363   7.427   7.334 -0.3765 -0.0202  0.0236
  902YOPE   C4B12982  10.414   7.053   7.496 -0.1259  0.0497 -0.1790
  903YOPE   NH312983   1.635  11.598   6.084  0.0347 -0.3601  0.0585
  903YOPE   PO412984   1.353  11.275   6.250 -0.4873  0.1303  0.1098
  903YOPE   GL112985   1.538  11.132   6.621 -0.0794  0.1701  0.2334
  903YOPE   GL212986   1.825  11.133   6.738  0.3188  0.1171  0.1797
  903YOPE   C1A12987   1.248  11.092   6.894  0.2472 -0.0973  0.1104
  903YOPE   D2A12988   1.163  11.085   7.317 -0.1662  0.1835  0.0329
  903YOPE   C3A12989   1.239  11.365   7.633  0.0388  0.3726  0.2601
  903YOPE   C4A12990   1.174  11.835   7.691 -0.1235  0.1264 -0.2646
  903YOPE   C1B12991   1.733  11.055   7.154  0.0186 -0.0256  0.2899
  903YOPE   C2B12992   1.613  11.008   7.591 -0.0169  0.1970  0.0173
  903YOPE   D3B12993   1.494  10.963   7.999  0.2310 -0.1873  0.2697
  903YOPE   C4B12994   1.653  10.620   8.240  0.1126 -0.0034 -0.0128
  904YOPE   NH312995   8.437  11.820   5.855  0.0662  0.1287 -0.0573
  904YOPE   PO412996   8.559  11.380   5.983  0.0130  0.0960  0.1931
  904YOPE   GL112997   8.359  11.205   6.297  0.1158  0.2058  0.0215
  904YOPE   GL212998   8.126  11.087   6.226 -0.0594  0.1322 -0.0979
  904YOPE   C1A12999   8.233  11.265   6.776 -0.1652  0.3798  0.1793
  904YOPE   D2A13000   7.986  11.115   7.167 -0.2665 -0.4794  0.2525
  904YOPE   C3A13001   7.876  11.063   7.646  0.4504  0.1978  0.0182
  904YOPE   C4A13002   7.661  10.896   7.902  0.0886  0.0784 -0.0256
  904YOPE   C1B13003   7.911  10.889   6.642  0.2779 -0.1915  0.3343
  904YOPE   C2B13004   7.931  10.608   7.018  0.2971  0.1931  0.0596
  904YOPE   D3B13005   7.824  10.625   7.534  0.1280  0.3427  0.2241
  904YOPE   C4B13006   8.120  10.604   7.820  0.1507  0.1220 -0.1009
  905YOPE   NH313007  15.741   3.492   5.601  0.0724 -0.0766 -0.2214
  905YOPE   PO413008  15.466   3.763   5.864 -0.0546  0.3718  0.0466
  905YOPE   GL113009  15.297   3.599   6.233  0.1773  0.2296 -0.1919
  905YOPE   GL213010  15.152   3.319   6.322 -0.0516 -0.0469  0.0563
  905YOPE   C1A13011  15.131   3.726   6.619  0.2061 -0.1183  0.1523
  905YOPE   D2A13012  15.109   3.964   7.025 -0.3294 -0.0508 -0.0578
  905YOPE   C3A13013  15.288   3.838   7.393  0.0557 -0.0856 -0.1509
  905YOPE   C4A13014  15.283   3.783   7.847  0.1629 -0.1001 -0.0902
  905YOPE   C1B13015  15.399   3.214   6.626 -0.1015  0.1607 -0.1913
  905YOPE   C2B13016  15.711   3.191   7.034  0.2241 -0.0782 -0.4915
  905YOPE   D3B13017  15.960   3.074   7.347  0.1074  0.1272  0.0405
  905YOPE   C4B13018  16.064   3.070   7.764  0.1425 -0.0748 -0.1510
  906YOPE   NH313019  14.918  16.869   6.376  0.0013  0.0714  0.2429
  906YOPE   PO413020  14.519  17.136   6.301  0.0296  0.0173 -0.4292
  906YOPE   GL113021  14.238  17.011   6.584 -0.1280  0.3241  0.3202
  906YOPE   GL213022  14.277  17.185   6.823 -0.2444 -0.1189  0.1721
  906YOPE   C1A13023  14.121  16.711   6.902  0.2790  0.0299  0.2532
  906YOPE   D2A13024  13.936  16.374   6.872  0.3288  0.2310 -0.1759
  906YOPE   C3A13025  14.208  16.220   7.164  0.1054 -0.0523  0.1133
  906YOPE   C4A13026  13.993  16.193   7.414  0.1712 -0.1636 -0.1059
  906YOPE   C1B13027  14.189  17.404   7.249  0.0551  0.1194  0.2022
  906YOPE   C2B13028  14.211  17.450   7.695  0.1226 -0.0317  0.0389
  906YOPE   D3B13029  14.552  17.690   7.912 -0.0383 -0.0371  0.2561
  906YOPE   C4B13030  14.813  18.020   7.824 -0.1943  0.2177  0.2707
  907YOPE   NH313031   0.563   3.536   5.549 -0.2449  0.3840 -0.2801
  907YOPE   PO413032   0.562   3.034   5.713  0.1401  0.0897 -0.1419
  907YOPE   GL113033   0.537   3.261   6.108  0.1332 -0.1859  0.0401
  907YOPE   GL213034   0.298   3.066   6.162 -0.0659  0.0918  0.1670
  907YOPE   C1A13035   0.663   3.184   6.539  0.1245  0.0903  0.1010
  907YOPE   D2A13036   0.591   3.119   6.993 -0.2304 -0.0435 -0.1014
  907YOPE   C3A13037   0.270   3.248   7.296  0.2818 -0.0594 -0.3635
  907YOPE   C4A13038  -0.102   3.211   7.341  0.3259  0.2920  0.0526
  907YOPE   C1B13039   0.262   2.894   6.673  0.3107  0.0206  0.0340
  907YOPE   C2B13040   0.168   2.790   7.081 -0.2633  0.3811 -0.0699
  907YOPE   D3B13041  -0.029   2.595   7.374  0.1912 -0.1780 -0.0253
  907YOPE   C4B13042  -0.033   2.751   7.643  0.1630 -0.1002  0.0399
  908YOPE   NH313043  12.309  12.359   6.243 -0.2467 -0.4356 -0.1695
  908YOPE   PO413044  12.726  12.336   6.300  0.0585 -0.0818  0.1286
  908YOPE   GL113045  12.527  12.583   6.620  0.0367  0.2795  0.0034
  908YOPE   GL213046  12.210  12.661   6.660 -0.2618  0.0499 -0.2279
  908YOPE   C1A13047  12.522  12.900   6.966  0.0215 -0.2754 -0.2710
  908YOPE   D2A13048  12.334  12.968   7.427  0.1072  0.2948  0.0633
  908YOPE   C3A13049  12.273  12.730   7.788  0.0822  0.3087 -0.2091
  908YOPE   C4A13050  11.974  12.635   7.996  0.4642 -0.1312 -0.0963
  908YOPE   C1B13051  12.070  12.670   7.108  0.1706 -0.1747 -0.0867
  908YOPE   C2B13052  11.789  12.681   7.507 -0.1069 -0.0679  0.2216
  908YOPE   D3B13053  11.567  12.527   7.757  0.3131 -0.2019 -0.0563
  908YOPE   C4B13054  11.616  12.277   8.164  0.0960 -0.0800  0.0864
  909YOPE   NH313055   7.360   3.859   6.229  0.4398 -0.0963 -0.2435
  909YOPE   PO413056   6.930   3.930   6.226 -0.2600 -0.4439 -0.3453
  909YOPE   GL113057   6.889   3.713   6.614  0.1007  0.3288 -0.2301
  909YOPE   GL213058   6.630   3.714   6.711  0.2168 -0.2143 -0.0082
  909YOPE   C1A13059   6.975   4.008   7.051 -0.2085 -0.1973  0.1061
  909YOPE   D2A13060   6.908   3.826   7.591  0.2058  0.1173  0.1488
  909YOPE   C3A13061   6.987   4.177   7.917 -0.2344 -0.0581 -0.3434
  909YOPE   C4A13062   6.797   4.496   8.145 -0.0057  0.3799 -0.1362
  909YOPE   C1B13063   6.394   3.904   7.081 -0.3492 -0.1320 -0.1643
  909YOPE   C2B13064   6.371   3.942   7.543  0.1009  0.0560 -0.0195
  909YOPE   D3B13065   6.617   3.815   7.952  0.0147  0.3901  0.2530
  909YOPE   C4B13066   6.666   4.020   8.260  0.0350  0.0195  0.1204
  910YOPE   NH313067  11.416  14.894   5.724  0.0158  0.0191  0.2753
  910YOPE   PO413068  11.338  14.576   5.970 -0.0557  0.3200  0.0030
  910YOPE   GL113069  11.264  14.758   6.280  0.1941  0.0140 -0.2073
  910YOPE   GL213070  10.882  14.842   6.511 -0.2930 -0.0551  0.0425
  910YOPE   C1A13071  11.351  14.584   6.705  0.3806  0.0259 -0.0908
  910YOPE   D2A13072  11.401  14.662   7.179 -0.1560  0.1827  0.0144
  910YOPE   C3A13073  11.215  14.990   7.470  0.0259 -0.1424  0.2932
  910YOPE   C4A13074  11.244  15.057   7.908 -0.2727 -0.1129 -0.1418
  910YOPE   C1B13075  10.840  15.269   6.606  0.1171  0.1723  0.0261
  910YOPE   C2B13076  10.642  15.483   6.877  0.3753 -0.0132 -0.2361
  910YOPE   D3B13077  10.590  15.321   7.277 -0.1435  0.0833  0.1051
  910YOPE   C4B13078  10.392  15.059   7.520  0.3164  0.1648 -0.0752
  911YOPE   NH313079   0.507  13.879   6.136 -0.4388 -0.2267 -0.3442
  911YOPE   PO413080   0.143  14.163   6.232  0.1524 -0.0328 -0.0378
  911YOPE   GL113081   0.001  14.338   6.627 -0.0235  0.2304 -0.1095
  911YOPE   GL213082  -0.332  14.450   6.576 -0.1923 -0.3961  0.0265
  911YOPE   C1A13083   0.007  14.448   7.120 -0.3102 -0.0096 -0.1914
  911YOPE   D2A13084  -0.260  14.573   7.407 -0.0899 -0.0219 -0.1653
  911YOPE   C3A13085  -0.105  14.621   7.804  0.0282 -0.2033 -0.2073
  911YOPE   C4A13086  -0.171  14.934   8.074 -0.0814  0.2300  0.1881
  911YOPE   C1B13087  -0.173  14.840   6.794  0.0017 -0.0212  0.0067
  911YOPE   C2B13088   0.023  15.006   7.086 -0.0745  0.2412  0.1509
  911YOPE   D3B13089  -0.045  15.106   7.598 -0.5079  0.0032  0.1473
  911YOPE   C4B13090   0.140  15.434   7.932  0.3199  0.2142  0.2565
  912YOPE   NH313091  13.483  15.884   6.147  0.1691 -0.1855 -0.0122
  912YOPE   PO413092  13.310  16.224   6.073  0.2812  0.0778 -0.2589
  912YOPE   GL113093  13.073  16.145   6.471  0.0975 -0.2261 -0.0823
  912YOPE   GL213094  13.164  15.798   6.574  0.2107 -0.0421 -0.0160
  912YOPE   C1A13095  13.021  16.120   6.983  0.2327  0.1001  0.0533
  912YOPE   D2A13096  12.927  16.245   7.362  0.0436 -0.0134  0.2193
  912YOPE   C3A13097  12.717  16.237   7.784  0.3432 -0.0364  0.0738
  912YOPE   C4A13098  12.734  16.205   8.323 -0.0552 -0.0144  0.0381
  912YOPE   C1B13099  13.072  15.602   6.884  0.2069 -0.1901 -0.1290
  912YOPE   C2B13100  13.029  15.651   7.309  0.1649  0.1045 -0.2226
  912YOPE   D3B13101  12.768  15.742   7.622 -0.2384  0.1843  0.0778
  912YOPE   C4B13102  12.907  15.806   8.016 -0.0846  0.0214 -0.2130
  913YOPE   NH313103  13.263   9.315   5.709  0.0673 -0.3857  0.3472
  913YOPE   PO413104  13.529   9.572   5.935  0.0322  0.0217  0.3313
  913YOPE   GL113105  13.496   9.747   6.263 -0.1168  0.0900 -0.0967
  913YOPE   GL213106  13.814   9.763   6.442  0.2143 -0.3516 -0.1726
  913YOPE   C1A13107  13.378   9.759   6.672 -0.2365  0.1121  0.0510
  913YOPE   D2A13108  13.543   9.742   7.085 -0.0683  0.0411 -0.1801
  913YOPE   C3A13109  13.277  10.083   7.314 -0.1774  0.3483  0.1727
  913YOPE   C4A13110  13.259  10.372   7.705  0.1494  0.2501  0.2359
  913YOPE   C1B13111  13.787   9.467   6.699 -0.1249 -0.0395  0.1638
  913YOPE   C2B13112  13.907   9.350   7.140 -0.3008  0.1977  0.2474
  913YOPE   D3B13113  14.211   9.269   7.461 -0.2334 -0.0240 -0.2223
  913YOPE   C4B13114  14.569   9.241   7.735  0.1586 -0.1758  0.2560
  914YOPE   NH313115   0.570  15.218   5.951  0.1631  0.0181  0.0342
  914YOPE   PO413116   0.847  15.006   6.264  0.0277  0.1154  0.0819
  914YOPE   GL113117   1.036  15.379   6.606  0.4829  0.3594 -0.0382
  914YOPE   GL213118   1.385  15.347   6.590  0.0095 -0.0191  0.0221
  914YOPE   C1A13119   0.990  15.616   6.945  0.0766 -0.1507  0.0459
  914YOPE   D2A13120   1.168  15.730   7.354  0.3534 -0.0046 -0.1249
  914YOPE   C3A13121   1.555  15.608   7.711  0.3979  0.2525  0.5468
  914YOPE   C4A13122   1.875  15.650   8.007  0.0106 -0.1129  0.0779
  914YOPE   C1B13123   1.631  15.518   6.894 -0.0883 -0.0415 -0.2368
  914YOPE   C2B13124   1.702  15.771   7.264 -0.0448  0.3735  0.0012
  914YOPE   D3B13125   1.909  16.040   7.583 -0.1614  0.3953 -0.2198
  914YOPE   C4B13126   2.243  16.299   7.749  0.1745 -0.2806  0.1288
  915YOPE   NH313127  10.460   5.843   6.294  0.0057 -0.0278  0.1775
  915YOPE   PO413128  10.128   5.956   6.101  0.0729 -0.1742  0.0584
  915YOPE   GL113129   9.983   5.717   6.450  0.2282  0.1359  0.0491
  915YOPE   GL213130   9.979   5.345   6.466  0.2799 -0.1847  0.2082
  915YOPE   C1A13131   9.956   5.742   6.861 -0.0877 -0.3302 -0.1125
  915YOPE   D2A13132  10.019   6.193   7.047  0.2603  0.1111  0.0924
  915YOPE   C3A13133   9.963   6.637   6.900 -0.3324  0.0140 -0.0711
  915YOPE   C4A13134   9.542   6.542   6.834 -0.1484  0.1059 -0.1808
  915YOPE   C1B13135   9.609   5.442   6.751 -0.0027 -0.3452 -0.0402
  915YOPE   C2B13136   9.437   5.339   7.180 -0.4586  0.1755  0.2575
  915YOPE   D3B13137   9.062   5.419   7.302  0.0614 -0.1168 -0.0407
  915YOPE   C4B13138   8.720   5.703   7.393 -0.0857 -0.0352  0.1204
  916YOPE   NH313139   4.855   4.065   5.888  0.0962 -0.0405 -0.1849
  916YOPE   PO413140   5.107   3.691   6.043 -0.2379  0.0108 -0.1499
  916YOPE   GL113141   5.013   3.613   6.435 -0.1373 -0.1231 -0.0169
  916YOPE   GL213142   4.895   3.470   6.418  0.2477 -0.1660 -0.1958
  916YOPE   C1A13143   5.235   3.443   6.818  0.2013 -0.0015 -0.0099
  916YOPE   D2A13144   5.453   3.508   7.242 -0.2679  0.1830  0.0401
  916YOPE   C3A13145   5.494   3.825   7.409  0.0293  0.1162  0.0188
  916YOPE   C4A13146   5.536   4.257   7.605 -0.2426 -0.2828 -0.1189
  916YOPE   C1B13147   4.766   3.849   6.766 -0.2072 -0.1165  0.1411
  916YOPE   C2B13148   4.481   4.124   6.882  0.0616 -0.0909 -0.2342
  916YOPE   D3B13149   4.142   4.145   7.136  0.1547 -0.3126  0.0367
  916YOPE   C4B13150   3.901   4.026   7.424  0.0376 -0.0746  0.2440
  917YOPE   NH313151   2.729   0.656   5.978 -0.2151  0.2389  0.2152
  917YOPE   PO413152   3.121   0.794   5.884  0.3456  0.0418 -0.1405
  917YOPE   GL113153   3.176   0.853   6.343  0.0868  0.0327  0.1307
  917YOPE   GL213154   3.441   1.060   6.387 -0.0257  0.0232  0.0091
  917YOPE   C1A13155   3.251   0.877   6.777 -0.3703  0.0760  0.1161
  917YOPE   D2A13156   3.093   0.934   7.081 -0.2082  0.0462 -0.0622
  917YOPE   C3A13157   3.456   0.869   7.335 -0.0735  0.1197  0.1112
  917YOPE   C4A13158   3.756   1.222   7.416  0.2362 -0.3186 -0.1212
  917YOPE   C1B13159   3.683   1.101   6.756 -0.1964 -0.0411  0.0897
  917YOPE   C2B13160   3.863   1.453   6.997 -0.0552 -0.2748 -0.0402
  917YOPE   D3B13161   3.664   1.722   7.234 -0.0484 -0.0138 -0.3097
  917YOPE   C4B13162   3.418   1.909   7.576  0.1930 -0.0844 -0.1027
  918YOPE   NH313163   5.600   3.768   6.327  0.2435 -0.0816 -0.4161
  918YOPE   PO413164   5.964   3.975   6.110 -0.0555  0.1597 -0.2051
  918YOPE   GL113165   5.808   4.246   6.313  0.1409  0.2398  0.1662
  918YOPE   GL213166   6.048   4.482   6.408  0.0058 -0.2857  0.0091
  918YOPE   C1A13167   5.635   4.208   6.755  0.0187  0.0626 -0.0088
  918YOPE   D2A13168   5.314   4.429   6.972 -0.0613 -0.1262  0.1693
  918YOPE   C3A13169   5.348   4.653   7.297  0.3069  0.0146 -0.0685
  918YOPE   C4A13170   5.480   4.842   7.635  0.1453  0.0996 -0.1371
  918YOPE   C1B13171   6.078   4.378   6.836  0.0450  0.0202  0.2979
  918YOPE   C2B13172   6.259   4.323   7.282  0.1142  0.1286  0.1609
  918YOPE   D3B13173   6.045   4.413   7.668  0.2219 -0.0411 -0.0643
  918YOPE   C4B13174   5.745   4.604   7.974 -0.0419 -0.0877 -0.0604
  919YOPE   NH313175   2.591   9.626   5.753 -0.3127  0.1861 -0.0884
  919YOPE   PO413176   2.354  10.028   6.009 -0.1319 -0.0886 -0.1471
  919YOPE   GL113177   2.199  10.202   6.327 -0.2435 -0.1963 -0.1602
  919YOPE   GL213178   2.594  10.216   6.477  0.2845 -0.2803 -0.1743
  919YOPE   C1A13179   2.121  10.280   6.794 -0.0181 -0.1020 -0.2264
  919YOPE   D2A13180   2.143  10.206   7.168 -0.1317 -0.1400  0.0785
  919YOPE   C3A13181   2.497  10.202   7.479  0.1297 -0.3683 -0.2105
  919YOPE   C4A13182   2.669   9.844   7.867  0.1474 -0.0860 -0.0653
  919YOPE   C1B13183   2.640  10.451   6.867  0.0032  0.2177 -0.0172
  919YOPE   C2B13184   2.860  10.572   7.281  0.1388 -0.0474 -0.0979
  919YOPE   D3B13185   2.933  10.375   7.612 -0.2734  0.1848 -0.1110
  919YOPE   C4B13186   3.146  10.047   7.711 -0.2074 -0.2051 -0.1131
  920YOPE   NH313187  15.442  16.862   6.348 -0.0368  0.1113 -0.1454
  920YOPE   PO413188  15.301  16.507   6.410 -0.1089  0.2723 -0.1475
  920YOPE   GL113189  15.196  16.724   6.766  0.2494  0.0322  0.3115
  920YOPE   GL213190  15.294  17.012   6.828  0.1366 -0.1000  0.4087
  920YOPE   C1A13191  15.185  16.567   7.139  0.2200  0.3464 -0.0371
  920YOPE   D2A13192  14.929  16.613   7.473  0.0539  0.3386 -0.1330
  920YOPE   C3A13193  14.948  16.432   7.853 -0.0870  0.2089 -0.0427
  920YOPE   C4A13194  15.002  16.090   7.977  0.2303 -0.1020  0.0655
  920YOPE   C1B13195  14.982  17.066   7.214 -0.1707  0.2619  0.1928
  920YOPE   C2B13196  15.059  17.042   7.704 -0.2381 -0.2126  0.4778
  920YOPE   D3B13197  15.132  16.848   7.979  0.0344 -0.0894 -0.1177
  920YOPE   C4B13198  15.622  16.859   8.179 -0.3076  0.1528 -0.3331
  921YOPE   NH313199   1.387  14.034   6.533 -0.1126 -0.1227  0.1385
  921YOPE   PO413200   1.327  13.593   6.312 -0.2863  0.0134 -0.0334
  921YOPE   GL113201   1.576  13.474   6.621  0.1589 -0.0287  0.2767
  921YOPE   GL213202   1.715  13.756   6.781 -0.1327  0.2102 -0.2738
  921YOPE   C1A13203   1.733  13.336   6.993 -0.2237 -0.0431 -0.0092
  921YOPE   D2A13204   1.735  13.012   7.338 -0.0052 -0.0354  0.0477
  921YOPE   C3A13205   1.328  13.004   7.707 -0.0862 -0.3029  0.1318
  921YOPE   C4A13206   0.950  13.126   7.750  0.0568 -0.2851 -0.0454
  921YOPE   C1B13207   1.738  13.792   7.270 -0.0291 -0.0605 -0.0749
  921YOPE   C2B13208   1.908  13.914   7.652 -0.2164 -0.1909 -0.2226
  921YOPE   D3B13209   2.087  14.182   8.045 -0.2645  0.1854 -0.0808
  921YOPE   C4B13210   2.230  14.431   8.383  0.0430 -0.0871  0.0773
  922YOPE   NH313211   7.254  17.291   6.220  0.1341  0.3959  0.2508
  922YOPE   PO413212   7.569  17.052   6.118  0.0802  0.0199 -0.2533
  922YOPE   GL113213   7.567  17.139   6.597  0.1833  0.1928 -0.1090
  922YOPE   GL213214   7.724  17.379   6.565 -0.2237  0.1406 -0.2579
  922YOPE   C1A13215   7.470  17.293   6.968 -0.3822  0.0128  0.0896
  922YOPE   D2A13216   7.262  17.506   7.326 -0.1409 -0.1731  0.3825
  922YOPE   C3A13217   6.884  17.801   7.304  0.0733  0.1707  0.0539
  922YOPE   C4A13218   6.708  17.989   7.597 -0.2603  0.0433  0.1179
  922YOPE   C1B13219   7.885  17.588   7.044  0.1520 -0.1119 -0.0604
  922YOPE   C2B13220   8.174  17.794   7.254 -0.0323  0.1602  0.0490
  922YOPE   D3B13221   8.303  17.888   7.577 -0.2045 -0.0843 -0.0857
  922YOPE   C4B13222   8.525  18.209   7.834 -0.1478  0.4173  0.0811
  923YOPE   NH313223  11.502  13.545   5.857 -0.1469  0.1524 -0.1761
  923YOPE   PO413224  11.159  13.727   5.953  0.1728  0.2269  0.0521
  923YOPE   GL113225  10.942  13.828   6.277 -0.1700 -0.1478  0.0229
  923YOPE   GL213226  10.821  13.697   6.547 -0.0711  0.1542 -0.1428
  923YOPE   C1A13227  10.520  13.999   6.407  0.1401 -0.1322 -0.1606
  923YOPE   D2A13228  10.488  14.024   6.864  0.1055 -0.1416 -0.1683
  923YOPE   C3A13229  10.567  13.742   7.246 -0.0404 -0.1983  0.3447
  923YOPE   C4A13230  10.619  13.612   7.661 -0.0494  0.2353 -0.1442
  923YOPE   C1B13231  10.968  13.687   6.981 -0.1737  0.1850 -0.2692
  923YOPE   C2B13232  11.220  13.785   7.363 -0.1149 -0.0425 -0.0039
  923YOPE   D3B13233  11.522  14.104   7.534  0.0352  0.0810 -0.2733
  923YOPE   C4B13234  11.596  14.520   7.578 -0.1676  0.2207  0.1174
  924YOPE   NH313235   2.425   7.058   6.270 -0.0781  0.4439 -0.2704
  924YOPE   PO413236   2.186   7.414   6.131  0.1375 -0.1547 -0.0653
  924YOPE   GL113237   2.113   7.344   6.594  0.1760 -0.1074  0.1401
  924YOPE   GL213238   2.188   7.068   6.848 -0.0548  0.3093  0.1168
  924YOPE   C1A13239   1.791   7.604   6.764  0.0855  0.0032  0.2920
  924YOPE   D2A13240   1.606   7.701   7.149  0.0207  0.2256  0.1140
  924YOPE   C3A13241   1.774   8.059   7.314  0.2580  0.3000  0.0108
  924YOPE   C4A13242   1.866   8.520   7.436 -0.2666  0.0903  0.0456
  924YOPE   C1B13243   2.291   6.691   7.013 -0.4440 -0.1367  0.2362
  924YOPE   C2B13244   2.095   6.525   7.383  0.2415 -0.1621 -0.0223
  924YOPE   D3B13245   2.040   6.381   7.776  0.0870  0.1447 -0.1546
  924YOPE   C4B13246   2.399   6.091   7.854  0.0205  0.1595 -0.0390
  925YOPE   NH313247   5.993   4.415   5.889 -0.2134  0.2227  0.0189
  925YOPE   PO413248   5.962   4.812   5.654  0.0235  0.0219 -0.1870
  925YOPE   GL113249   6.079   4.963   6.078 -0.1760 -0.2369  0.3980
  925YOPE   GL213250   5.812   5.051   6.334  0.0741  0.0182 -0.0234
  925YOPE   C1A13251   6.434   4.797   6.309 -0.3207  0.1370 -0.1048
  925YOPE   D2A13252   6.614   4.774   6.745  0.2222 -0.2384  0.2595
  925YOPE   C3A13253   6.452   4.772   7.097  0.0545  0.0722 -0.4715
  925YOPE   C4A13254   6.364   4.798   7.524  0.2925 -0.0064  0.0656
  925YOPE   C1B13255   5.923   5.363   6.748  0.0357  0.0940 -0.0924
  925YOPE   C2B13256   5.751   5.526   7.164 -0.0502  0.1200 -0.0696
  925YOPE   D3B13257   5.733   5.351   7.609  0.0383  0.3184 -0.0074
  925YOPE   C4B13258   5.826   5.513   8.009  0.0437  0.0567 -0.0297
  926YOPE   NH313259   6.403   3.756   6.253 -0.0228 -0.0163  0.2159
  926YOPE   PO413260   6.028   3.489   6.381  0.1009  0.1584 -0.1991
  926YOPE   GL113261   5.729   3.338   6.645  0.0359 -0.4205  0.2014
  926YOPE   GL213262   5.684   3.661   6.811  0.2244 -0.1549  0.4944
  926YOPE   C1A13263   5.883   3.202   7.015  0.1086  0.1892 -0.2672
  926YOPE   D2A13264   6.069   3.139   7.455  0.1044 -0.2053  0.0805
  926YOPE   C3A13265   5.698   3.285   7.669  0.0699 -0.2287  0.0912
  926YOPE   C4A13266   5.526   3.150   8.105  0.1589 -0.0548  0.2873
  926YOPE   C1B13267   5.263   3.953   6.963 -0.0588  0.5060  0.2512
  926YOPE   C2B13268   5.048   4.030   7.371 -0.0515 -0.1359  0.1686
  926YOPE   D3B13269   5.015   4.391   7.570 -0.1392  0.4146 -0.0745
  926YOPE   C4B13270   5.060   4.589   7.976 -0.0759 -0.0324  0.0643
  927YOPE   NH313271   8.002  13.321   5.803  0.2001  0.0654 -0.1450
  927YOPE   PO413272   8.015  13.018   5.667  0.0886 -0.3026 -0.0646
  927YOPE   GL113273   8.009  12.827   6.061 -0.2335  0.2529  0.0930
  927YOPE   GL213274   7.970  13.112   6.264  0.0823  0.1680 -0.0834
  927YOPE   C1A13275   7.951  12.479   6.328  0.0843  0.0852 -0.0458
  927YOPE   D2A13276   7.771  12.141   6.598 -0.1446 -0.1715 -0.2130
  927YOPE   C3A13277   7.901  11.826   6.636  0.0971 -0.0116  0.1492
  927YOPE   C4A13278   8.015  11.540   6.389 -0.1283 -0.0329 -0.2010
  927YOPE   C1B13279   8.108  12.996   6.668  0.0197  0.1923  0.0473
  927YOPE   C2B13280   7.936  12.980   7.100 -0.1647  0.2731  0.1071
  927YOPE   D3B13281   7.904  12.913   7.527 -0.1556 -0.3853 -0.2023
  927YOPE   C4B13282   8.210  12.917   7.872 -0.1489  0.0689 -0.2622
  928YOPE   NH313283  10.851  11.158   6.179  0.3165 -0.0295 -0.1915
  928YOPE   PO413284  11.064  11.586   6.227 -0.2432 -0.1077 -0.4176
  928YOPE   GL113285  11.306  11.956   6.311  0.0571  0.0097 -0.0469
  928YOPE   GL213286  11.253  12.326   6.321 -0.0536 -0.0603  0.0626
  928YOPE   C1A13287  11.612  11.803   6.589 -0.0590 -0.2213  0.0503
  928YOPE   D2A13288  11.741  11.958   6.925  0.2138 -0.1152  0.0480
  928YOPE   C3A13289  11.958  12.028   7.335 -0.1931 -0.2913  0.2457
  928YOPE   C4A13290  12.077  12.292   7.576  0.2366  0.1420  0.4680
  928YOPE   C1B13291  11.281  12.252   6.790  0.1483 -0.2266 -0.2012
  928YOPE   C2B13292  11.012  12.150   7.172  0.1528 -0.0002 -0.1285
  928YOPE   D3B13293  11.079  12.171   7.659  0.3294 -0.3356 -0.0783
  928YOPE   C4B13294  11.230  11.989   8.004 -0.2139 -0.1224 -0.2548
  929YOPE   NH313295   3.341   2.642   5.797 -0.0817 -0.0928  0.0260
  929YOPE   PO413296   3.713   2.756   5.779  0.0177 -0.0068  0.0250
  929YOPE   GL113297   3.842   2.529   6.143  0.1253 -0.0337  0.0277
  929YOPE   GL213298   4.101   2.590   6.356  0.0751  0.1268  0.1124
  929YOPE   C1A13299   3.713   2.321   6.537 -0.1236  0.1719 -0.0624
  929YOPE   D2A13300   3.620   2.171   7.016  0.1083 -0.2479 -0.0589
  929YOPE   C3A13301   3.554   2.418   7.341 -0.1615  0.0215 -0.2051
  929YOPE   C4A13302   3.558   2.700   7.644  0.1569  0.1110 -0.3141
  929YOPE   C1B13303   4.118   2.454   6.860  0.1975 -0.1771 -0.1890
  929YOPE   C2B13304   4.042   2.574   7.233 -0.2496 -0.0005 -0.1750
  929YOPE   D3B13305   4.004   2.469   7.656 -0.0111 -0.3442  0.0255
  929YOPE   C4B13306   4.242   2.142   7.823  0.2239 -0.0649  0.1310
  930YOPE   NH313307  17.619  16.869   6.283 -0.2316  0.1377  0.1773
  930YOPE   PO413308  17.366  16.629   6.113 -0.1732  0.1254 -0.1843
  930YOPE   GL113309  17.306  16.641   6.579 -0.0156  0.0315  0.3356
  930YOPE   GL213310  17.029  16.796   6.717 -0.2968 -0.0877 -0.1705
  930YOPE   C1A13311  17.343  16.766   7.073  0.0266 -0.0820  0.5012
  930YOPE   D2A13312  17.730  16.868   7.358 -0.0393 -0.1333  0.0489
  930YOPE   C3A13313  17.784  16.738   7.761  0.0133 -0.0433 -0.3465
  930YOPE   C4A13314  18.090  16.659   8.091  0.0050 -0.0891  0.4868
  930YOPE   C1B13315  16.979  17.082   7.076  0.3080  0.0952 -0.0146
  930YOPE   C2B13316  16.957  17.350   7.504  0.2261  0.0514 -0.0973
  930YOPE   D3B13317  16.890  17.263   7.873  0.1912 -0.0016  0.2427
  930YOPE   C4B13318  16.846  17.448   8.359 -0.2027 -0.0637  0.0678
  931YOPE   NH313319  16.103  11.173   6.477 -0.2848 -0.0385 -0.0088
  931YOPE   PO413320  16.326  11.475   6.433 -0.3342 -0.2583  0.0759
  931YOPE   GL113321  16.508  11.300   6.843  0.1252 -0.0947  0.2629
  931YOPE   GL213322  16.199  11.310   6.953  0.0445 -0.2145 -0.0426
  931YOPE   C1A13323  16.579  11.093   7.252 -0.0168 -0.2667 -0.1725
  931YOPE   D2A13324  16.593  11.010   7.650  0.0038 -0.0878  0.0731
  931YOPE   C3A13325  16.781  11.230   7.950  0.2161 -0.1413 -0.3714
  931YOPE   C4A13326  16.567  11.435   8.375  0.1216  0.4744  0.2174
  931YOPE   C1B13327  16.089  10.993   7.062  0.0851 -0.2973  0.1393
  931YOPE   C2B13328  16.061  10.806   7.445 -0.3393  0.1685  0.2286
  931YOPE   D3B13329  15.954  10.598   7.766 -0.1459 -0.1163 -0.0787
  931YOPE   C4B13330  15.639  10.396   8.048 -0.1670 -0.0702  0.1316
  932YOPE   NH313331   5.824  14.847   6.135  0.2985  0.1902 -0.0110
  932YOPE   PO413332   5.484  14.808   6.112  0.4271  0.0143 -0.1344
  932YOPE   GL113333   5.598  14.843   6.592  0.2013  0.1666  0.0771
  932YOPE   GL213334   5.547  15.207   6.694  0.0136  0.0305 -0.3136
  932YOPE   C1A13335   5.422  14.702   7.041 -0.0806 -0.2266 -0.0686
  932YOPE   D2A13336   5.305  14.560   7.507  0.0985  0.0801  0.2106
  932YOPE   C3A13337   4.916  14.367   7.615  0.2166 -0.1344  0.1300
  932YOPE   C4A13338   4.744  14.245   7.999  0.0376 -0.0663 -0.0972
  932YOPE   C1B13339   5.440  15.316   7.111 -0.0647  0.4466  0.0580
  932YOPE   C2B13340   5.257  15.525   7.385  0.0617 -0.3607 -0.1213
  932YOPE   D3B13341   5.253  15.380   7.817  0.2691 -0.0740  0.2867
  932YOPE   C4B13342   5.324  15.665   8.181  0.1221 -0.0756  0.0884
  933YOPE   NH313343   7.961  16.738   5.894 -0.1836 -0.2339 -0.0165
  933YOPE   PO413344   8.113  16.357   5.789  0.1268  0.0249  0.0935
  933YOPE   GL113345   8.077  16.413   6.277  0.1848  0.0807  0.0576
  933YOPE   GL213346   7.878  16.206   6.478 -0.1543  0.2728  0.0095
  933YOPE   C1A13347   8.246  16.510   6.664  0.0180  0.0935  0.1218
  933YOPE   D2A13348   8.242  16.582   7.038  0.1842  0.1029 -0.2313
  933YOPE   C3A13349   8.290  16.397   7.319  0.2281  0.0828 -0.0013
  933YOPE   C4A13350   8.543  16.481   7.721  0.3935 -0.1190 -0.1228
  933YOPE   C1B13351   7.739  16.149   6.911  0.1963 -0.0402 -0.2634
  933YOPE   C2B13352   7.886  16.081   7.422 -0.0672 -0.0342  0.0911
  933YOPE   D3B13353   8.068  16.367   7.800 -0.3244  0.1748 -0.0493
  933YOPE   C4B13354   8.177  16.698   8.100 -0.0521  0.2537  0.1062
  934YOPE   NH313355   5.433   6.123   6.054 -0.3322 -0.0854  0.0800
  934YOPE   PO413356   5.813   6.303   6.024  0.1552 -0.0566 -0.0252
  934YOPE   GL113357   5.649   6.508   6.410 -0.1049  0.0163 -0.1280
  934YOPE   GL213358   5.720   6.746   6.515  0.2765  0.5293  0.3662
  934YOPE   C1A13359   5.451   6.364   6.675  0.0036 -0.2323  0.0887
  934YOPE   D2A13360   5.503   6.460   7.194  0.0126 -0.1977  0.2198
  934YOPE   C3A13361   5.931   6.425   7.438  0.0217 -0.0551 -0.0385
  934YOPE   C4A13362   6.173   6.648   7.646  0.0264  0.1434  0.0424
  934YOPE   C1B13363   5.733   6.846   6.968  0.1890  0.2460  0.2017
  934YOPE   C2B13364   5.612   6.881   7.387  0.2388  0.1067  0.1322
  934YOPE   D3B13365   5.696   6.890   7.768  0.0591  0.2452 -0.1726
  934YOPE   C4B13366   5.833   7.204   8.177 -0.1962  0.1919 -0.0276
  935YOPE   NH313367   9.065  16.860   6.068  0.1891 -0.1009 -0.0025
  935YOPE   PO413368   8.938  16.427   6.124 -0.0087 -0.2591  0.0492
  935YOPE   GL113369   9.207  16.498   6.398 -0.1714 -0.0440 -0.0163
  935YOPE   GL213370   9.495  16.211   6.579  0.1972 -0.3414  0.0307
  935YOPE   C1A13371   9.388  16.552   6.948 -0.1631 -0.2737 -0.1364
  935YOPE   D2A13372   9.452  16.461   7.364  0.0666  0.0958 -0.1929
  935YOPE   C3A13373   9.112  16.468   7.619  0.0104  0.0426  0.0505
  935YOPE   C4A13374   9.095  16.204   7.994  0.0014  0.5272 -0.2562
  935YOPE   C1B13375   9.544  16.055   7.001  0.1370 -0.1468  0.3104
  935YOPE   C2B13376   9.826  16.142   7.308 -0.1704  0.2644  0.0065
  935YOPE   D3B13377   9.980  16.056   7.720 -0.1537  0.2819 -0.1849
  935YOPE   C4B13378  10.123  16.317   8.252  0.2661  0.0370  0.0542
  936YOPE   NH313379   4.141  14.182   5.954 -0.4003  0.0294 -0.0054
  936YOPE   PO413380   4.580  14.430   6.051 -0.0087 -0.1658  0.2016
  936YOPE   GL113381   4.475  14.340   6.413  0.0329  0.2309 -0.1409
  936YOPE   GL213382   4.689  14.477   6.602 -0.0343  0.2321  0.2889
  936YOPE   C1A13383   4.344  13.962   6.727  0.1527  0.0419 -0.2569
  936YOPE   D2A13384   4.439  13.928   7.096 -0.1727  0.0523  0.5453
  936YOPE   C3A13385   4.440  14.361   7.364  0.0894  0.0511 -0.2184
  936YOPE   C4A13386   4.644  14.711   7.468 -0.0113 -0.0808  0.2775
  936YOPE   C1B13387   4.828  14.171   6.845 -0.1651 -0.4456  0.2222
  936YOPE   C2B13388   4.882  13.933   7.279  0.1109  0.2009  0.1945
  936YOPE   D3B13389   4.618  13.900   7.671  0.2000 -0.1285  0.0343
  936YOPE   C4B13390   4.330  13.648   7.987  0.2437  0.1352 -0.2103
  937YOPE   NH313391  11.377   0.403   5.820 -0.0939  0.2399 -0.3118
  937YOPE   PO413392  11.374  -0.094   5.955 -0.4042  0.1304 -0.0962
  937YOPE   GL113393  11.564  -0.311   6.345  0.5729  0.5267 -0.0671
  937YOPE   GL213394  11.378  -0.606   6.486 -0.0883  0.0736  0.0819
  937YOPE   C1A13395  11.644  -0.446   6.881  0.2702 -0.0092 -0.0304
  937YOPE   D2A13396  11.663  -0.414   7.378  0.1233 -0.1996 -0.1072
  937YOPE   C3A13397  11.272  -0.162   7.662 -0.0776 -0.1664 -0.0338
  937YOPE   C4A13398  10.857  -0.260   7.939 -0.2120 -0.1924 -0.1072
  937YOPE   C1B13399  11.241  -0.229   6.770  0.0174  0.0288  0.0285
  937YOPE   C2B13400  10.980   0.043   6.664  0.1561  0.3006  0.3720
  937YOPE   D3B13401  10.525   0.079   6.608 -0.1839  0.1034  0.1612
  937YOPE   C4B13402  10.149  -0.054   6.453 -0.0993  0.2338 -0.1706
  938YOPE   NH313403   0.578  13.463   6.398 -0.1253  0.1657 -0.0119
  938YOPE   PO413404   0.464  13.094   6.223  0.1781  0.3507  0.0408
  938YOPE   GL113405   0.536  12.695   6.538 -0.0236  0.2669 -0.2884
  938YOPE   GL213406   0.289  12.451   6.555  0.0953 -0.2229 -0.0347
  938YOPE   C1A13407   0.567  12.694   6.992 -0.0101  0.0104 -0.2209
  938YOPE   D2A13408   0.324  12.509   7.260  0.0505  0.0771  0.1929
  938YOPE   C3A13409   0.247  12.680   7.623  0.0368  0.4022 -0.0541
  938YOPE   C4A13410   0.084  12.751   8.010  0.1947 -0.3269 -0.1435
  938YOPE   C1B13411   0.116  12.189   6.898 -0.0801 -0.0599  0.0695
  938YOPE   C2B13412   0.366  12.038   7.312  0.0380  0.1045 -0.2237
  938YOPE   D3B13413   0.177  12.012   7.627 -0.0745 -0.3075  0.1365
  938YOPE   C4B13414   0.102  12.255   8.004 -0.0341  0.2867 -0.1303
  939YOPE   NH313415  15.987  11.694   6.122 -0.0810  0.1151  0.2265
  939YOPE   PO413416  15.616  11.882   6.054 -0.0486 -0.2958 -0.3674
  939YOPE   GL113417  15.690  11.855   6.535 -0.0120  0.1808  0.2501
  939YOPE   GL213418  15.932  11.655   6.645 -0.2684  0.4196 -0.0667
  939YOPE   C1A13419  15.516  11.919   6.910  0.0792  0.1517  0.2212
  939YOPE   D2A13420  15.149  12.052   7.244 -0.2734  0.0077 -0.1540
  939YOPE   C3A13421  15.145  11.891   7.644 -0.3171  0.0757 -0.2971
  939YOPE   C4A13422  15.594  11.737   7.894  0.1361  0.3489  0.0542
  939YOPE   C1B13423  15.986  11.758   7.087  0.2112  0.1891 -0.3076
  939YOPE   C2B13424  16.086  11.545   7.410  0.0418  0.0601 -0.2448
  939YOPE   D3B13425  16.010  11.179   7.749  0.3985 -0.0380  0.0450
  939YOPE   C4B13426  15.695  11.194   8.005  0.1634 -0.2131  0.1672
  940YOPE   NH313427   7.978   9.362   5.554  0.3822 -0.1327  0.0766
  940YOPE   PO413428   7.749   9.734   5.703 -0.1793 -0.1570 -0.0087
  940YOPE   GL113429   7.548   9.635   6.165  0.0257  0.0711 -0.0759
  940YOPE   GL213430   7.731   9.830   6.407 -0.3263 -0.0952  0.0583
  940YOPE   C1A13431   7.395   9.440   6.551 -0.3559 -0.0420 -0.1400
  940YOPE   D2A13432   7.335   9.433   6.972 -0.2365  0.3706  0.1075
  940YOPE   C3A13433   7.371   9.223   7.264  0.2553 -0.0230 -0.0259
  940YOPE   C4A13434   7.635   9.186   7.585  0.0372  0.0723  0.1462
  940YOPE   C1B13435   7.767   9.766   6.819 -0.0744  0.3238 -0.1652
  940YOPE   C2B13436   7.912   9.593   7.268 -0.0367  0.2684 -0.2822
  940YOPE   D3B13437   8.137   9.695   7.488 -0.1581 -0.2755 -0.1355
  940YOPE   C4B13438   8.244  10.039   7.772 -0.0386 -0.0649  0.0551
  941POPC   NC313439  14.603   9.414   5.390 -0.2436  0.2532  0.0769
  941POPC   PO413440  14.539   8.945   5.291 -0.3135 -0.0170 -0.0720
  941POPC   GL113441  14.790   9.015   5.711 -0.2294 -0.2000  0.0932
  941POPC   GL213442  14.989   8.725   5.870  0.0333 -0.2040  0.0378
  941POPC   C1A13443  14.965   9.122   6.201  0.0680 -0.2470 -0.0668
  941POPC   D2A13444  15.196   8.907   6.390 -0.0027 -0.3058  0.3456
  941POPC   C3A13445  15.226   9.033   6.734 -0.0275  0.1473  0.0542
  941POPC   C4A13446  14.925   9.269   6.922 -0.0212  0.3233 -0.1206
  941POPC   C1B13447  14.812   8.596   6.220 -0.1212  0.0824  0.1729
  941POPC   C2B13448  14.731   8.860   6.648 -0.1853  0.3760 -0.3972
  941POPC   C3B13449  14.507   8.947   6.948  0.0253  0.0059 -0.0905
  941POPC   C4B13450  14.231   8.835   7.224 -0.2455  0.6098 -0.0374
  942POPC   NC313451   2.935  11.183   5.958  0.1494  0.2191 -0.1227
  942POPC   PO413452   2.839  10.780   5.953 -0.2171  0.1874  0.3034
  942POPC   GL113453   2.691  10.725   6.438  0.3280  0.0244 -0.1052
  942POPC   GL213454   3.012  10.693   6.535 -0.0711 -0.2458  0.1300
  942POPC   C1A13455   2.736  10.974   6.898 -0.0619  0.4126 -0.3505
  942POPC   D2A13456   3.095  11.228   7.133  0.1246 -0.2606  0.0445
  942POPC   C3A13457   3.178  11.347   7.511 -0.1586  0.0982  0.0076
  942POPC   C4A13458   2.956  11.436   7.774 -0.0742 -0.0978  0.1598
  942POPC   C1B13459   3.172  10.679   6.917  0.2141 -0.1689  0.2686
  942POPC   C2B13460   3.354  10.396   7.332  0.0021  0.4898  0.0619
  942POPC   C3B13461   3.590  10.241   7.632  0.0446 -0.2236  0.0209
  942POPC   C4B13462   3.995  10.143   7.880  0.2028  0.0168  0.1826
  943POPC   NC313463   4.011   6.805   5.397  0.0148 -0.0977 -0.0437
  943POPC   PO413464   4.178   6.640   5.875  0.0294 -0.2285  0.1396
  943POPC   GL113465   4.242   6.564   6.341  0.1717  0.2050 -0.0240
  943POPC   GL213466   4.375   6.226   6.361  0.0872  0.4130 -0.3665
  943POPC   C1A13467   4.381   6.719   6.803  0.0346  0.0702 -0.0251
  943POPC   D2A13468   4.387   7.136   7.045 -0.0732  0.2723  0.0158
  943POPC   C3A13469   4.412   7.383   7.439 -0.1916  0.0931 -0.0926
  943POPC   C4A13470   4.464   7.845   7.564  0.1296  0.0340  0.3412
  943POPC   C1B13471   4.207   6.211   6.692 -0.4559 -0.0686 -0.1143
  943POPC   C2B13472   3.835   6.010   6.935  0.1858 -0.1692 -0.1149
  943POPC   C3B13473   3.412   5.828   7.015 -0.1566  0.3400 -0.0314
  943POPC   C4B13474   3.142   5.505   7.028  0.0273  0.0366  0.0865
  944POPC   NC313475   0.269   5.964   5.907 -0.1764 -0.0760 -0.1842
  944POPC   PO413476   0.413   6.310   6.175 -0.1586  0.0672 -0.2100
  944POPC   GL113477   0.128   6.053   6.364 -0.2147 -0.0734  0.0433
  944POPC   GL213478  -0.201   6.039   6.205  0.2902  0.1560 -0.1096
  944POPC   C1A13479  -0.147   5.999   6.775 -0.3403 -0.1824  0.1654
  944POPC   D2A13480  -0.242   5.963   7.276  0.0331 -0.0417 -0.2617
  944POPC   C3A13481  -0.216   5.637   7.592  0.2208  0.2759  0.0120
  944POPC   C4A13482  -0.167   5.276   7.828 -0.1012 -0.0928  0.0591
  944POPC   C1B13483  -0.408   6.326   6.460 -0.1138  0.0256  0.2329
  944POPC   C2B13484  -0.396   6.477   6.929  0.0623 -0.1707  0.0007
  944POPC   C3B13485  -0.651   6.290   7.224  0.3716  0.0238  0.1147
  944POPC   C4B13486  -0.799   6.037   7.525 -0.1400 -0.0830  0.1377
  945POPC   NC313487  10.015  16.178   6.104 -0.0533 -0.0053  0.0055
  945POPC   PO413488   9.737  15.808   5.995 -0.1666 -0.2368  0.0951
  945POPC   GL113489  10.118  15.789   6.396  0.1491  0.0770  0.1374
  945POPC   GL213490  10.367  15.964   6.446 -0.0964 -0.1410  0.2433
  945POPC   C1A13491  10.024  15.757   6.853 -0.0667  0.1530 -0.0871
  945POPC   D2A13492  10.246  15.704   7.234 -0.0943  0.1697 -0.1569
  945POPC   C3A13493  10.186  15.484   7.657  0.0668 -0.0498  0.0127
  945POPC   C4A13494   9.815  15.457   8.005 -0.0541 -0.1758 -0.0769
  945POPC   C1B13495  10.279  16.158   6.950 -0.1256  0.2104 -0.0903
  945POPC   C2B13496  10.272  16.287   7.287  0.1866  0.2300  0.0432
  945POPC   C3B13497  10.413  16.402   7.762 -0.0326  0.1249 -0.0323
  945POPC   C4B13498  10.594  16.471   8.129 -0.1505  0.0465  0.0994
  946POPC   NC313499   4.331  16.974   5.685 -0.0064  0.0181  0.0506
  946POPC   PO413500   4.728  16.703   5.670 -0.1390 -0.0023 -0.1599
  946POPC   GL113501   4.675  16.910   6.030  0.0910 -0.1530 -0.1723
  946POPC   GL213502   4.350  16.816   6.204  0.0329  0.1165 -0.0534
  946POPC   C1A13503   4.704  17.231   6.327  0.1540 -0.1779  0.1759
  946POPC   D2A13504   4.862  17.226   6.689  0.0298  0.1725 -0.3254
  946POPC   C3A13505   4.701  17.294   6.942 -0.0625  0.0707 -0.0714
  946POPC   C4A13506   4.623  17.433   7.391 -0.1692  0.1925 -0.1569
  946POPC   C1B13507   4.499  16.774   6.550 -0.0948 -0.1475 -0.0127
  946POPC   C2B13508   4.473  16.812   7.001  0.1074  0.2515 -0.3912
  946POPC   C3B13509   4.447  16.913   7.411 -0.0780  0.1212  0.0275
  946POPC   C4B13510   4.136  17.207   7.583 -0.2990  0.0369  0.2669
  947POPC   NC313511  14.749   1.018   6.145  0.1241 -0.0979 -0.0058
  947POPC   PO413512  14.331   0.905   6.004 -0.0541  0.2701  0.0470
  947POPC   GL113513  14.065   0.921   6.199 -0.3354 -0.0533  0.0927
  947POPC   GL213514  13.851   0.673   6.270 -0.3519  0.0136  0.1785
  947POPC   C1A13515  13.838   0.984   6.618  0.2839  0.1114  0.2237
  947POPC   D2A13516  13.989   1.093   7.044 -0.1450 -0.2141 -0.2469
  947POPC   C3A13517  13.869   1.423   7.256  0.2746 -0.2063 -0.0084
  947POPC   C4A13518  13.957   1.543   7.654  0.1511  0.2704  0.1134
  947POPC   C1B13519  13.991   0.403   6.438 -0.1093  0.0289  0.2919
  947POPC   C2B13520  14.235   0.138   6.667 -0.0302 -0.1147 -0.0290
  947POPC   C3B13521  14.355  -0.070   6.922 -0.2471  0.1487  0.0473
  947POPC   C4B13522  14.430  -0.115   7.388 -0.3123  0.3419 -0.1400
  948POPC   NC313523  15.767  10.384   6.357  0.0424  0.1019  0.0179
  948POPC   PO413524  15.269  10.477   6.273 -0.0268  0.0515  0.0863
  948POPC   GL113525  15.260  10.454   6.663 -0.2975  0.0799  0.0502
  948POPC   GL213526  15.585  10.339   6.892 -0.0226 -0.1850  0.0918
  948POPC   C1A13527  15.249  10.412   7.183 -0.2191 -0.1306  0.3061
  948POPC   D2A13528  15.382  10.336   7.557  0.1169 -0.1170  0.1562
  948POPC   C3A13529  14.987  10.375   7.849 -0.2583 -0.0989  0.2288
  948POPC   C4A13530  14.545  10.501   7.882 -0.2378  0.0563  0.2609
  948POPC   C1B13531  15.801  10.353   7.302 -0.1693 -0.2041  0.0214
  948POPC   C2B13532  15.841  10.123   7.634 -0.0761 -0.2052 -0.0469
  948POPC   C3B13533  15.973   9.971   7.924 -0.2701 -0.1580  0.0986
  948POPC   C4B13534  16.143  10.230   8.183  0.0197 -0.2729  0.1825
  949POPC   NC313535  14.198   8.579   5.143 -0.2615  0.1055 -0.0984
  949POPC   PO413536  13.985   8.636   5.588  0.2962  0.1829  0.0420
  949POPC   GL113537  14.055   8.644   6.037 -0.3652 -0.0687  0.2638
  949POPC   GL213538  14.361   8.457   6.109  0.0918 -0.1239  0.0536
  949POPC   C1A13539  13.822   8.980   6.394 -0.0442  0.2142  0.2655
  949POPC   D2A13540  13.918   8.929   6.849  0.3317  0.0989  0.0458
  949POPC   C3A13541  13.742   8.738   7.148 -0.3123  0.2634 -0.0574
  949POPC   C4A13542  13.848   8.823   7.496 -0.0209  0.0592 -0.2102
  949POPC   C1B13543  14.494   8.423   6.590  0.0215  0.1358  0.2061
  949POPC   C2B13544  14.505   8.464   7.059 -0.1626 -0.1342 -0.0153
  949POPC   C3B13545  14.640   8.603   7.410  0.3134 -0.1227 -0.1716
  949POPC   C4B13546  14.966   8.644   7.718  0.2390  0.0672 -0.1213
  950POPC   NC313547  13.885   7.200   5.931 -0.2098 -0.0472  0.2530
  950POPC   PO413548  13.874   7.584   5.842  0.2699 -0.1499  0.0431
  950POPC   GL113549  14.127   7.708   6.177 -0.2380  0.0188  0.2255
  950POPC   GL213550  14.386   7.915   6.096  0.3733 -0.0675  0.0812
  950POPC   C1A13551  14.030   7.700   6.587  0.1634 -0.1873 -0.0283
  950POPC   D2A13552  13.741   7.773   6.958 -0.0550  0.0401  0.1867
  950POPC   C3A13553  13.719   7.841   7.386  0.2761 -0.1141 -0.0898
  950POPC   C4A13554  14.007   7.915   7.716 -0.1011 -0.0575  0.2195
  950POPC   C1B13555  14.461   7.965   6.566  0.0051  0.1064 -0.0712
  950POPC   C2B13556  14.694   8.020   7.069  0.1854  0.0930 -0.0035
  950POPC   C3B13557  15.011   8.260   7.338 -0.0855 -0.1801  0.3103
  950POPC   C4B13558  15.348   8.427   7.190 -0.0800 -0.1918 -0.2450
  951POPC   NC313559  10.590  17.400   5.913  0.1802 -0.2938  0.0973
  951POPC   PO413560  10.113  17.521   5.920  0.1162  0.3115  0.0579
  951POPC   GL113561  10.259  17.415   6.297  0.0691  0.1791 -0.5332
  951POPC   GL213562  10.465  17.590   6.390 -0.2750 -0.3331  0.1293
  951POPC   C1A13563  10.191  17.577   6.794  0.1884  0.0699 -0.1619
  951POPC   D2A13564  10.167  17.644   7.258 -0.2693  0.0580 -0.1165
  951POPC   C3A13565  10.502  17.820   7.570 -0.2626 -0.5507  0.1107
  951POPC   C4A13566  10.825  18.077   7.631 -0.1698  0.3282  0.3965
  951POPC   C1B13567  10.678  17.613   6.787 -0.3458  0.0127  0.4211
  951POPC   C2B13568  10.571  17.384   7.142  0.1402  0.2012  0.2535
  951POPC   C3B13569  10.490  17.347   7.593  0.0919  0.1021  0.0619
  951POPC   C4B13570  10.466  16.919   7.875  0.2860 -0.2303 -0.1885
  952POPC   NC313571   8.846   9.215   5.828 -0.0753  0.0405 -0.0962
  952POPC   PO413572   8.755   9.711   5.700  0.1557 -0.1461 -0.2159
  952POPC   GL113573   8.782   9.644   6.111 -0.1264 -0.0895 -0.2374
  952POPC   GL213574   9.012   9.508   6.154 -0.2816  0.0048  0.0205
  952POPC   C1A13575   8.500   9.475   6.406  0.1016  0.1287  0.2911
  952POPC   D2A13576   8.233   9.498   6.852 -0.1077 -0.0075 -0.2531
  952POPC   C3A13577   8.478   9.807   7.136  0.0095 -0.0298  0.2312
  952POPC   C4A13578   8.725  10.165   7.347  0.2534  0.0446 -0.2016
  952POPC   C1B13579   8.914   9.650   6.573 -0.0822  0.3006  0.0327
  952POPC   C2B13580   8.730   9.436   6.916  0.0121  0.1586  0.0356
  952POPC   C3B13581   8.622   9.364   7.285  0.0029  0.1255 -0.0243
  952POPC   C4B13582   8.660   9.164   7.678  0.2433 -0.1817  0.4109
  953POPC   NC313583  13.502   0.828   5.845 -0.3122  0.1426  0.2106
  953POPC   PO413584  13.132   1.200   5.922 -0.0935 -0.0812 -0.3063
  953POPC   GL113585  12.998   1.322   6.320  0.4736  0.0316  0.0575
  953POPC   GL213586  13.230   1.611   6.270 -0.0254  0.1639  0.1481
  953POPC   C1A13587  12.944   1.447   6.791  0.1081  0.0658  0.0044
  953POPC   D2A13588  12.859   1.658   7.151 -0.1133  0.1844 -0.1353
  953POPC   C3A13589  12.900   1.434   7.487 -0.1310 -0.0201 -0.2350
  953POPC   C4A13590  12.779   1.095   7.721 -0.1229 -0.0956  0.0173
  953POPC   C1B13591  13.417   1.478   6.648  0.0232  0.2884  0.0875
  953POPC   C2B13592  13.391   1.560   7.076 -0.2218  0.1482 -0.0904
  953POPC   C3B13593  13.392   1.472   7.558  0.1521  0.1053 -0.0917
  953POPC   C4B13594  13.255   1.499   7.957 -0.3605 -0.1423 -0.2363
  954POPC   NC313595   4.729   0.980   5.925  0.2950  0.1792 -0.0946
  954POPC   PO413596   4.734   0.593   5.995  0.2905  0.0272 -0.2081
  954POPC   GL113597   4.632   0.348   6.387  0.2276  0.1678 -0.1549
  954POPC   GL213598   4.348   0.354   6.338  0.1782  0.2197 -0.1208
  954POPC   C1A13599   4.603   0.115   6.827  0.2256 -0.1255  0.1719
  954POPC   D2A13600   4.450   0.098   7.345  0.1529 -0.3264 -0.2342
  954POPC   C3A13601   4.630   0.193   7.720 -0.1206  0.1107 -0.1478
  954POPC   C4A13602   4.791   0.394   8.154  0.0763  0.0486  0.1408
  954POPC   C1B13603   4.195   0.377   6.697 -0.0683  0.1300  0.1539
  954POPC   C2B13604   4.156   0.415   7.051  0.0779 -0.1137 -0.1072
  954POPC   C3B13605   3.938   0.730   7.405 -0.0190  0.1629 -0.0306
  954POPC   C4B13606   3.937   0.921   7.791  0.0989  0.2030  0.4256
  955POPC   NC313607  12.464   6.498   6.023 -0.2095  0.0164 -0.0094
  955POPC   PO413608  12.897   6.361   6.097  0.3348  0.1577  0.1204
  955POPC   GL113609  13.128   6.247   6.462  0.1103  0.0354  0.2937
  955POPC   GL213610  13.247   6.482   6.546  0.1998 -0.1370  0.1507
  955POPC   C1A13611  13.173   6.154   6.900  0.1073 -0.3095 -0.0388
  955POPC   D2A13612  13.170   6.265   7.313 -0.2106 -0.1973  0.0036
  955POPC   C3A13613  13.051   6.096   7.580 -0.1265 -0.0376  0.2816
  955POPC   C4A13614  13.010   5.992   7.965 -0.1541  0.1491  0.0195
  955POPC   C1B13615  13.582   6.345   6.672  0.1838  0.2306 -0.1835
  955POPC   C2B13616  13.642   6.290   7.030  0.0228 -0.0074  0.2021
  955POPC   C3B13617  13.597   6.284   7.523 -0.1197  0.0884  0.0082
  955POPC   C4B13618  13.578   6.682   7.875 -0.2237  0.1768  0.1923
  956POPC   NC313619   1.871   4.145   5.654 -0.0451 -0.1226  0.2584
  956POPC   PO413620   1.548   4.425   5.800 -0.0395  0.0547  0.2007
  956POPC   GL113621   1.794   4.277   6.193  0.0665 -0.0160  0.0314
  956POPC   GL213622   2.008   4.583   6.370 -0.2636  0.1084  0.1345
  956POPC   C1A13623   2.075   4.183   6.608 -0.0204  0.0157  0.4678
  956POPC   D2A13624   2.385   4.175   6.866 -0.2877  0.1730  0.0724
  956POPC   C3A13625   2.832   4.316   6.792  0.1658  0.1899  0.1222
  956POPC   C4A13626   3.237   4.343   6.793 -0.0296 -0.0204  0.2798
  956POPC   C1B13627   1.925   4.633   6.828 -0.1409  0.1592  0.1047
  956POPC   C2B13628   2.113   4.500   7.198 -0.1062 -0.2592  0.0748
  956POPC   C3B13629   2.222   4.296   7.559 -0.1158 -0.1256 -0.0979
  956POPC   C4B13630   1.924   4.474   7.842 -0.2277 -0.2543  0.0852
  957POPC   NC313631   5.675  11.059   5.474 -0.1543  0.0846 -0.2659
  957POPC   PO413632   5.939  10.792   5.859 -0.1886  0.2714 -0.2268
  957POPC   GL113633   5.857  11.003   6.242  0.0208 -0.0950 -0.2606
  957POPC   GL213634   6.147  11.171   6.372  0.2024  0.1444  0.0896
  957POPC   C1A13635   5.735  11.043   6.709  0.3174 -0.2227  0.1851
  957POPC   D2A13636   5.833  11.043   7.102  0.1265  0.1173  0.0089
  957POPC   C3A13637   5.860  11.341   7.473  0.5560 -0.1940 -0.0179
  957POPC   C4A13638   5.563  11.564   7.692 -0.3233 -0.2701  0.0419
  957POPC   C1B13639   6.253  10.968   6.792  0.1407  0.0538 -0.3862
  957POPC   C2B13640   6.440  11.043   7.147  0.0771  0.2926 -0.0356
  957POPC   C3B13641   6.173  10.935   7.500  0.1197 -0.1560 -0.1032
  957POPC   C4B13642   5.935  10.944   7.881 -0.2790  0.2337  0.2396
  958POPC   NC313643  17.240  12.708   6.210 -0.0624 -0.1609 -0.0410
  958POPC   PO413644  17.166  12.279   6.244 -0.0135  0.0515  0.0998
  958POPC   GL113645  17.181  12.342   6.681 -0.0859  0.3203 -0.1301
  958POPC   GL213646  16.883  12.115   6.662 -0.1549 -0.0990 -0.0663
  958POPC   C1A13647  17.285  12.382   7.092 -0.1340  0.0346 -0.3192
  958POPC   D2A13648  17.305  12.703   7.341  0.1313  0.1270  0.3351
  958POPC   C3A13649  17.051  12.727   7.557  0.1613 -0.0062  0.0851
  958POPC   C4A13650  16.646  12.849   7.834 -0.0470  0.0725 -0.0451
  958POPC   C1B13651  16.889  12.000   7.126 -0.0332  0.2657  0.2263
  958POPC   C2B13652  16.921  11.824   7.590  0.0662  0.0256 -0.0430
  958POPC   C3B13653  16.834  11.756   8.108  0.0574 -0.2319  0.6300
  958POPC   C4B13654  17.019  11.767   8.444 -0.1727 -0.0537 -0.2382
  959POPC   NC313655  10.985  16.610   6.097 -0.2179  0.0243  0.0812
  959POPC   PO413656  10.655  16.716   5.907  0.2823 -0.2609 -0.3608
  959POPC   GL113657  10.553  16.537   6.305  0.2534 -0.2021 -0.0370
  959POPC   GL213658  10.217  16.720   6.386 -0.1735 -0.1446 -0.0888
  959POPC   C1A13659  10.666  16.312   6.675 -0.0739 -0.0265  0.2142
  959POPC   D2A13660  10.992  16.433   7.048 -0.1707  0.1892  0.2556
  959POPC   C3A13661  10.737  16.448   7.234 -0.2281  0.2308  0.1970
  959POPC   C4A13662  10.467  16.765   7.396  0.2449  0.0173 -0.2204
  959POPC   C1B13663  10.302  16.706   6.788 -0.2070 -0.0274  0.1338
  959POPC   C2B13664  10.696  16.867   6.992  0.2152 -0.0052  0.2265
  959POPC   C3B13665  11.069  16.849   7.254  0.0682  0.0052 -0.0510
  959POPC   C4B13666  11.472  16.955   7.440  0.1220 -0.0396  0.1248
  960POPC   NC313667   3.747  10.918   5.909  0.0614 -0.1484 -0.2833
  960POPC   PO413668   3.684  10.465   5.922  0.0981  0.2285  0.4205
  960POPC   GL113669   3.649  10.650   6.322  0.1766 -0.1279  0.3365
  960POPC   GL213670   3.515  10.498   6.495  0.1290  0.0899 -0.1829
  960POPC   C1A13671   3.874  10.890   6.613 -0.3443  0.2740 -0.0164
  960POPC   D2A13672   4.123  10.751   6.969 -0.2304 -0.1603 -0.0599
  960POPC   C3A13673   4.476  10.604   7.041  0.0979  0.2321 -0.0728
  960POPC   C4A13674   4.587  10.167   7.204 -0.3291 -0.0113  0.1307
  960POPC   C1B13675   3.640  10.553   6.874 -0.1025  0.1030  0.1647
  960POPC   C2B13676   3.828  10.543   7.309  0.1615  0.0694  0.1554
  960POPC   C3B13677   3.868  10.654   7.754  0.1202  0.2313 -0.1545
  960POPC   C4B13678   3.766  10.614   8.180 -0.0473  0.2287 -0.3016
  961POPC   NC313679  12.373  13.188   5.767  0.1647  0.0035 -0.0682
  961POPC   PO413680  12.194  13.454   6.043  0.2325  0.2808  0.1265
  961POPC   GL113681  12.340  13.364   6.352 -0.4331  0.0167  0.1272
  961POPC   GL213682  12.240  13.173   6.598  0.3124 -0.0279  0.2952
  961POPC   C1A13683  12.309  13.677   6.706  0.1257 -0.1267  0.1143
  961POPC   D2A13684  12.337  13.743   7.107  0.1205  0.1636  0.3260
  961POPC   C3A13685  11.814  13.663   7.195  0.0608  0.2052 -0.0487
  961POPC   C4A13686  11.385  13.385   7.048  0.0639 -0.1911  0.0125
  961POPC   C1B13687  12.190  13.269   7.050  0.0451 -0.0294  0.1020
  961POPC   C2B13688  12.208  13.504   7.509 -0.0581  0.0604 -0.0254
  961POPC   C3B13689  12.457  13.826   7.625  0.1437 -0.1244 -0.0637
  961POPC   C4B13690  12.423  13.987   7.962  0.3492 -0.2544 -0.0803
  962POPC   NC313691   9.509   8.795   5.847 -0.1051  0.2590  0.4534
  962POPC   PO413692   9.092   8.778   5.878 -0.2885 -0.3192  0.0696
  962POPC   GL113693   9.169   8.694   6.311  0.0661 -0.0246  0.1273
  962POPC   GL213694   9.552   8.738   6.353  0.3473  0.0129 -0.1817
  962POPC   C1A13695   9.042   8.640   6.735  0.2159  0.0573 -0.0339
  962POPC   D2A13696   8.852   8.540   7.125 -0.0841 -0.0290  0.1472
  962POPC   C3A13697   8.869   8.748   7.444 -0.0280 -0.0330 -0.0166
  962POPC   C4A13698   8.976   8.693   7.983 -0.3079 -0.3509 -0.1692
  962POPC   C1B13699   9.704   8.859   6.799 -0.3233 -0.1766  0.1065
  962POPC   C2B13700   9.614   9.168   7.132 -0.0593 -0.0081  0.1171
  962POPC   C3B13701   9.511   9.570   7.370 -0.0502 -0.1009  0.1982
  962POPC   C4B13702   9.754   9.941   7.504 -0.0763  0.0231 -0.0191
  963POPC   NC313703  15.918   8.961   5.740  0.0150  0.2553  0.1913
  963POPC   PO413704  16.074   9.402   5.903  0.0514 -0.1910 -0.1391
  963POPC   GL113705  15.888   9.371   6.343  0.0264 -0.1767  0.1777
  963POPC   GL213706  16.099   9.396   6.556 -0.2267 -0.0534  0.0970
  963POPC   C1A13707  15.707   9.068   6.605 -0.1081 -0.1483  0.2317
  963POPC   D2A13708  15.700   8.800   7.030  0.4426  0.0037 -0.2574
  963POPC   C3A13709  15.315   8.950   7.359 -0.2424 -0.2601 -0.0823
  963POPC   C4A13710  15.138   9.091   7.789 -0.0551  0.1384  0.0981
  963POPC   C1B13711  15.950   9.316   7.007 -0.0304 -0.0632 -0.1495
  963POPC   C2B13712  15.772   9.151   7.411 -0.1868  0.2199  0.0357
  963POPC   C3B13713  15.634   9.173   7.803 -0.0719 -0.1560  0.2250
  963POPC   C4B13714  15.723   9.266   8.124 -0.2167  0.1968 -0.0598
  964POPC   NC313715   3.518   1.048   5.850 -0.0323  0.1531  0.0410
  964POPC   PO413716   3.816   1.067   6.118 -0.0608 -0.1655 -0.0310
  964POPC   GL113717   3.969   1.349   6.484  0.1329  0.2177 -0.1085
  964POPC   GL213718   4.268   1.202   6.325 -0.1131 -0.2856  0.3784
  964POPC   C1A13719   3.750   1.681   6.568  0.0032  0.1643  0.0938
  964POPC   D2A13720   3.405   1.950   6.648 -0.1212  0.0932 -0.1076
  964POPC   C3A13721   3.161   1.931   7.109 -0.4373 -0.3342  0.1253
  964POPC   C4A13722   2.861   1.718   7.260  0.0875 -0.0893  0.1410
  964POPC   C1B13723   4.641   1.197   6.709 -0.4670  0.0588 -0.0700
  964POPC   C2B13724   4.745   1.322   7.180  0.1678 -0.2406 -0.0721
  964POPC   C3B13725   4.775   1.711   7.137 -0.1303 -0.2738  0.1025
  964POPC   C4B13726   4.492   1.958   6.985 -0.0525  0.0280  0.0606
  965POPC   NC313727  16.268  17.520   5.855  0.1273  0.1628 -0.1288
  965POPC   PO413728  16.056  17.818   6.050  0.0201  0.3181  0.0566
  965POPC   GL113729  15.906  17.654   6.445  0.0947  0.1384 -0.2052
  965POPC   GL213730  16.030  17.403   6.705  0.2223  0.3155  0.0943
  965POPC   C1A13731  15.832  17.881   6.814 -0.0282  0.1983  0.3059
  965POPC   D2A13732  16.068  17.997   7.160  0.3078 -0.1130  0.1538
  965POPC   C3A13733  16.018  18.282   7.518 -0.0196 -0.0243 -0.1590
  965POPC   C4A13734  15.973  18.538   7.780 -0.1599 -0.1289 -0.1522
  965POPC   C1B13735  16.017  17.477   7.078  0.0985  0.0997 -0.0729
  965POPC   C2B13736  15.949  17.283   7.489  0.1134  0.1276 -0.2945
  965POPC   C3B13737  16.096  17.056   7.961  0.1595  0.1928  0.1034
  965POPC   C4B13738  16.128  16.855   8.353 -0.0524  0.2446 -0.0335
  966POPC   NC313739  10.562   6.799   6.111  0.0844  0.1016 -0.1031
  966POPC   PO413740  10.524   6.344   6.266  0.0397 -0.2172  0.0199
  966POPC   GL113741  10.589   6.391   6.699 -0.1231 -0.0137 -0.1432
  966POPC   GL213742  10.795   6.160   6.757 -0.1188  0.1418  0.2335
  966POPC   C1A13743  10.459   6.651   7.121 -0.0692  0.0420  0.0075
  966POPC   D2A13744  10.074   6.623   7.403 -0.1793 -0.1043 -0.0119
  966POPC   C3A13745  10.157   6.459   7.809 -0.0073 -0.1866  0.1182
  966POPC   C4A13746  10.115   6.135   8.022  0.0079  0.0936  0.0664
  966POPC   C1B13747  10.657   6.206   7.199  0.2073  0.0990 -0.0513
  966POPC   C2B13748  10.539   6.148   7.575  0.0296  0.0627 -0.0609
  966POPC   C3B13749  10.626   6.026   7.994 -0.0926 -0.1766 -0.1639
  966POPC   C4B13750  10.814   5.611   8.127 -0.2338 -0.6102  0.0878
  967POPC   NC313751   3.921  15.001   5.962 -0.1331 -0.1207 -0.1321
  967POPC   PO413752   3.999  14.679   6.189 -0.0517 -0.1842 -0.3190
  967POPC   GL113753   3.796  14.442   6.511 -0.1802 -0.0751 -0.0801
  967POPC   GL213754   4.001  14.275   6.508 -0.0047  0.2241 -0.3215
  967POPC   C1A13755   3.584  14.387   6.955  0.2946  0.2117  0.0011
  967POPC   D2A13756   3.534  14.457   7.320  0.0974 -0.1704 -0.0847
  967POPC   C3A13757   3.485  14.159   7.670  0.0301  0.0341 -0.2472
  967POPC   C4A13758   3.285  14.162   8.119  0.0957  0.2106 -0.0738
  967POPC   C1B13759   4.175  14.362   6.933  0.0368  0.1362  0.1439
  967POPC   C2B13760   4.009  14.149   7.171 -0.2217  0.0247 -0.0221
  967POPC   C3B13761   4.007  14.074   7.617 -0.2195  0.3401  0.0721
  967POPC   C4B13762   4.241  14.175   7.986  0.2481  0.0643 -0.3322
  968POPC   NC313763  11.383  16.369   5.453  0.1992  0.2018  0.0160
  968POPC   PO413764  11.165  16.254   5.815 -0.2736 -0.1201  0.0318
  968POPC   GL113765  11.241  15.978   6.072  0.0098 -0.1581 -0.0407
  968POPC   GL213766  10.959  16.101   6.266 -0.1832  0.1007  0.2969
  968POPC   C1A13767  11.352  16.033   6.568 -0.0114  0.2694  0.0262
  968POPC   D2A13768  11.329  15.995   7.051 -0.0302  0.0867  0.1439
  968POPC   C3A13769  11.579  15.911   7.360 -0.2643  0.0228 -0.2724
  968POPC   C4A13770  11.414  15.842   7.774 -0.0388  0.0846  0.0587
  968POPC   C1B13771  10.793  15.840   6.561  0.1152 -0.1303 -0.1180
  968POPC   C2B13772  10.716  15.885   7.105  0.0992  0.0963 -0.0355
  968POPC   C3B13773  10.985  16.078   7.457  0.2719  0.0166 -0.1165
  968POPC   C4B13774  10.977  16.109   7.903 -0.0424 -0.0757  0.1204
  969POPC   NC313775   7.030  14.014   5.425  0.0443 -0.1779  0.1481
  969POPC   PO413776   7.330  13.941   5.732  0.1750  0.1165 -0.1507
  969POPC   GL113777   7.423  13.910   6.157 -0.2244 -0.0548  0.1026
  969POPC   GL213778   7.685  14.114   6.220  0.1676 -0.0650 -0.1568
  969POPC   C1A13779   7.443  13.751   6.530  0.0675  0.1944 -0.1666
  969POPC   D2A13780   7.240  13.877   6.892  0.0644 -0.2336  0.3849
  969POPC   C3A13781   7.271  13.906   7.317  0.0791 -0.2318  0.0355
  969POPC   C4A13782   7.172  13.878   7.825  0.2262  0.0707 -0.1666
  969POPC   C1B13783   7.721  14.448   6.439  0.0025  0.1197 -0.0999
  969POPC   C2B13784   7.951  14.466   6.817  0.0292 -0.0607  0.1564
  969POPC   C3B13785   7.807  14.497   7.265 -0.1885  0.2654 -0.1195
  969POPC   C4B13786   7.975  14.462   7.696  0.2153  0.2814 -0.1389
  970POPC   NC313787   5.226  15.235   5.786  0.2050 -0.0882  0.3208
  970POPC   PO413788   5.248  15.699   6.055 -0.0837 -0.0696 -0.0942
  970POPC   GL113789   5.229  15.626   6.462 -0.0237 -0.0176 -0.2033
  970POPC   GL213790   5.517  15.679   6.502 -0.0830  0.1183  0.2437
  970POPC   C1A13791   5.089  15.542   6.836  0.5033 -0.1175 -0.1271
  970POPC   D2A13792   4.752  15.646   7.087  0.1245 -0.2099 -0.1036
  970POPC   C3A13793   4.685  15.992   7.284  0.4139 -0.1519  0.1780
  970POPC   C4A13794   4.561  15.964   7.748 -0.1071  0.1237 -0.0536
  970POPC   C1B13795   5.620  15.667   6.879 -0.4119  0.3549  0.2150
  970POPC   C2B13796   5.746  15.762   7.294  0.0845 -0.0179  0.0723
  970POPC   C3B13797   5.675  15.916   7.669 -0.2057  0.2752  0.1835
  970POPC   C4B13798   5.757  15.923   8.134  0.0258  0.1634 -0.2490
  971POPC   NC313799  17.466   7.438   5.690  0.1865 -0.0432  0.3138
  971POPC   PO413800  17.186   7.805   5.738  0.0651 -0.2609  0.3537
  971POPC   GL113801  17.072   7.599   6.070  0.1452 -0.2518  0.0043
  971POPC   GL213802  17.175   7.756   6.311  0.0948  0.2043  0.2904
  971POPC   C1A13803  16.794   7.444   6.516  0.1279  0.0588  0.0166
  971POPC   D2A13804  16.866   7.214   6.849  0.1474 -0.0704 -0.1181
  971POPC   C3A13805  17.185   6.972   6.791  0.3192 -0.1033 -0.2963
  971POPC   C4A13806  17.600   6.917   6.513  0.0587  0.0842  0.1371
  971POPC   C1B13807  17.263   7.690   6.724 -0.1845  0.0205 -0.3172
  971POPC   C2B13808  17.095   7.559   7.151  0.0332 -0.0810 -0.2889
  971POPC   C3B13809  17.093   7.226   7.442  0.2650 -0.0572  0.0660
  971POPC   C4B13810  17.203   7.070   7.809 -0.1344 -0.0364 -0.1278
  972POPC   NC313811  16.433   5.094   5.686  0.2167  0.0748  0.0843
  972POPC   PO413812  16.332   4.663   5.820 -0.0216  0.3609  0.2280
  972POPC   GL113813  16.526   4.625   6.084  0.0232 -0.1648  0.1292
  972POPC   GL213814  16.797   4.453   6.164 -0.1514 -0.1520 -0.0489
  972POPC   C1A13815  16.625   4.755   6.515 -0.1094 -0.3124  0.2240
  972POPC   D2A13816  16.685   4.969   6.871 -0.2946 -0.0093 -0.0931
  972POPC   C3A13817  16.699   4.912   7.271 -0.0369 -0.1663 -0.3144
  972POPC   C4A13818  16.302   4.906   7.503  0.1198  0.2202 -0.1367
  972POPC   C1B13819  17.199   4.516   6.485 -0.0374  0.1344  0.0953
  972POPC   C2B13820  17.386   4.453   6.917  0.4390 -0.0264  0.3062
  972POPC   C3B13821  17.564   4.543   7.339 -0.2745  0.1612 -0.0399
  972POPC   C4B13822  17.829   4.775   7.650  0.0106  0.2851 -0.0278
  973POPC   NC313823  15.010   3.456   5.883  0.0427 -0.1153 -0.1703
  973POPC   PO413824  14.708   3.036   6.020  0.4491  0.1499 -0.0780
  973POPC   GL113825  14.693   3.094   6.432  0.2928 -0.3464 -0.2890
  973POPC   GL213826  14.334   3.166   6.435 -0.0198  0.1095  0.2023
  973POPC   C1A13827  14.926   3.273   6.754 -0.3074 -0.1719 -0.1099
  973POPC   D2A13828  15.065   3.475   7.030  0.1103 -0.2406  0.0784
  973POPC   C3A13829  15.000   3.398   7.408  0.0504 -0.0488 -0.2303
  973POPC   C4A13830  15.085   3.398   7.734 -0.1404 -0.0768  0.0169
  973POPC   C1B13831  14.451   3.137   6.876  0.1465 -0.0763  0.1370
  973POPC   C2B13832  14.592   3.198   7.268 -0.2874 -0.0144  0.3092
  973POPC   C3B13833  14.458   3.103   7.650 -0.0809  0.1032 -0.0006
  973POPC   C4B13834  14.530   3.114   8.124  0.2168  0.2215  0.0955
  974POPC   NC313835   6.943   3.007   5.926  0.1031 -0.1496 -0.0096
  974POPC   PO413836   6.620   2.751   5.955 -0.4292  0.2181  0.0102
  974POPC   GL113837   6.452   2.655   6.273  0.4301  0.3233  0.1028
  974POPC   GL213838   6.583   2.743   6.556 -0.0207  0.0045 -0.0029
  974POPC   C1A13839   6.006   2.538   6.474  0.0106 -0.0980  0.0275
  974POPC   D2A13840   5.757   2.150   6.379 -0.3276 -0.2105 -0.1150
  974POPC   C3A13841   5.481   1.987   6.538 -0.0020 -0.2316 -0.1895
  974POPC   C4A13842   5.353   1.866   6.931 -0.3417  0.0637  0.1816
  974POPC   C1B13843   6.755   2.676   6.933  0.1801 -0.1967  0.1401
  974POPC   C2B13844   6.951   2.671   7.259  0.3795  0.0326 -0.2716
  974POPC   C3B13845   6.848   2.597   7.679  0.0973 -0.0212  0.0841
  974POPC   C4B13846   6.815   2.226   7.838  0.0549 -0.1424  0.0102
  975POPC   NC313847  16.662  12.251   6.235 -0.1480 -0.2112  0.1642
  975POPC   PO413848  16.351  11.996   6.395  0.2110  0.0442  0.3116
  975POPC   GL113849  16.298  12.024   6.771 -0.1091 -0.0312  0.3326
  975POPC   GL213850  16.448  11.753   6.891 -0.0779  0.0120  0.1167
  975POPC   C1A13851  16.341  12.071   7.245  0.2246  0.2019 -0.0823
  975POPC   D2A13852  16.349  12.128   7.704 -0.1209  0.1649  0.2689
  975POPC   C3A13853  15.935  12.264   7.995  0.0672  0.2182  0.0617
  975POPC   C4A13854  15.745  12.451   8.354 -0.1610  0.0472 -0.1611
  975POPC   C1B13855  16.575  11.635   7.323 -0.0165  0.2280  0.1786
  975POPC   C2B13856  16.499  11.610   7.735 -0.2258 -0.4290 -0.0938
  975POPC   C3B13857  16.086  11.655   7.924  0.2406 -0.0059  0.1769
  975POPC   C4B13858  15.962  11.437   8.358 -0.0389  0.3039  0.0524
  976POPC   NC313859   6.230   7.804   5.553  0.3706  0.0407 -0.3644
  976POPC   PO413860   6.044   8.089   5.928 -0.2723  0.1662  0.1219
  976POPC   GL113861   6.087   8.236   6.357  0.2227 -0.4441 -0.0632
  976POPC   GL213862   5.790   8.131   6.479 -0.1892 -0.1931  0.2804
  976POPC   C1A13863   6.277   8.578   6.592 -0.1619  0.1040 -0.0168
  976POPC   D2A13864   6.157   9.054   6.536 -0.0193  0.2752  0.0827
  976POPC   C3A13865   6.111   9.290   6.878  0.1152 -0.0838  0.1268
  976POPC   C4A13866   6.479   9.590   6.919 -0.0413  0.1397 -0.0827
  976POPC   C1B13867   6.017   8.213   6.855  0.0282  0.1253 -0.0984
  976POPC   C2B13868   5.841   8.179   7.311  0.0292 -0.0475  0.1058
  976POPC   C3B13869   5.868   8.422   7.803  0.2315 -0.0367  0.0477
  976POPC   C4B13870   5.489   8.569   8.061  0.0067 -0.3507  0.0101
  977POPC   NC313871   9.342   3.424   6.104 -0.1730  0.3347 -0.0172
  977POPC   PO413872   9.366   2.954   6.211  0.1984  0.1081 -0.3538
  977POPC   GL113873   9.160   3.047   6.538 -0.3572  0.0516 -0.1520
  977POPC   GL213874   9.402   2.915   6.696  0.1502  0.1786  0.4142
  977POPC   C1A13875   8.870   2.867   6.827 -0.0101  0.2172  0.2418
  977POPC   D2A13876   8.474   2.815   6.965 -0.1438  0.1485  0.2901
  977POPC   C3A13877   8.400   2.923   7.438 -0.0560 -0.0239  0.0442
  977POPC   C4A13878   8.477   3.229   7.814 -0.0891  0.1054  0.1422
  977POPC   C1B13879   9.316   2.793   7.095 -0.1491  0.0589  0.1004
  977POPC   C2B13880   9.282   2.759   7.536 -0.1417 -0.3002  0.0834
  977POPC   C3B13881   9.377   2.748   7.860 -0.0370  0.1250 -0.0861
  977POPC   C4B13882   9.568   2.523   8.244 -0.3236  0.0846 -0.0512
  978POPC   NC313883  12.745  16.268   6.142 -0.1857 -0.1920  0.1640
  978POPC   PO413884  12.306  16.430   6.057 -0.1230 -0.0413 -0.1750
  978POPC   GL113885  12.134  16.418   6.549 -0.0265 -0.0327 -0.1845
  978POPC   GL213886  11.852  16.621   6.508 -0.1570 -0.0834  0.3543
  978POPC   C1A13887  12.156  16.127   6.891  0.3313  0.1937  0.2875
  978POPC   D2A13888  11.969  16.197   7.266  0.3650 -0.1954  0.0962
  978POPC   C3A13889  11.925  16.564   7.532  0.1232  0.1566 -0.0366
  978POPC   C4A13890  11.917  16.996   7.808  0.0929  0.4114  0.0795
  978POPC   C1B13891  11.699  16.350   6.815 -0.1035  0.1680  0.0186
  978POPC   C2B13892  11.549  16.438   7.209  0.0500  0.2465  0.1659
  978POPC   C3B13893  11.441  16.316   7.662  0.1411  0.0727 -0.2511
  978POPC   C4B13894  11.744  16.270   7.848 -0.0273 -0.0680 -0.1978
  979POPC   NC313895   8.985  13.302   5.653  0.1910  0.0622  0.1235
  979POPC   PO413896   9.328  13.668   5.727 -0.0346  0.4036  0.2436
  979POPC   GL113897   9.162  13.881   6.119  0.0016  0.2112  0.0727
  979POPC   GL213898   9.437  13.660   6.237 -0.2281 -0.0152  0.0178
  979POPC   C1A13899   8.939  13.999   6.526  0.4231  0.1693 -0.0836
  979POPC   D2A13900   8.922  13.985   6.845 -0.0059  0.0163  0.0946
  979POPC   C3A13901   8.915  14.363   7.143  0.2626 -0.1772 -0.0950
  979POPC   C4A13902   9.081  14.751   7.160  0.1215  0.0843 -0.2649
  979POPC   C1B13903   9.657  13.521   6.492  0.1964 -0.1966  0.1686
  979POPC   C2B13904   9.707  13.397   6.786  0.1402 -0.0530 -0.1507
  979POPC   C3B13905   9.844  13.229   7.120 -0.0469 -0.0104 -0.2905
  979POPC   C4B13906   9.799  13.093   7.518 -0.1949 -0.0592  0.0236
  980POPC   NC313907  17.318   5.189   5.458  0.0931  0.0861 -0.1399
  980POPC   PO413908  17.579   4.794   5.263  0.1875  0.0793  0.0476
  980POPC   GL113909  17.806   4.777   5.677  0.0089  0.1492 -0.0371
  980POPC   GL213910  17.786   5.067   5.855 -0.3408  0.1794  0.2228
  980POPC   C1A13911  17.632   4.525   6.051 -0.2449  0.2149 -0.1870
  980POPC   D2A13912  17.599   4.208   6.400 -0.1610  0.0860  0.2416
  980POPC   C3A13913  17.705   4.146   6.748 -0.1322  0.1206  0.0475
  980POPC   C4A13914  17.717   4.109   7.192 -0.2495  0.3694  0.2013
  980POPC   C1B13915  18.113   4.787   6.137  0.0608 -0.0828 -0.1381
  980POPC   C2B13916  17.889   4.644   6.512 -0.0269 -0.2194  0.0238
  980POPC   C3B13917  17.907   4.506   6.974 -0.0115  0.3895  0.2417
  980POPC   C4B13918  18.191   4.299   7.285  0.0172  0.3108  0.0696
  981YOPC   NC313919  12.835   6.812   5.884  0.2893 -0.1202 -0.0492
  981YOPC   PO413920  13.298   6.724   6.035  0.0461 -0.2860  0.0524
  981YOPC   GL113921  13.376   6.989   6.401 -0.1292  0.0745  0.0693
  981YOPC   GL213922  13.571   7.246   6.397 -0.1371 -0.1055 -0.0733
  981YOPC   C1A13923  13.337   6.930   6.782  0.0922  0.3972 -0.2974
  981YOPC   D2A13924  13.366   6.691   7.128  0.1972 -0.0159 -0.1652
  981YOPC   C3A13925  13.244   6.730   7.517  0.1613  0.0417  0.0076
  981YOPC   C4A13926  13.131   6.503   7.852 -0.1042 -0.1594 -0.0833
  981YOPC   C1B13927  13.660   7.300   6.838  0.2095 -0.3468  0.0047
  981YOPC   C2B13928  13.447   7.194   7.202  0.1626  0.0683  0.0092
  981YOPC   D3B13929  13.754   6.980   7.463 -0.0256  0.0572 -0.1908
  981YOPC   C4B13930  14.260   6.911   7.534  0.0333  0.1365  0.3075
  982YOPC   NC313931  13.750  14.517   6.108 -0.0193  0.1449 -0.1125
  982YOPC   PO413932  13.770  14.273   6.429 -0.3139  0.3696 -0.0850
  982YOPC   GL113933  14.116  14.343   6.811 -0.0688 -0.1344 -0.1151
  982YOPC   GL213934  14.358  14.069   6.874  0.3354  0.1121 -0.2532
  982YOPC   C1A13935  14.084  14.435   7.222 -0.0013  0.2402  0.1338
  982YOPC   D2A13936  13.936  14.276   7.554  0.0961  0.0047 -0.0158
  982YOPC   C3A13937  14.018  14.230   7.970  0.0700 -0.2566 -0.0973
  982YOPC   C4A13938  13.974  14.402   8.361 -0.0037 -0.1018  0.1177
  982YOPC   C1B13939  14.154  13.951   7.251 -0.1065  0.0907 -0.0786
  982YOPC   C2B13940  14.077  13.618   7.548  0.3559  0.2356 -0.0221
  982YOPC   D3B13941  13.766  13.655   7.930 -0.2752  0.0267 -0.1691
  982YOPC   C4B13942  13.520  13.598   8.294  0.1165 -0.1016 -0.0987
  983YOPC   NC313943  12.155  15.172   5.633  0.2699  0.3092 -0.0350
  983YOPC   PO413944  11.914  14.792   5.718  0.2495 -0.3857  0.1171
  983YOPC   GL113945  12.084  14.955   6.059 -0.0471  0.0845  0.0001
  983YOPC   GL213946  12.301  15.162   6.149  0.3275  0.1585  0.1484
  983YOPC   C1A13947  11.894  14.858   6.455  0.1906 -0.0276  0.0127
  983YOPC   D2A13948  11.847  14.549   6.750  0.0151  0.1525 -0.0841
  983YOPC   C3A13949  11.943  14.612   7.125 -0.0749  0.1058 -0.0133
  983YOPC   C4A13950  12.091  14.786   7.471  0.1238 -0.3921 -0.4209
  983YOPC   C1B13951  12.434  15.140   6.548 -0.2282 -0.0128  0.2132
  983YOPC   C2B13952  12.291  15.026   6.906 -0.1087 -0.2065  0.1168
  983YOPC   D3B13953  12.284  15.265   7.243  0.0840 -0.1656  0.1457
  983YOPC   C4B13954  12.250  15.505   7.689  0.0277  0.1569 -0.0381
  984YOPC   NC313955  15.949  16.014   6.363 -0.0248 -0.0867 -0.0727
  984YOPC   PO413956  15.851  15.631   6.192 -0.0446 -0.1328 -0.2517
  984YOPC   GL113957  15.850  15.374   6.507  0.0941  0.1261  0.2367
  984YOPC   GL213958  16.017  15.624   6.733  0.1344 -0.0619  0.1499
  984YOPC   C1A13959  15.851  15.158   6.842  0.0925  0.0984 -0.2507
  984YOPC   D2A13960  15.719  15.114   7.290 -0.1680  0.2324  0.1330
  984YOPC   C3A13961  15.973  14.917   7.563  0.0386 -0.2966  0.1287
  984YOPC   C4A13962  16.043  14.610   7.892  0.0395  0.1841 -0.2639
  984YOPC   C1B13963  16.087  15.468   7.125 -0.0893 -0.0256 -0.2737
  984YOPC   C2B13964  15.996  15.473   7.620  0.3991 -0.2411  0.0659
  984YOPC   D3B13965  16.294  15.347   7.821 -0.0667 -0.2179  0.1837
  984YOPC   C4B13966  16.755  15.288   7.892 -0.2683 -0.0706 -0.2201
  985YOPC   NC313967   2.552  16.866   5.907  0.1201  0.0629 -0.0062
  985YOPC   PO413968   2.758  17.185   5.789 -0.1812 -0.0059 -0.0269
  985YOPC   GL113969   2.547  17.311   6.156  0.1283  0.0549 -0.4639
  985YOPC   GL213970   2.594  17.698   6.284 -0.0727  0.1152  0.3545
  985YOPC   C1A13971   2.490  17.034   6.565  0.0806  0.1548  0.1694
  985YOPC   D2A13972   2.622  17.171   6.997 -0.1770  0.0680 -0.0271
  985YOPC   C3A13973   2.393  17.222   7.379 -0.5188  0.2016  0.3362
  985YOPC   C4A13974   2.321  17.286   7.797 -0.3667 -0.2740 -0.0465
  985YOPC   C1B13975   2.508  17.513   6.661  0.1128 -0.0176 -0.1061
  985YOPC   C2B13976   2.179  17.449   6.908  0.1344  0.0332  0.1070
  985YOPC   D3B13977   1.998  17.121   6.759 -0.2362  0.0807  0.1489
  985YOPC   C4B13978   1.681  16.867   6.617 -0.1634 -0.3734  0.1264
  986YOPC   NC313979  16.263   4.172   5.729  0.2172  0.0175  0.1959
  986YOPC   PO413980  16.184   3.691   5.805  0.2177  0.0259  0.2462
  986YOPC   GL113981  16.292   3.762   6.191 -0.0636  0.1135 -0.2917
  986YOPC   GL213982  16.319   3.533   6.384  0.2359 -0.0799 -0.0459
  986YOPC   C1A13983  16.563   4.037   6.429  0.2797 -0.1156 -0.1498
  986YOPC   D2A13984  16.771   4.311   6.677 -0.1184 -0.1020  0.0333
  986YOPC   C3A13985  16.914   4.472   7.052  0.0406  0.3486  0.0340
  986YOPC   C4A13986  17.081   4.530   7.417 -0.0056  0.1900 -0.1475
  986YOPC   C1B13987  16.277   3.701   6.823 -0.1580  0.1548 -0.0483
  986YOPC   C2B13988  16.602   3.992   7.030 -0.1517  0.0916 -0.0578
  986YOPC   D3B13989  16.729   4.082   7.386  0.0372 -0.1227  0.0694
  986YOPC   C4B13990  16.936   4.222   7.841 -0.1322  0.2484 -0.0213
  987YOPC   NC313991   1.688  16.091   6.216 -0.0127 -0.2567  0.3475
  987YOPC   PO413992   2.080  15.877   6.124  0.3720  0.2153  0.0277
  987YOPC   GL113993   2.030  15.637   6.502 -0.1050  0.1947  0.2778
  987YOPC   GL213994   1.786  15.956   6.704 -0.2129 -0.0746  0.0386
  987YOPC   C1A13995   2.113  15.303   6.819 -0.2640 -0.0895 -0.1966
  987YOPC   D2A13996   1.990  15.169   7.169  0.0147  0.2813 -0.1402
  987YOPC   C3A13997   2.053  15.450   7.441 -0.0057 -0.0721  0.2165
  987YOPC   C4A13998   2.293  15.652   7.773  0.1127  0.1193  0.1466
  987YOPC   C1B13999   1.872  16.270   6.908  0.1444  0.0614 -0.0099
  987YOPC   C2B14000   2.147  16.393   7.275 -0.0408 -0.0261 -0.1792
  987YOPC   D3B14001   1.869  16.566   7.653  0.0229 -0.1542  0.1059
  987YOPC   C4B14002   1.530  16.657   7.936 -0.0489  0.1712 -0.2512
  988YOPC   NC314003  11.937   3.266   6.370  0.2329  0.0627 -0.0203
  988YOPC   PO414004  11.731   3.346   6.026  0.2659  0.3068  0.2175
  988YOPC   GL114005  11.575   3.562   6.343  0.2911  0.0650 -0.1178
  988YOPC   GL214006  11.396   3.279   6.475  0.1362  0.1588 -0.0550
  988YOPC   C1A14007  11.649   3.695   6.819  0.2269 -0.0248  0.0929
  988YOPC   D2A14008  11.664   4.036   7.120  0.2327 -0.0104  0.0012
  988YOPC   C3A14009  11.874   3.919   7.582 -0.2415 -0.1887 -0.0139
  988YOPC   C4A14010  12.329   3.940   7.725  0.0041 -0.3385 -0.0617
  988YOPC   C1B14011  11.383   3.256   6.915  0.0949 -0.1225 -0.0370
  988YOPC   C2B14012  11.527   3.568   7.251 -0.2635  0.1405 -0.1384
  988YOPC   D3B14013  11.491   3.632   7.721 -0.0157  0.2080  0.0669
  988YOPC   C4B14014  11.372   4.029   7.855  0.1415  0.0570 -0.1235
  989YOPC   NC314015   3.217   7.975   6.059  0.2855 -0.2388  0.1056
  989YOPC   PO414016   2.856   8.121   6.028  0.1946  0.0066 -0.0365
  989YOPC   GL114017   3.151   8.400   6.307  0.2381  0.0569 -0.2245
  989YOPC   GL214018   3.062   8.214   6.506  0.1380  0.0398  0.1148
  989YOPC   C1A14019   3.539   8.405   6.566  0.0489 -0.0246 -0.2235
  989YOPC   D2A14020   3.706   8.137   6.821 -0.0696 -0.1151 -0.1062
  989YOPC   C3A14021   4.003   8.004   6.950 -0.3077  0.0371  0.1766
  989YOPC   C4A14022   4.355   7.659   6.975 -0.1053 -0.3503  0.2778
  989YOPC   C1B14023   3.122   8.071   6.932  0.2541 -0.1546  0.1634
  989YOPC   C2B14024   3.086   8.159   7.357 -0.0782 -0.0672 -0.1859
  989YOPC   D3B14025   3.363   8.033   7.749 -0.0245  0.1454 -0.0792
  989YOPC   C4B14026   3.718   8.131   8.061 -0.3284  0.2449 -0.1823
  990YOPC   NC314027   1.019   2.841   5.729  0.1952  0.1457  0.0850
  990YOPC   PO414028   1.069   2.426   5.980  0.0264 -0.2616 -0.4219
  990YOPC   GL114029   1.034   2.352   6.458 -0.1071 -0.0292  0.3337
  990YOPC   GL214030   0.961   2.097   6.638  0.0834  0.0420 -0.0034
  990YOPC   C1A14031   1.133   2.429   6.936 -0.1809  0.0306 -0.0006
  990YOPC   D2A14032   1.002   2.365   7.410 -0.1010 -0.1538 -0.1951
  990YOPC   C3A14033   1.092   2.668   7.659 -0.0645  0.0930  0.0619
  990YOPC   C4A14034   0.862   2.964   7.915  0.3993 -0.1724 -0.1493
  990YOPC   C1B14035   0.819   2.029   7.014 -0.1689  0.0789 -0.1244
  990YOPC   C2B14036   0.516   1.781   7.266  0.0490  0.0873  0.0801
  990YOPC   D3B14037   0.481   1.980   7.635 -0.1718 -0.2606  0.2128
  990YOPC   C4B14038   0.213   2.316   7.685  0.1696 -0.1584 -0.0585
  991YOPC   NC314039   0.509  16.007   5.607  0.1406 -0.1277 -0.1793
  991YOPC   PO414040   0.310  15.847   5.856 -0.0230 -0.1517 -0.0486
  991YOPC   GL114041   0.427  15.834   6.225  0.0840  0.0023 -0.0593
  991YOPC   GL214042   0.658  15.572   6.284  0.0543  0.1384  0.0430
  991YOPC   C1A14043   0.155  15.939   6.535  0.2518 -0.1388 -0.3003
  991YOPC   D2A14044  -0.230  15.818   6.705  0.1148  0.0327 -0.0980
  991YOPC   C3A14045  -0.425  15.789   7.119 -0.2912 -0.0101 -0.0431
  991YOPC   C4A14046  -0.529  15.915   7.471 -0.0050 -0.0433 -0.0858
  991YOPC   C1B14047   0.538  15.709   6.749 -0.1500  0.1166 -0.0173
  991YOPC   C2B14048   0.555  15.742   7.173  0.2286 -0.1624 -0.1978
  991YOPC   D3B14049   0.241  15.768   7.499 -0.0481  0.0837  0.0642
  991YOPC   C4B14050  -0.091  15.598   7.524 -0.0857 -0.0722  0.1052
  992YOPC   NC314051   2.306   6.083   6.133  0.1053 -0.1437  0.1888
  992YOPC   PO414052   2.312   6.550   6.244  0.0572 -0.0424 -0.0668
  992YOPC   GL114053   2.675   6.625   6.447 -0.1362 -0.0170  0.1690
  992YOPC   GL214054   2.959   6.755   6.280 -0.0775  0.4174 -0.2551
  992YOPC   C1A14055   2.761   6.496   6.880  0.0580  0.0102  0.1049
  992YOPC   D2A14056   2.559   6.325   7.292  0.2212 -0.1132 -0.1856
  992YOPC   C3A14057   2.806   6.238   7.669 -0.2414 -0.0405 -0.1142
  992YOPC   C4A14058   3.020   6.280   7.977 -0.0107 -0.0398  0.1038
  992YOPC   C1B14059   2.953   7.023   6.608  0.0012  0.3292 -0.0306
  992YOPC   C2B14060   2.729   6.940   6.986  0.0552 -0.0903 -0.0975
  992YOPC   D3B14061   2.898   6.720   7.359 -0.0701  0.1548  0.2072
  992YOPC   C4B14062   3.036   6.759   7.785  0.0783  0.1573 -0.1714
  993YOPC   NC314063  15.770   8.287   5.372 -0.2172 -0.2629  0.2503
  993YOPC   PO414064  16.115   8.512   5.662 -0.1170 -0.0526 -0.0393
  993YOPC   GL114065  16.010   8.564   6.046  0.0104  0.3451  0.1181
  993YOPC   GL214066  15.629   8.741   6.122  0.1826  0.2011  0.2171
  993YOPC   C1A14067  15.914   8.574   6.448  0.1921 -0.1638  0.4112
  993YOPC   D2A14068  15.552   8.612   6.582 -0.0838  0.1421  0.0917
  993YOPC   C3A14069  15.500   8.223   6.700 -0.0619  0.1954 -0.0958
  993YOPC   C4A14070  15.229   7.969   6.964  0.1974  0.1656 -0.1133
  993YOPC   C1B14071  15.338   8.437   6.177 -0.1237  0.1216 -0.0688
  993YOPC   C2B14072  15.386   7.988   6.221 -0.1704  0.1821 -0.0988
  993YOPC   D3B14073  15.216   7.689   6.523 -0.0246  0.1208  0.1497
  993YOPC   C4B14074  14.948   7.594   6.772 -0.1298 -0.1700 -0.3021
  994YOPC   NC314075   8.317   7.381   5.746 -0.2693 -0.3574 -0.0863
  994YOPC   PO414076   8.066   7.100   5.795  0.1159  0.0048  0.0337
  994YOPC   GL114077   8.258   7.147   6.199  0.0250 -0.0041  0.1020
  994YOPC   GL214078   8.498   7.066   6.268  0.0518 -0.0143 -0.0757
  994YOPC   C1A14079   8.143   7.138   6.654 -0.1616  0.1125  0.1293
  994YOPC   D2A14080   8.154   7.275   7.039  0.0636 -0.0872  0.2067
  994YOPC   C3A14081   8.241   7.090   7.382 -0.3286 -0.4604  0.2021
  994YOPC   C4A14082   8.595   7.038   7.551  0.3421  0.3780 -0.0538
  994YOPC   C1B14083   8.688   7.034   6.590  0.3257 -0.1149 -0.2766
  994YOPC   C2B14084   8.707   7.156   6.967  0.3600 -0.2939 -0.5396
  994YOPC   D3B14085   9.027   6.952   7.281  0.0346  0.1559  0.2800
  994YOPC   C4B14086   9.145   6.818   7.741  0.2601  0.0009 -0.0054
  995YOPC   NC314087   4.625   1.544   5.986  0.0986 -0.3065 -0.1133
  995YOPC   PO414088   4.190   1.727   6.103  0.0830 -0.1322 -0.1675
  995YOPC   GL114089   4.509   1.738   6.498  0.0195  0.0717  0.1349
  995YOPC   GL214090   4.762   1.609   6.419 -0.1389 -0.0193  0.1053
  995YOPC   C1A14091   4.330   1.538   6.771 -0.1185 -0.3120  0.0709
  995YOPC   D2A14092   4.257   1.633   7.318  0.0815 -0.2010  0.1384
  995YOPC   C3A14093   4.581   1.512   7.634  0.2442 -0.1987 -0.1380
  995YOPC   C4A14094   4.905   1.219   7.820  0.3657  0.2095  0.2761
  995YOPC   C1B14095   5.047   1.473   6.798 -0.0777 -0.0477 -0.2265
  995YOPC   C2B14096   5.238   1.408   7.124 -0.1593 -0.2826  0.0653
  995YOPC   D3B14097   5.151   1.679   7.415 -0.2327  0.4369 -0.3303
  995YOPC   C4B14098   5.345   2.033   7.678  0.0028 -0.0499  0.0569
  996YOPC   NC314099   5.019  11.807   5.850 -0.4734 -0.0574 -0.1266
  996YOPC   PO414100   5.026  11.397   6.039  0.0208 -0.1335 -0.2181
  996YOPC   GL114101   4.897  11.597   6.407 -0.2481  0.1217  0.1826
  996YOPC   GL214102   4.583  11.794   6.473  0.2672 -0.1227 -0.3504
  996YOPC   C1A14103   4.791  11.485   6.785 -0.1879 -0.2575  0.3426
  996YOPC   D2A14104   4.862  11.651   7.239  0.0995  0.0663 -0.0631
  996YOPC   C3A14105   5.066  11.570   7.659  0.1383 -0.1634 -0.0599
  996YOPC   C4A14106   5.026  11.588   8.002 -0.0692 -0.0044  0.2804
  996YOPC   C1B14107   4.697  11.943   6.916  0.0849 -0.0005 -0.1369
  996YOPC   C2B14108   4.919  12.248   7.081  0.3625 -0.2768  0.0637
  996YOPC   D3B14109   4.733  12.398   7.509 -0.1714 -0.1536  0.0706
  996YOPC   C4B14110   4.257  12.449   7.641  0.0148 -0.2322 -0.0766
  997YOPC   NC314111   1.538   6.687   6.175 -0.3953  0.0665 -0.0088
  997YOPC   PO414112   1.139   6.768   6.194  0.1071  0.3513  0.0136
  997YOPC   GL114113   0.917   6.584   6.451 -0.0095 -0.0398  0.0573
  997YOPC   GL214114   0.621   6.629   6.514 -0.1802  0.0551 -0.3782
  997YOPC   C1A14115   0.964   6.345   6.797  0.0345 -0.0773  0.1942
  997YOPC   D2A14116   0.807   6.464   7.180 -0.3071  0.1393 -0.1833
  997YOPC   C3A14117   0.600   6.365   7.631 -0.2943  0.0351  0.0325
  997YOPC   C4A14118   0.682   6.346   8.034  0.0207  0.2828  0.1206
  997YOPC   C1B14119   0.616   6.820   6.849  0.1243  0.1843 -0.2620
  997YOPC   C2B14120   0.704   7.096   7.236 -0.4727  0.0293 -0.2181
  997YOPC   D3B14121   1.155   6.952   7.531 -0.0123 -0.2344 -0.1845
  997YOPC   C4B14122   1.223   6.930   7.872  0.1607  0.0077  0.0435
  998YOPC   NC314123  12.587   4.072   5.625  0.0852 -0.2840  0.1277
  998YOPC   PO414124  12.271   4.249   5.877 -0.0749 -0.0864 -0.1919
  998YOPC   GL114125  12.353   4.420   6.312 -0.0193  0.0382  0.1716
  998YOPC   GL214126  12.357   4.727   6.338  0.2230  0.0106 -0.2331
  998YOPC   C1A14127  12.126   4.210   6.667 -0.3236 -0.3643  0.1017
  998YOPC   D2A14128  12.091   3.790   6.663 -0.1971  0.0420  0.3683
  998YOPC   C3A14129  12.123   3.420   6.923 -0.1857  0.1508  0.1013
  998YOPC   C4A14130  11.836   3.196   7.100  0.1633 -0.2339 -0.1516
  998YOPC   C1B14131  12.239   4.676   6.768 -0.2017 -0.0718 -0.2787
  998YOPC   C2B14132  12.323   4.805   7.320  0.1804 -0.0177  0.1282
  998YOPC   D3B14133  12.459   4.594   7.656  0.0093  0.0238 -0.0460
  998YOPC   C4B14134  12.364   4.434   8.011  0.2350 -0.0135 -0.1100
  999YOPC   NC314135  11.191  10.600   5.735 -0.0358  0.1341  0.2879
  999YOPC   PO414136  11.189  10.756   6.146 -0.1293  0.0538 -0.0246
  999YOPC   GL114137  11.013  10.900   6.539  0.3053  0.1385  0.0328
  999YOPC   GL214138  10.784  10.804   6.577  0.0977 -0.1868  0.1049
  999YOPC   C1A14139  11.217  11.229   6.841 -0.0213 -0.1496 -0.0738
  999YOPC   D2A14140  11.144  11.329   7.302  0.0037  0.2645 -0.0057
  999YOPC   C3A14141  11.037  11.653   7.555  0.0408  0.0971  0.3040
  999YOPC   C4A14142  10.749  11.753   7.914  0.2565 -0.2911 -0.0281
  999YOPC   C1B14143  10.751  10.974   7.014  0.0895  0.0748  0.2232
  999YOPC   C2B14144  10.753  11.071   7.447  0.2253  0.1687 -0.2438
  999YOPC   D3B14145  11.084  11.130   7.740  0.2334  0.0213  0.0247
  999YOPC   C4B14146  11.158  10.938   8.131 -0.3849 -0.0675 -0.4452
 1000YOPC   NC314147   8.853  10.170   5.517 -0.0229 -0.0765 -0.1856
 1000YOPC   PO414148   9.175  10.237   5.700 -0.0736 -0.0258  0.2700
 1000YOPC   GL114149   8.991  10.189   6.017  0.0045 -0.0453 -0.3864
 1000YOPC   GL214150   8.657  10.126   5.961  0.4528  0.1655 -0.0968
 1000YOPC   C1A14151   9.142  10.143   6.406 -0.3696  0.3307 -0.0075
 1000YOPC   D2A14152   9.347  10.464   6.604  0.0878 -0.0351 -0.2372
 1000YOPC   C3A14153   9.311  10.573   6.992 -0.0504 -0.0209 -0.1131
 1000YOPC   C4A14154   9.531  10.319   7.341  0.1539 -0.3853  0.0269
 1000YOPC   C1B14155   8.636  10.060   6.409 -0.2050 -0.1195  0.0118
 1000YOPC   C2B14156   8.310   9.911   6.619  0.2040 -0.1630 -0.3493
 1000YOPC   D3B14157   8.068  10.070   7.061 -0.1854 -0.0548 -0.1295
 1000YOPC   C4B14158   7.874  10.166   7.403  0.0767  0.0079  0.2587
 1001YOPC   NC314159  11.284   2.018   6.397 -0.0369 -0.0327 -0.1307
 1001YOPC   PO414160  10.928   1.757   6.316 -0.1078  0.0278 -0.0600
 1001YOPC   GL114161  11.144   1.563   6.699  0.0709  0.0330 -0.1980
 1001YOPC   GL214162  11.339   1.801   6.847 -0.0410  0.1647  0.3913
 1001YOPC   C1A14163  11.205   1.309   7.044 -0.1845  0.0620  0.0307
 1001YOPC   D2A14164  11.310   0.968   7.248 -0.0655 -0.0717  0.0831
 1001YOPC   C3A14165  11.648   1.014   7.399 -0.2309 -0.2798 -0.2079
 1001YOPC   C4A14166  12.013   1.349   7.462  0.1232 -0.0980 -0.1239
 1001YOPC   C1B14167  11.124   1.989   7.210  0.1865  0.0258  0.1158
 1001YOPC   C2B14168  11.373   1.897   7.616 -0.1142 -0.0738  0.1379
 1001YOPC   D3B14169  11.576   2.211   7.760  0.0581 -0.1584  0.0771
 1001YOPC   C4B14170  11.677   2.354   8.119  0.2461 -0.2039 -0.2290
 1002YOPC   NC314171  15.438   4.324   5.885 -0.0539 -0.0422  0.2728
 1002YOPC   PO414172  15.831   4.490   5.656 -0.0414 -0.1332  0.0257
 1002YOPC   GL114173  15.957   4.496   6.140  0.0251  0.1890  0.2963
 1002YOPC   GL214174  16.190   4.289   6.294 -0.0403 -0.2865 -0.2465
 1002YOPC   C1A14175  15.721   4.414   6.596  0.1036 -0.1104  0.2018
 1002YOPC   D2A14176  15.532   4.180   6.830  0.2343  0.2552 -0.0798
 1002YOPC   C3A14177  15.629   4.116   7.260 -0.3613  0.1282 -0.0777
 1002YOPC   C4A14178  15.735   3.919   7.649 -0.3914 -0.0401 -0.0308
 1002YOPC   C1B14179  16.064   4.093   6.544  0.1124 -0.2313 -0.1391
 1002YOPC   C2B14180  16.013   4.152   6.937 -0.2280  0.1112 -0.0759
 1002YOPC   D3B14181  15.878   4.614   7.000  0.0843  0.1102  0.1627
 1002YOPC   C4B14182  15.822   5.050   7.278  0.3541 -0.0436  0.0044
 1003YOPC   NC314183   8.796   4.642   5.487  0.1678  0.2283 -0.1270
 1003YOPC   PO414184   8.798   4.874   5.958  0.2321 -0.1211  0.0674
 1003YOPC   GL114185   9.075   4.853   6.445  0.1701 -0.0704 -0.0853
 1003YOPC   GL214186   9.366   5.063   6.487  0.1881 -0.0765 -0.5167
 1003YOPC   C1A14187   9.330   4.601   6.697 -0.1210  0.3527 -0.2628
 1003YOPC   D2A14188   9.313   4.355   7.018 -0.2656 -0.0443 -0.1449
 1003YOPC   C3A14189   9.133   4.374   7.299 -0.1159  0.0755  0.0103
 1003YOPC   C4A14190   9.165   4.139   7.673  0.1763 -0.0791 -0.0335
 1003YOPC   C1B14191   9.133   5.095   6.878 -0.3828  0.2750 -0.2029
 1003YOPC   C2B14192   9.090   4.833   7.178  0.2028 -0.1329 -0.0878
 1003YOPC   D3B14193   9.018   4.995   7.517  0.1328 -0.0462  0.3575
 1003YOPC   C4B14194   8.636   5.226   7.567  0.0632 -0.1713 -0.0269
 1004YOPC   NC314195   3.247  17.196   5.163 -0.3622 -0.2354  0.0496
 1004YOPC   PO414196   3.199  17.225   5.612 -0.0916 -0.2988 -0.2163
 1004YOPC   GL114197   3.186  17.285   6.119  0.0076  0.1242  0.0468
 1004YOPC   GL214198   3.517  17.350   6.193  0.3514 -0.0994 -0.1910
 1004YOPC   C1A14199   2.975  17.317   6.539  0.0830 -0.0301  0.2048
 1004YOPC   D2A14200   3.136  17.358   6.983  0.0199  0.1343  0.0844
 1004YOPC   C3A14201   2.929  17.303   7.346  0.2708 -0.1032 -0.0319
 1004YOPC   C4A14202   2.802  17.306   7.838 -0.2165 -0.0716  0.0610
 1004YOPC   C1B14203   3.462  17.273   6.631 -0.0825  0.4267  0.0627
 1004YOPC   C2B14204   3.505  17.031   7.048 -0.1130 -0.0550 -0.0750
 1004YOPC   D3B14205   3.704  16.992   7.439 -0.0911  0.2597  0.2053
 1004YOPC   C4B14206   3.785  16.783   7.847 -0.0102  0.2006 -0.2135
 1005YOPC   NC314207   7.864  10.305   5.599  0.1860 -0.2722  0.1801
 1005YOPC   PO414208   8.204  10.523   5.801 -0.0484 -0.0851  0.0323
 1005YOPC   GL114209   8.418  10.672   6.201 -0.1265  0.2682 -0.0228
 1005YOPC   GL214210   8.741  10.554   6.295  0.1336 -0.1213  0.2542
 1005YOPC   C1A14211   8.471  10.825   6.573  0.0325 -0.0184 -0.0458
 1005YOPC   D2A14212   8.803  11.019   6.829 -0.0827 -0.0381 -0.1924
 1005YOPC   C3A14213   8.854  11.030   7.323  0.3172  0.1440  0.1311
 1005YOPC   C4A14214   8.998  10.899   7.705  0.1658 -0.0134  0.0287
 1005YOPC   C1B14215   8.887  10.533   6.685  0.2074 -0.1182  0.0628
 1005YOPC   C2B14216   8.864  10.578   7.108  0.2895  0.1057  0.1733
 1005YOPC   D3B14217   9.051  10.484   7.472  0.0724 -0.1248  0.2395
 1005YOPC   C4B14218   9.346  10.506   7.792 -0.2175  0.1858 -0.1560
 1006YOPC   NC314219   9.132  10.713   6.006  0.0412 -0.2042  0.1835
 1006YOPC   PO414220   9.621  10.897   6.059  0.1174 -0.1269 -0.2015
 1006YOPC   GL114221   9.824  10.816   6.323 -0.0067  0.0539 -0.3002
 1006YOPC   GL214222   9.864  10.984   6.610 -0.2424 -0.1071 -0.3956
 1006YOPC   C1A14223   9.818  10.474   6.776 -0.3935 -0.0087 -0.0268
 1006YOPC   D2A14224   9.961  10.134   7.021  0.0546 -0.1324  0.0323
 1006YOPC   C3A14225  10.029  10.351   7.416 -0.1305 -0.1867  0.4885
 1006YOPC   C4A14226   9.861  10.433   7.756 -0.0102 -0.1791  0.0602
 1006YOPC   C1B14227   9.819  11.092   6.997 -0.3280  0.0809  0.1632
 1006YOPC   C2B14228   9.815  11.358   7.335  0.0999 -0.0156  0.0074
 1006YOPC   D3B14229   9.511  11.303   7.706 -0.3240  0.0201  0.1485
 1006YOPC   C4B14230   9.640  10.932   7.948 -0.3796 -0.1973  0.2955
 1007YOPC   NC314231   5.118   7.360   5.559  0.0782 -0.1022 -0.2198
 1007YOPC   PO414232   5.455   7.214   5.759 -0.0259 -0.0789 -0.0198
 1007YOPC   GL114233   5.551   7.360   6.143 -0.1610 -0.0151  0.0213
 1007YOPC   GL214234   5.520   7.189   6.323 -0.1608 -0.1794  0.1996
 1007YOPC   C1A14235   5.440   7.725   6.388 -0.2352  0.0443 -0.1113
 1007YOPC   D2A14236   5.113   8.072   6.295  0.0495 -0.0006 -0.2246
 1007YOPC   C3A14237   4.945   8.273   6.521  0.3179 -0.1232 -0.1077
 1007YOPC   C4A14238   4.987   8.450   6.963 -0.1333  0.4185  0.0218
 1007YOPC   C1B14239   5.173   7.306   6.623  0.1724 -0.5440  0.1574
 1007YOPC   C2B14240   4.946   7.358   7.026 -0.0704 -0.0695  0.0909
 1007YOPC   D3B14241   5.072   7.269   7.377  0.1266  0.0269  0.3354
 1007YOPC   C4B14242   4.992   7.498   7.721  0.0711  0.0754 -0.0107
 1008YOPC   NC314243  12.258   2.654   5.789 -0.1807 -0.1168 -0.0201
 1008YOPC   PO414244  12.319   2.780   6.294  0.4128 -0.0171  0.2369
 1008YOPC   GL114245  12.333   2.564   6.590 -0.1084 -0.2315 -0.0248
 1008YOPC   GL214246  12.094   2.899   6.737 -0.1724 -0.0192 -0.1460
 1008YOPC   C1A14247  12.277   2.498   6.961  0.2124  0.1609  0.1001
 1008YOPC   D2A14248  12.115   2.232   7.215 -0.2566 -0.0067  0.1877
 1008YOPC   C3A14249  12.118   2.232   7.677 -0.0709  0.1806  0.3052
 1008YOPC   C4A14250  12.227   2.446   8.057 -0.1596 -0.0443  0.2832
 1008YOPC   C1B14251  12.250   2.981   7.129 -0.3582 -0.1566 -0.0857
 1008YOPC   C2B14252  12.120   3.078   7.519  0.1942  0.2273  0.0178
 1008YOPC   D3B14253  11.795   3.261   7.650  0.1702 -0.2668  0.1609
 1008YOPC   C4B14254  11.391   3.171   7.549  0.0738 -0.0673  0.0366
 1009YOPC   NC314255   4.383   9.774   5.927  0.0238 -0.0441  0.1628
 1009YOPC   PO414256   4.612  10.138   5.889 -0.2116  0.0051 -0.1341
 1009YOPC   GL114257   4.637  10.085   6.297  0.3496 -0.2788 -0.1429
 1009YOPC   GL214258   4.444   9.812   6.463 -0.3017 -0.1417 -0.0898
 1009YOPC   C1A14259   4.685  10.253   6.738  0.2262 -0.0410 -0.1891
 1009YOPC   D2A14260   5.042  10.291   6.954 -0.2115 -0.0459 -0.2458
 1009YOPC   C3A14261   5.214   9.922   7.073 -0.2716 -0.0376 -0.2921
 1009YOPC   C4A14262   5.318   9.475   7.038 -0.2390 -0.2944 -0.2103
 1009YOPC   C1B14263   4.415   9.705   6.962  0.0751 -0.1059 -0.1287
 1009YOPC   C2B14264   4.328   9.605   7.413 -0.0362 -0.2404  0.0968
 1009YOPC   D3B14265   3.947   9.574   7.696  0.0116 -0.3170  0.0913
 1009YOPC   C4B14266   3.837   9.719   8.091 -0.0017  0.2215  0.0470
 1010YOPC   NC314267  10.052   7.136   5.425  0.1842  0.1181 -0.0570
 1010YOPC   PO414268  10.182   6.864   5.739  0.0761  0.1443  0.1190
 1010YOPC   GL114269   9.923   6.933   6.171 -0.1211 -0.1701  0.4945
 1010YOPC   GL214270   9.540   6.893   6.173  0.0360  0.1608  0.1626
 1010YOPC   C1A14271   9.865   6.984   6.558  0.0559  0.0658  0.2504
 1010YOPC   D2A14272   9.753   7.294   6.777 -0.1527  0.1260  0.2059
 1010YOPC   C3A14273  10.012   7.634   7.028 -0.1309 -0.0264  0.0779
 1010YOPC   C4A14274  10.284   7.893   7.109 -0.0289 -0.3707  0.0246
 1010YOPC   C1B14275   9.381   7.098   6.492 -0.0647  0.4350 -0.1793
 1010YOPC   C2B14276   9.377   7.153   7.047  0.2269 -0.1120  0.1183
 1010YOPC   D3B14277   9.351   7.225   7.582  0.0938 -0.0009  0.2325
 1010YOPC   C4B14278   9.507   7.403   7.920 -0.0991 -0.1498  0.1022
 1011YOPC   NC314279   7.222  14.430   6.016 -0.1971  0.1558 -0.1193
 1011YOPC   PO414280   6.940  14.724   6.123 -0.1786 -0.0718 -0.1103
 1011YOPC   GL114281   6.826  14.632   6.514 -0.0535  0.1464 -0.2023
 1011YOPC   GL214282   6.499  14.507   6.620 -0.3019  0.0860 -0.2471
 1011YOPC   C1A14283   6.872  14.511   6.956  0.3921 -0.1189  0.0315
 1011YOPC   D2A14284   6.818  14.143   7.287 -0.0313 -0.0809  0.3668
 1011YOPC   C3A14285   6.916  14.335   7.815  0.0616 -0.2636  0.4745
 1011YOPC   C4A14286   7.033  14.687   8.058 -0.0294 -0.3146  0.2317
 1011YOPC   C1B14287   6.425  14.824   6.946  0.0280  0.1258 -0.1487
 1011YOPC   C2B14288   6.523  14.751   7.294  0.1007 -0.1497  0.2306
 1011YOPC   D3B14289   6.192  14.710   7.453  0.2038 -0.1879  0.1778
 1011YOPC   C4B14290   5.938  14.839   7.778 -0.0953 -0.0734 -0.0062
 1012YOPC   NC314291   2.562   5.358   5.832  0.0517  0.2679  0.1211
 1012YOPC   PO414292   2.346   5.567   6.063 -0.0086  0.1478  0.2816
 1012YOPC   GL114293   2.629   5.570   6.363  0.1000 -0.1093  0.3874
 1012YOPC   GL214294   2.628   5.924   6.517  0.1348  0.1432  0.2282
 1012YOPC   C1A14295   2.691   5.594   6.864 -0.0373 -0.0137  0.3518
 1012YOPC   D2A14296   2.646   5.841   7.132 -0.0933  0.2908 -0.2084
 1012YOPC   C3A14297   2.603   5.777   7.458  0.0564  0.1535  0.1666
 1012YOPC   C4A14298   2.296   5.606   7.768  0.0524  0.2780 -0.1035
 1012YOPC   C1B14299   2.448   6.113   6.805  0.0406 -0.0839 -0.0569
 1012YOPC   C2B14300   2.083   6.104   6.987 -0.1771  0.2462 -0.2513
 1012YOPC   D3B14301   2.150   6.036   7.411 -0.1960  0.0816 -0.0788
 1012YOPC   C4B14302   1.860   5.851   7.741 -0.0780  0.1461  0.0812
 1013YOPC   NC314303   9.156   6.993   5.619 -0.1290 -0.1282  0.0860
 1013YOPC   PO414304   9.393   7.354   5.847  0.0160 -0.1910 -0.0813
 1013YOPC   GL114305   9.586   7.523   6.273  0.0093 -0.1881 -0.1172
 1013YOPC   GL214306   9.511   7.829   6.387 -0.0536  0.0402 -0.0515
 1013YOPC   C1A14307   9.970   7.559   6.387 -0.0692  0.0426  0.1055
 1013YOPC   D2A14308  10.281   7.765   6.596  0.1175  0.3881 -0.0058
 1013YOPC   C3A14309  10.405   8.068   6.299 -0.2209 -0.1514  0.2680
 1013YOPC   C4A14310  10.329   8.474   6.172 -0.2206  0.4711  0.0594
 1013YOPC   C1B14311   9.513   7.808   6.798  0.1415 -0.1808 -0.1876
 1013YOPC   C2B14312   9.473   7.629   7.208  0.1693  0.1241 -0.1585
 1013YOPC   D3B14313   9.882   7.486   7.516 -0.1446 -0.0810  0.0408
 1013YOPC   C4B14314  10.048   7.699   7.873  0.1997  0.3267 -0.1378
 1014YOPC   NC314315   4.127   0.424   5.249  0.0684 -0.0068 -0.2392
 1014YOPC   PO414316   3.891   0.716   5.621 -0.1409 -0.0801 -0.2437
 1014YOPC   GL114317   3.668   0.595   5.990  0.1316 -0.0786  0.2099
 1014YOPC   GL214318   3.736   0.271   6.098 -0.1349 -0.1566  0.1138
 1014YOPC   C1A14319   3.543   0.583   6.420  0.0956 -0.0461  0.0428
 1014YOPC   D2A14320   3.664   0.615   6.916  0.1759 -0.0569  0.2091
 1014YOPC   C3A14321   3.539   0.343   7.375 -0.1065  0.0456 -0.0267
 1014YOPC   C4A14322   3.571  -0.057   7.509 -0.2607 -0.0534 -0.0855
 1014YOPC   C1B14323   3.775   0.094   6.484  0.1399 -0.0600 -0.0542
 1014YOPC   C2B14324   3.745   0.064   6.874  0.1523 -0.2061 -0.0505
 1014YOPC   D3B14325   4.003  -0.073   7.100  0.1252 -0.0560 -0.1193
 1014YOPC   C4B14326   4.086  -0.297   7.508  0.1752  0.2400  0.2286
 1015YOPC   NC314327  13.460   6.256   6.071 -0.3775  0.1161 -0.0025
 1015YOPC   PO414328  13.792   5.836   6.137 -0.1353  0.1631 -0.0054
 1015YOPC   GL114329  13.904   5.699   6.539  0.0764  0.4965  0.1143
 1015YOPC   GL214330  13.941   5.997   6.621  0.1321 -0.1587 -0.4785
 1015YOPC   C1A14331  14.157   5.519   6.728  0.2102 -0.0690  0.0491
 1015YOPC   D2A14332  14.105   5.571   7.144 -0.4043 -0.1505 -0.0212
 1015YOPC   C3A14333  14.453   5.698   7.447  0.3717 -0.3296 -0.0663
 1015YOPC   C4A14334  14.779   5.628   7.815 -0.2998 -0.1304  0.0483
 1015YOPC   C1B14335  14.044   6.037   7.034 -0.1841  0.0249 -0.0571
 1015YOPC   C2B14336  14.025   6.006   7.494 -0.0421  0.0508 -0.0971
 1015YOPC   D3B14337  13.955   5.470   7.631 -0.0249  0.0911 -0.0444
 1015YOPC   C4B14338  13.958   5.052   7.576  0.0283 -0.0544  0.0614
 1016YOPC   NC314339  13.490   1.611   5.847 -0.0205  0.0308  0.1733
 1016YOPC   PO414340  13.912   1.765   5.775  0.1340 -0.3076 -0.0294
 1016YOPC   GL114341  14.103   1.765   6.136  0.0438 -0.2834  0.2315
 1016YOPC   GL214342  13.962   1.425   6.329  0.3074 -0.1817  0.0669
 1016YOPC   C1A14343  14.336   1.823   6.515 -0.0162  0.0743 -0.1201
 1016YOPC   D2A14344  14.446   1.910   6.977 -0.2345  0.0511 -0.2339
 1016YOPC   C3A14345  14.230   1.837   7.344  0.0533 -0.0553  0.2789
 1016YOPC   C4A14346  14.455   2.226   7.650  0.1542 -0.3756 -0.0152
 1016YOPC   C1B14347  14.054   1.553   6.803 -0.1399  0.2303 -0.1218
 1016YOPC   C2B14348  14.350   1.416   7.012  0.0458  0.3049 -0.2116
 1016YOPC   D3B14349  14.387   1.346   7.407  0.0233 -0.2894  0.1427
 1016YOPC   C4B14350  14.272   1.274   7.926  0.0418 -0.0273  0.3539
 1017YOPC   NC314351  16.593   7.585   5.873 -0.0155  0.2388  0.0911
 1017YOPC   PO414352  16.175   7.716   6.091  0.0158  0.1086  0.0741
 1017YOPC   GL114353  16.290   7.422   6.356  0.0153 -0.0252 -0.1273
 1017YOPC   GL214354  16.259   7.582   6.574  0.0353  0.2164 -0.3100
 1017YOPC   C1A14355  16.409   7.049   6.629 -0.0629 -0.0324 -0.1741
 1017YOPC   D2A14356  16.503   6.782   6.869  0.3674  0.3032 -0.1043
 1017YOPC   C3A14357  16.850   6.817   7.162 -0.2755  0.0983  0.1014
 1017YOPC   C4A14358  17.261   6.819   7.281 -0.0634 -0.0324  0.0918
 1017YOPC   C1B14359  16.156   7.839   7.016 -0.0148 -0.1518 -0.3661
 1017YOPC   C2B14360  15.967   7.714   7.411 -0.1707  0.2794  0.2846
 1017YOPC   D3B14361  15.810   7.919   7.830  0.3984  0.2035 -0.3008
 1017YOPC   C4B14362  15.722   8.282   8.121  0.1217  0.3652 -0.2801
 1018YOPC   NC314363   5.486  10.970   5.941  0.1898 -0.6160 -0.0936
 1018YOPC   PO414364   5.159  10.739   6.113 -0.1569  0.0375  0.2653
 1018YOPC   GL114365   5.142  11.022   6.365  0.0444  0.1434 -0.1301
 1018YOPC   GL214366   4.894  11.092   6.462 -0.1397  0.0517  0.2089
 1018YOPC   C1A14367   5.275  11.340   6.661  0.4113 -0.0059  0.0942
 1018YOPC   D2A14368   5.339  11.301   7.028 -0.0789  0.0450  0.1726
 1018YOPC   C3A14369   5.157  11.194   7.330  0.0748 -0.2027 -0.2077
 1018YOPC   C4A14370   4.982  11.079   7.726 -0.0884 -0.1412 -0.2626
 1018YOPC   C1B14371   4.925  10.957   6.935  0.1495  0.1999  0.3254
 1018YOPC   C2B14372   4.984  10.733   7.189 -0.0072 -0.1705  0.3273
 1018YOPC   D3B14373   4.735  10.588   7.424 -0.1487  0.1720 -0.0414
 1018YOPC   C4B14374   4.600  10.743   7.839 -0.1185 -0.1403  0.2388
 1019YOPC   NC314375   7.457   4.716   5.898 -0.1633  0.1610  0.0783
 1019YOPC   PO414376   7.754   4.901   6.131 -0.1087  0.0019 -0.0481
 1019YOPC   GL114377   7.870   4.791   6.501 -0.0756 -0.2574 -0.4989
 1019YOPC   GL214378   8.165   4.597   6.710  0.1278  0.2165  0.2059
 1019YOPC   C1A14379   7.779   4.725   6.942  0.1848  0.0772 -0.0649
 1019YOPC   D2A14380   7.589   4.669   7.423  0.0192 -0.1754  0.1814
 1019YOPC   C3A14381   7.741   4.255   7.666 -0.2417 -0.1128 -0.2248
 1019YOPC   C4A14382   7.424   4.130   8.059  0.4257 -0.3853 -0.0063
 1019YOPC   C1B14383   8.144   4.506   7.175 -0.1757  0.2982  0.1313
 1019YOPC   C2B14384   8.224   4.424   7.578 -0.2262 -0.1775 -0.0192
 1019YOPC   D3B14385   7.933   4.696   7.730 -0.4199  0.0605  0.0483
 1019YOPC   C4B14386   7.778   5.119   7.726 -0.0809  0.1465  0.0853
 1020YOPC   NC314387   0.417   1.740   5.787 -0.1173 -0.1411  0.1083
 1020YOPC   PO414388   0.095   1.414   5.741  0.1274 -0.2563 -0.2040
 1020YOPC   GL114389  -0.046   1.237   6.036 -0.1285 -0.0554 -0.1021
 1020YOPC   GL214390   0.014   0.826   6.032 -0.1887 -0.0687 -0.0941
 1020YOPC   C1A14391  -0.055   1.364   6.480  0.1193  0.0553  0.2759
 1020YOPC   D2A14392  -0.162   1.042   6.856 -0.0208  0.1026  0.1793
 1020YOPC   C3A14393  -0.096   0.959   7.316 -0.1746  0.1912  0.0159
 1020YOPC   C4A14394  -0.207   0.738   7.603 -0.1318  0.0712 -0.1704
 1020YOPC   C1B14395  -0.191   0.855   6.402 -0.0806  0.3318  0.0516
 1020YOPC   C2B14396  -0.275   0.484   6.657  0.3358  0.1778  0.0555
 1020YOPC   D3B14397  -0.249   0.537   7.149 -0.1748  0.2374 -0.0274
 1020YOPC   C4B14398  -0.528   0.269   7.454 -0.0097 -0.0297 -0.2923
 1021YOPC   NC314399   6.392   1.806   5.993  0.2614  0.1166 -0.2002
 1021YOPC   PO414400   6.669   2.221   6.100  0.1182  0.1603  0.4208
 1021YOPC   GL114401   6.255   2.092   6.437 -0.1074 -0.1614 -0.0898
 1021YOPC   GL214402   6.452   1.795   6.510 -0.1348  0.0018 -0.0932
 1021YOPC   C1A14403   6.109   2.214   6.803 -0.1250  0.3526 -0.1891
 1021YOPC   D2A14404   5.797   2.096   7.054  0.1161 -0.1032 -0.1727
 1021YOPC   C3A14405   5.449   2.325   7.143  0.1202 -0.0895 -0.0771
 1021YOPC   C4A14406   5.244   2.456   7.529  0.0024 -0.1427 -0.1077
 1021YOPC   C1B14407   6.448   1.756   6.991 -0.1236  0.1197 -0.1344
 1021YOPC   C2B14408   6.213   1.730   7.244 -0.2763  0.0073 -0.1380
 1021YOPC   D3B14409   6.185   1.914   7.654  0.1483 -0.0286  0.2933
 1021YOPC   C4B14410   6.268   2.240   8.033  0.1723  0.0400 -0.1247
 1022YOPC   NC314411  14.654  11.641   5.677 -0.2243  0.0652 -0.1423
 1022YOPC   PO414412  14.912  11.307   5.857 -0.1556  0.3348 -0.0930
 1022YOPC   GL114413  14.984  11.394   6.286  0.0082 -0.0120  0.0720
 1022YOPC   GL214414  14.677  11.228   6.447  0.0387 -0.3174  0.1940
 1022YOPC   C1A14415  15.221  11.544   6.754 -0.1975 -0.1820  0.2774
 1022YOPC   D2A14416  15.250  11.610   7.208  0.1739  0.0702  0.2716
 1022YOPC   C3A14417  15.601  11.853   7.391  0.0163 -0.0129 -0.0392
 1022YOPC   C4A14418  15.893  12.001   7.521  0.0753 -0.3071  0.1494
 1022YOPC   C1B14419  14.666  10.825   6.721  0.1322  0.1337  0.0895
 1022YOPC   C2B14420  14.778  10.500   6.896 -0.1013 -0.1421 -0.1635
 1022YOPC   D3B14421  14.778  10.480   7.367 -0.0740  0.1395 -0.2037
 1022YOPC   C4B14422  14.955  10.096   7.451 -0.2936  0.0497  0.4122
 1023YOPC   NC314423  10.191   8.472   5.273 -0.0309  0.0460 -0.0284
 1023YOPC   PO414424  10.701   8.488   5.440  0.2324 -0.3072  0.0025
 1023YOPC   GL114425  10.692   8.579   5.895  0.0525  0.1068  0.3871
 1023YOPC   GL214426  10.895   8.769   6.067  0.1154 -0.1805 -0.0702
 1023YOPC   C1A14427  10.861   8.229   6.238 -0.0955  0.0946 -0.0789
 1023YOPC   D2A14428  10.807   7.871   6.578 -0.2441 -0.1658  0.1419
 1023YOPC   C3A14429  10.832   7.818   7.123  0.0932 -0.2692  0.0226
 1023YOPC   C4A14430  10.716   7.749   7.460  0.1552  0.0894 -0.0914
 1023YOPC   C1B14431  11.141   8.586   6.468  0.0980 -0.0688 -0.0609
 1023YOPC   C2B14432  11.029   8.272   6.813  0.0741  0.0008  0.3217
 1023YOPC   D3B14433  10.928   8.330   7.228 -0.0386  0.0418  0.1942
 1023YOPC   C4B14434  10.575   8.240   7.344  0.1151  0.2688  0.0878
 1024YOPC   NC314435  17.088   5.137   5.051  0.1285 -0.2136  0.2768
 1024YOPC   PO414436  16.803   5.359   5.320  0.0951 -0.0590 -0.1524
 1024YOPC   GL114437  16.908   5.332   5.808 -0.0152 -0.0082 -0.1657
 1024YOPC   GL214438  16.746   5.120   6.085 -0.1405  0.1153 -0.1889
 1024YOPC   C1A14439  16.695   5.536   6.249  0.0530  0.0595  0.0828
 1024YOPC   D2A14440  16.444   5.839   6.257 -0.1972 -0.1943  0.1857
 1024YOPC   C3A14441  16.269   6.186   6.313  0.0316  0.0612  0.1036
 1024YOPC   C4A14442  16.270   6.569   6.450 -0.3202 -0.0809 -0.0826
 1024YOPC   C1B14443  17.096   4.947   6.191 -0.1635  0.0122  0.1459
 1024YOPC   C2B14444  17.488   4.966   6.293 -0.1467  0.1890  0.1536
 1024YOPC   D3B14445  17.443   4.910   6.680 -0.0088  0.0266 -0.1115
 1024YOPC   C4B14446  17.172   4.932   7.045 -0.2770 -0.0586 -0.1471
 1025YOPC   NC314447  16.851   0.555   6.136 -0.0019 -0.2160 -0.1725
 1025YOPC   PO414448  16.937   0.801   5.863  0.0142 -0.0789 -0.0053
 1025YOPC   GL114449  17.017   1.033   6.278  0.0368 -0.2341  0.0379
 1025YOPC   GL214450  16.679   1.108   6.203 -0.0875  0.1090 -0.0124
 1025YOPC   C1A14451  17.382   0.944   6.594 -0.0623  0.0494 -0.1957
 1025YOPC   D2A14452  17.410   0.922   7.033 -0.0480  0.0901 -0.0394
 1025YOPC   C3A14453  17.302   0.761   7.414  0.2778  0.0492  0.0413
 1025YOPC   C4A14454  17.364   0.695   7.833  0.2169 -0.0757 -0.2126
 1025YOPC   C1B14455  16.829   1.484   6.464  0.0798  0.1278  0.0258
 1025YOPC   C2B14456  17.011   1.607   6.886  0.3033 -0.1992  0.1445
 1025YOPC   D3B14457  17.198   1.818   7.167  0.0771 -0.3234  0.2895
 1025YOPC   C4B14458  17.219   1.966   7.586  0.1370 -0.1765 -0.2498
 1026YOPC   NC314459   1.803  17.565   5.640 -0.0799 -0.1983  0.2204
 1026YOPC   PO414460   1.548  17.219   5.776 -0.1626  0.1189  0.2741
 1026YOPC   GL114461   1.829  17.303   6.070  0.2638 -0.0265  0.1051
 1026YOPC   GL214462   2.133  17.044   6.177 -0.0010  0.1303  0.2803
 1026YOPC   C1A14463   2.050  17.521   6.359 -0.1129  0.0853  0.0825
 1026YOPC   D2A14464   2.202  17.881   6.473 -0.0859  0.0024 -0.0389
 1026YOPC   C3A14465   2.124  17.982   6.952  0.0365  0.0814  0.0266
 1026YOPC   C4A14466   2.103  18.178   7.427  0.2062 -0.0168  0.2386
 1026YOPC   C1B14467   2.094  16.569   6.341 -0.2471  0.2515  0.0049
 1026YOPC   C2B14468   2.224  16.251   6.473 -0.1337 -0.0537  0.0387
 1026YOPC   D3B14469   2.338  15.948   6.801 -0.4884 -0.1785  0.1537
 1026YOPC   C4B14470   2.188  15.776   7.106  0.0831  0.0244 -0.2119
 1027YOPC   NC314471  17.726   8.560   5.808 -0.0857 -0.2913  0.0540
 1027YOPC   PO414472  17.756   8.235   6.094  0.0002 -0.1259  0.0686
 1027YOPC   GL114473  17.621   8.029   6.446 -0.0240 -0.0697 -0.1072
 1027YOPC   GL214474  17.400   8.154   6.682  0.0960 -0.0076 -0.2494
 1027YOPC   C1A14475  17.690   7.826   6.919  0.2394 -0.0147  0.2420
 1027YOPC   D2A14476  17.572   7.788   7.349  0.1388 -0.0436  0.0236
 1027YOPC   C3A14477  17.386   7.715   7.737  0.2063 -0.0208  0.0637
 1027YOPC   C4A14478  17.161   7.702   8.121  0.3038 -0.1413 -0.2268
 1027YOPC   C1B14479  17.312   8.532   6.873  0.2053 -0.1676 -0.0494
 1027YOPC   C2B14480  16.940   8.782   6.870 -0.0007  0.1779  0.2742
 1027YOPC   D3B14481  16.693   8.971   7.303 -0.0704 -0.2307  0.0021
 1027YOPC   C4B14482  16.654   8.904   7.646  0.1402  0.2257 -0.2669
 1028YOPC   NC314483  12.467  10.470   6.186  0.0569 -0.0009 -0.0884
 1028YOPC   PO414484  12.134  10.081   6.251  0.1521 -0.1044 -0.3002
 1028YOPC   GL114485  11.883   9.966   6.636  0.0362  0.0004  0.0851
 1028YOPC   GL214486  11.832   9.616   6.587  0.3097  0.0433  0.1011
 1028YOPC   C1A14487  11.799   9.894   6.990 -0.2217 -0.0449  0.0770
 1028YOPC   D2A14488  11.611   9.830   7.409 -0.0689  0.3151 -0.0118
 1028YOPC   C3A14489  11.818  10.060   7.670  0.2113 -0.3537  0.0045
 1028YOPC   C4A14490  11.634  10.279   8.034 -0.1289  0.1634  0.1186
 1028YOPC   C1B14491  11.940   9.395   6.925  0.0160 -0.0008  0.0090
 1028YOPC   C2B14492  11.812   9.316   7.333  0.3883 -0.0962  0.1550
 1028YOPC   D3B14493  12.152   9.206   7.610  0.0479  0.1982  0.1114
 1028YOPC   C4B14494  12.101   8.954   7.938 -0.1401 -0.1849  0.0072
 1029YOPC   NC314495  13.978  15.020   6.287 -0.0326  0.0595 -0.1694
 1029YOPC   PO414496  14.286  14.578   6.334 -0.0811  0.0190  0.1803
 1029YOPC   GL114497  14.348  14.921   6.663  0.3252  0.1653  0.3223
 1029YOPC   GL214498  14.711  14.766   6.646 -0.1197 -0.1318 -0.0681
 1029YOPC   C1A14499  14.289  14.907   7.035  0.0749 -0.3748  0.0949
 1029YOPC   D2A14500  14.271  14.889   7.441 -0.1073  0.0933  0.0282
 1029YOPC   C3A14501  14.292  14.607   7.748 -0.2181  0.0946  0.2036
 1029YOPC   C4A14502  14.428  14.559   8.091  0.0727  0.5643  0.0913
 1029YOPC   C1B14503  14.789  15.072   6.935  0.1022  0.2655  0.3485
 1029YOPC   C2B14504  14.750  15.020   7.327  0.1155  0.4003  0.1467
 1029YOPC   D3B14505  14.683  14.910   7.703  0.2141  0.0164  0.1434
 1029YOPC   C4B14506  14.587  15.154   8.098 -0.2013 -0.0974 -0.0575
 1030YOPC   NC314507   6.493   8.285   5.988 -0.0507  0.3046 -0.2488
 1030YOPC   PO414508   7.016   8.428   5.902  0.1739  0.0348  0.3140
 1030YOPC   GL114509   6.922   8.442   6.291  0.1419  0.1809  0.0247
 1030YOPC   GL214510   7.208   8.267   6.423 -0.2374  0.3341 -0.3211
 1030YOPC   C1A14511   6.902   8.561   6.715 -0.1480 -0.2521 -0.0711
 1030YOPC   D2A14512   6.643   8.547   6.928 -0.3196  0.0290  0.0866
 1030YOPC   C3A14513   6.725   8.298   7.242  0.2037  0.0191  0.2642
 1030YOPC   C4A14514   6.611   8.214   7.644 -0.0055  0.1878 -0.2458
 1030YOPC   C1B14515   7.109   7.863   6.444 -0.2140  0.0113 -0.1134
 1030YOPC   C2B14516   7.304   7.454   6.546  0.1403  0.0993 -0.5129
 1030YOPC   D3B14517   7.735   7.432   6.751 -0.0055 -0.0132  0.0178
 1030YOPC   C4B14518   8.108   7.617   6.654 -0.1549 -0.4174 -0.0487
 1031YOPC   NC314519   7.446   0.802   5.722 -0.0958 -0.2429  0.1899
 1031YOPC   PO414520   7.164   0.681   5.933 -0.0550  0.0141 -0.1429
 1031YOPC   GL114521   7.027   0.833   6.311 -0.1250 -0.1644 -0.0989
 1031YOPC   GL214522   7.288   0.686   6.488 -0.1205  0.0532  0.0865
 1031YOPC   C1A14523   6.959   1.071   6.665 -0.2367 -0.0074  0.0589
 1031YOPC   D2A14524   7.149   1.330   6.962  0.1155 -0.1310 -0.0338
 1031YOPC   C3A14525   7.058   1.323   7.450 -0.2089  0.1972 -0.0297
 1031YOPC   C4A14526   7.073   1.269   8.079 -0.1168 -0.0652 -0.1649
 1031YOPC   C1B14527   7.439   0.888   6.875  0.0623 -0.0972  0.0565
 1031YOPC   C2B14528   7.557   1.229   7.123  0.2068 -0.1460  0.0578
 1031YOPC   D3B14529   7.622   1.258   7.597 -0.0153 -0.2756  0.1347
 1031YOPC   C4B14530   7.434   1.610   7.888 -0.0925  0.2450  0.2968
 1032YOPC   NC314531  10.224   3.803   6.129  0.0805  0.1748  0.4302
 1032YOPC   PO414532  10.311   4.190   6.219 -0.2169 -0.0104  0.0603
 1032YOPC   GL114533  10.211   4.466   6.567  0.0788  0.1841  0.1046
 1032YOPC   GL214534  10.372   4.302   6.852  0.0445  0.2169  0.1452
 1032YOPC   C1A14535  10.255   4.686   7.058 -0.0644  0.0727  0.0894
 1032YOPC   D2A14536  10.152   4.740   7.552  0.0583 -0.1096 -0.1379
 1032YOPC   C3A14537  10.243   4.436   7.841 -0.1617  0.0679  0.0279
 1032YOPC   C4A14538  10.544   4.406   8.196  0.0533  0.1499 -0.1922
 1032YOPC   C1B14539  10.420   4.324   7.344 -0.2913 -0.4459 -0.0582
 1032YOPC   C2B14540  10.724   4.172   7.653 -0.2731  0.2576 -0.3126
 1032YOPC   D3B14541  11.001   4.410   7.781 -0.0275  0.0622 -0.0617
 1032YOPC   C4B14542  11.140   4.842   7.679 -0.0225  0.2495  0.0324
 1033YOPC   NC314543  12.017   9.881   5.662 -0.0470 -0.2571 -0.4283
 1033YOPC   PO414544  11.946   9.537   5.945 -0.2402  0.0963 -0.1832
 1033YOPC   GL114545  11.711   9.330   6.131  0.0177  0.0802  0.3556
 1033YOPC   GL214546  11.397   9.529   6.097  0.3141 -0.0202  0.2261
 1033YOPC   C1A14547  11.725   9.091   6.464 -0.3171  0.4294 -0.2804
 1033YOPC   D2A14548  11.675   8.688   6.803 -0.1392  0.2145 -0.0036
 1033YOPC   C3A14549  11.708   8.814   7.289 -0.2141 -0.0036 -0.1495
 1033YOPC   C4A14550  11.654   9.019   7.743 -0.0335  0.3120 -0.1247
 1033YOPC   C1B14551  11.342   9.509   6.627  0.1355 -0.0485 -0.0191
 1033YOPC   C2B14552  11.462   9.464   6.950 -0.3231 -0.0411 -0.1734
 1033YOPC   D3B14553  11.276   9.361   7.298 -0.0547 -0.0282 -0.4164
 1033YOPC   C4B14554  11.299   9.432   7.759 -0.0773  0.2884 -0.2039
 1034YOPC   NC314555   5.063   8.047   5.813 -0.1852  0.1478  0.4761
 1034YOPC   PO414556   5.343   8.351   5.949  0.0983  0.0145  0.0265
 1034YOPC   GL114557   5.361   8.506   6.345  0.0290 -0.0835  0.0092
 1034YOPC   GL214558   5.229   8.730   6.384  0.1507  0.3874 -0.4848
 1034YOPC   C1A14559   5.437   8.213   6.728  0.1692 -0.2498  0.1664
 1034YOPC   D2A14560   5.728   7.819   6.815  0.0465  0.1059 -0.0314
 1034YOPC   C3A14561   5.910   7.691   7.220  0.0275 -0.1021  0.0055
 1034YOPC   C4A14562   5.907   7.494   7.593 -0.0732  0.0460  0.0853
 1034YOPC   C1B14563   5.229   8.944   6.806 -0.0581  0.0270 -0.2815
 1034YOPC   C2B14564   4.985   8.953   7.102  0.1395  0.0163 -0.3339
 1034YOPC   D3B14565   5.268   9.022   7.495  0.1920 -0.3234  0.2902
 1034YOPC   C4B14566   5.159   8.904   7.889  0.0560 -0.2632  0.0313
 1035YOPC   NC314567   3.511  16.912   5.742 -0.6013  0.1313 -0.1240
 1035YOPC   PO414568   3.881  16.821   6.000  0.2785 -0.0360 -0.0798
 1035YOPC   GL114569   4.005  16.417   6.314  0.0693 -0.0367 -0.0870
 1035YOPC   GL214570   3.868  16.142   6.479 -0.0718  0.0327  0.1768
 1035YOPC   C1A14571   4.081  16.595   6.750  0.0609  0.0582 -0.0057
 1035YOPC   D2A14572   3.949  16.702   7.072  0.1511 -0.1095 -0.1152
 1035YOPC   C3A14573   4.130  16.597   7.542  0.0729  0.2463  0.0106
 1035YOPC   C4A14574   4.464  16.774   7.883  0.1826 -0.0764  0.1141
 1035YOPC   C1B14575   3.610  16.279   6.751 -0.0010  0.1309 -0.4345
 1035YOPC   C2B14576   3.475  16.553   6.992 -0.1132 -0.0356 -0.1901
 1035YOPC   D3B14577   3.685  16.464   7.469  0.3456 -0.0994  0.0662
 1035YOPC   C4B14578   3.608  16.065   7.858  0.0872 -0.0984  0.1305
 1036YOPC   NC314579  12.436   5.770   6.067  0.3501 -0.0620  0.1819
 1036YOPC   PO414580  12.307   5.401   6.151 -0.2751 -0.1285  0.1823
 1036YOPC   GL114581  12.212   5.202   6.413 -0.0402 -0.1858 -0.0789
 1036YOPC   GL214582  11.900   5.209   6.510 -0.0158 -0.1108  0.0271
 1036YOPC   C1A14583  12.312   5.152   6.855  0.0755  0.1635 -0.0922
 1036YOPC   D2A14584  12.643   5.290   7.124 -0.1402  0.0074  0.2148
 1036YOPC   C3A14585  12.571   5.153   7.608 -0.2150 -0.2763 -0.1141
 1036YOPC   C4A14586  12.695   4.946   7.931 -0.3536 -0.0029  0.1048
 1036YOPC   C1B14587  11.841   5.078   6.998 -0.0849 -0.1159  0.0823
 1036YOPC   C2B14588  11.818   4.782   7.332  0.1248  0.1260 -0.0520
 1036YOPC   D3B14589  11.657   4.897   7.750  0.1561 -0.0207  0.1193
 1036YOPC   C4B14590  11.409   4.985   8.052 -0.0983 -0.0003  0.1944
 1037YOPC   NC314591  10.220  12.469   5.652 -0.0770 -0.0971 -0.2229
 1037YOPC   PO414592   9.927  12.429   5.964 -0.0133  0.2447  0.2643
 1037YOPC   GL114593   9.887  12.500   6.372 -0.2168  0.0086 -0.2134
 1037YOPC   GL214594   9.859  12.236   6.607  0.1826  0.1530  0.0869
 1037YOPC   C1A14595   9.716  12.687   6.777  0.0688  0.1279 -0.2342
 1037YOPC   D2A14596   9.405  12.964   6.888  0.0873  0.0529 -0.4400
 1037YOPC   C3A14597   9.308  12.944   7.358 -0.1550  0.2937  0.1735
 1037YOPC   C4A14598   9.442  12.902   7.874  0.3585  0.0052  0.0445
 1037YOPC   C1B14599   9.892  12.302   7.061  0.1112 -0.0356  0.0820
 1037YOPC   C2B14600   9.676  12.590   7.307 -0.0540 -0.0980  0.2438
 1037YOPC   D3B14601   9.517  12.488   7.601  0.1193  0.3258  0.1397
 1037YOPC   C4B14602   9.491  12.190   7.872 -0.2733  0.1333 -0.1002
 1038YOPC   NC314603   6.563  15.146   5.985  0.0923  0.0589  0.0409
 1038YOPC   PO414604   6.316  14.853   6.220  0.0401 -0.1974 -0.0250
 1038YOPC   GL114605   6.596  15.096   6.474  0.2997  0.1421  0.2464
 1038YOPC   GL214606   6.497  15.385   6.579  0.0240 -0.3023 -0.0957
 1038YOPC   C1A14607   6.985  15.077   6.726  0.0035  0.0316 -0.5347
 1038YOPC   D2A14608   7.109  14.962   7.092 -0.3453 -0.0543 -0.2740
 1038YOPC   C3A14609   6.969  14.845   7.501  0.1245  0.1531  0.1538
 1038YOPC   C4A14610   6.563  14.817   7.790 -0.1953  0.0924  0.0865
 1038YOPC   C1B14611   6.591  15.270   6.956 -0.2653  0.0481 -0.1308
 1038YOPC   C2B14612   6.653  15.241   7.428  0.1219  0.0131 -0.2833
 1038YOPC   D3B14613   6.587  15.502   7.814  0.2760 -0.0145 -0.0444
 1038YOPC   C4B14614   6.549  15.933   7.803  0.0824  0.0250 -0.1591
 1039YOPC   NC314615   4.668  12.530   5.689 -0.0215 -0.2321  0.0353
 1039YOPC   PO414616   5.031  12.268   5.576 -0.1587 -0.0948 -0.2464
 1039YOPC   GL114617   4.882  12.249   6.092 -0.0155 -0.0076  0.1635
 1039YOPC   GL214618   4.615  12.385   6.173  0.0685  0.0866 -0.1024
 1039YOPC   C1A14619   4.986  12.117   6.508  0.0372  0.1098  0.0315
 1039YOPC   D2A14620   5.185  11.823   6.883  0.1146 -0.0425  0.2937
 1039YOPC   C3A14621   5.168  11.972   7.399  0.1356 -0.1983 -0.0616
 1039YOPC   C4A14622   5.236  11.972   7.877  0.0923 -0.0113  0.1516
 1039YOPC   C1B14623   4.524  12.404   6.701 -0.2425  0.0407  0.0132
 1039YOPC   C2B14624   4.374  12.334   7.093 -0.2828 -0.0338  0.0105
 1039YOPC   D3B14625   4.446  12.035   7.417 -0.0390  0.0977  0.0425
 1039YOPC   C4B14626   4.732  11.969   7.770 -0.0187 -0.2868 -0.2347
 1040YOPC   NC314627   6.531   5.121   5.607 -0.3900  0.2836  0.1808
 1040YOPC   PO414628   7.095   5.034   5.546  0.0818 -0.2481  0.0925
 1040YOPC   GL114629   6.967   5.227   5.955 -0.3455  0.0739  0.0583
 1040YOPC   GL214630   7.224   5.152   6.093  0.2256  0.2798  0.2367
 1040YOPC   C1A14631   6.895   5.044   6.415  0.1073  0.1406  0.1812
 1040YOPC   D2A14632   7.015   5.201   6.850  0.0778 -0.0101 -0.0029
 1040YOPC   C3A14633   6.622   5.244   6.970  0.1045  0.0037 -0.0123
 1040YOPC   C4A14634   6.236   5.342   7.126 -0.0828  0.1568  0.2706
 1040YOPC   C1B14635   7.169   5.492   6.434  0.0316 -0.1961  0.1956
 1040YOPC   C2B14636   7.093   5.698   6.806 -0.1472  0.2376 -0.1818
 1040YOPC   D3B14637   7.077   5.511   7.260 -0.1138 -0.0352  0.0829
 1040YOPC   C4B14638   7.312   5.144   7.586 -0.1343  0.3113  0.1191
 1041YOPC   NC314639   0.740  17.056   5.814  0.0304 -0.2394 -0.0786
 1041YOPC   PO414640   1.097  17.099   5.659 -0.0577 -0.3437  0.2437
 1041YOPC   GL114641   1.066  17.276   6.084 -0.0367 -0.0786 -0.1955
 1041YOPC   GL214642   1.161  16.944   6.125 -0.0589  0.1625  0.0377
 1041YOPC   C1A14643   1.044  17.486   6.460  0.0010 -0.0667 -0.4462
 1041YOPC   D2A14644   1.020  17.326   6.836 -0.0885 -0.1943 -0.0340
 1041YOPC   C3A14645   0.790  17.347   7.122 -0.0243 -0.0109 -0.1465
 1041YOPC   C4A14646   0.684  17.512   7.501  0.0941 -0.1542  0.0751
 1041YOPC   C1B14647   1.223  16.897   6.489  0.0521 -0.2546 -0.0536
 1041YOPC   C2B14648   1.242  16.708   6.944 -0.0147 -0.1668 -0.0412
 1041YOPC   D3B14649   1.671  16.761   7.079  0.2064  0.1011  0.3887
 1041YOPC   C4B14650   2.065  16.867   7.182 -0.0538 -0.1159 -0.1047
 1042YOPC   NC314651   3.653   6.116   5.688  0.3287  0.2345 -0.3665
 1042YOPC   PO414652   3.350   5.876   5.931  0.0027 -0.3642 -0.0543
 1042YOPC   GL114653   3.197   5.873   6.380  0.0030  0.1850 -0.3319
 1042YOPC   GL214654   3.018   6.221   6.357  0.0336 -0.4115 -0.0096
 1042YOPC   C1A14655   3.028   6.000   6.800 -0.0511 -0.2681  0.1541
 1042YOPC   D2A14656   3.015   6.233   7.208 -0.0277 -0.2228  0.1311
 1042YOPC   C3A14657   3.295   6.200   7.583  0.0029  0.2557  0.0050
 1042YOPC   C4A14658   3.475   6.545   7.892  0.1513 -0.2613 -0.1966
 1042YOPC   C1B14659   3.429   6.260   6.664  0.3435 -0.2039  0.1124
 1042YOPC   C2B14660   3.557   6.333   7.116  0.0068  0.2853  0.5021
 1042YOPC   D3B14661   3.735   6.414   7.448  0.2439 -0.1077  0.2640
 1042YOPC   C4B14662   3.887   6.704   7.739 -0.1936  0.1240  0.0640
 1043YOPC   NC314663  17.372  12.094   5.782 -0.2136  0.0581  0.0566
 1043YOPC   PO414664  17.227  11.748   6.000  0.0015 -0.0953 -0.1382
 1043YOPC   GL114665  17.152  11.683   6.499  0.1010 -0.0225  0.1494
 1043YOPC   GL214666  16.835  11.606   6.567 -0.0483  0.0421 -0.2354
 1043YOPC   C1A14667  17.532  11.523   6.840  0.0345  0.0243  0.1443
 1043YOPC   D2A14668  17.510  11.493   7.265 -0.1213  0.0324  0.0961
 1043YOPC   C3A14669  17.835  11.601   7.538  0.0241  0.0367 -0.0786
 1043YOPC   C4A14670  17.859  11.669   7.918 -0.0059  0.0264 -0.1000
 1043YOPC   C1B14671  17.067  11.530   6.995  0.3634 -0.2429 -0.1771
 1043YOPC   C2B14672  16.993  11.357   7.471  0.1149 -0.0389 -0.0021
 1043YOPC   D3B14673  17.255  11.482   7.751 -0.0986  0.1333  0.1258
 1043YOPC   C4B14674  17.349  11.831   8.011 -0.2659  0.2900 -0.1385
 1044YOPC   NC314675  10.530  15.288   5.763 -0.2906 -0.1090  0.0217
 1044YOPC   PO414676  10.090  15.311   5.546  0.0458  0.2255 -0.2490
 1044YOPC   GL114677  10.088  15.279   6.034  0.2636  0.3181 -0.1809
 1044YOPC   GL214678   9.718  15.327   6.223 -0.1454 -0.1975 -0.0059
 1044YOPC   C1A14679  10.260  15.295   6.461  0.0250 -0.0047 -0.2196
 1044YOPC   D2A14680  10.409  15.030   6.793 -0.2135 -0.2880 -0.0125
 1044YOPC   C3A14681  10.126  14.775   7.217 -0.2375 -0.1866 -0.1025
 1044YOPC   C4A14682  10.117  14.543   7.723  0.1336 -0.1959  0.0667
 1044YOPC   C1B14683   9.812  15.266   6.700 -0.0065 -0.0220 -0.1338
 1044YOPC   C2B14684  10.033  15.298   7.112 -0.1061 -0.1067  0.2527
 1044YOPC   D3B14685   9.890  15.095   7.550 -0.0301  0.2232  0.1669
 1044YOPC   C4B14686  10.031  15.052   7.972  0.1378  0.0228 -0.2891
 1045YOPC   NC314687   0.979  10.653   6.039  0.1061 -0.1352 -0.1462
 1045YOPC   PO414688   0.574  11.101   6.010  0.1636  0.0499 -0.0338
 1045YOPC   GL114689   0.489  11.075   6.417 -0.2630  0.0625 -0.1786
 1045YOPC   GL214690   0.589  11.355   6.681 -0.1182 -0.0037  0.3333
 1045YOPC   C1A14691   0.393  10.959   6.876  0.1483  0.3050 -0.0195
 1045YOPC   D2A14692   0.251  10.823   7.366  0.3759  0.2336  0.1340
 1045YOPC   C3A14693   0.261  10.421   7.439  0.3824 -0.0617  0.0361
 1045YOPC   C4A14694   0.319  10.245   7.799  0.1006 -0.0966  0.0011
 1045YOPC   C1B14695   0.776  11.228   7.066  0.0479 -0.0033 -0.0774
 1045YOPC   C2B14696   0.663  11.130   7.519  0.0110 -0.1224 -0.1183
 1045YOPC   D3B14697   0.855  11.363   7.891  0.0348 -0.1969  0.2202
 1045YOPC   C4B14698   0.708  11.424   8.294 -0.0056  0.1826 -0.2553
 1046YOPC   NC314699  12.581   5.095   5.789 -0.0294 -0.0842  0.1067
 1046YOPC   PO414700  13.001   4.901   5.770 -0.2594  0.1640 -0.0109
 1046YOPC   GL114701  13.049   4.988   6.135  0.0838 -0.2824 -0.0871
 1046YOPC   GL214702  12.809   5.215   6.197  0.3196  0.0879 -0.0297
 1046YOPC   C1A14703  13.248   4.735   6.536  0.0351  0.0010  0.1192
 1046YOPC   D2A14704  13.447   4.848   6.931 -0.0077  0.3114 -0.3959
 1046YOPC   C3A14705  13.446   4.792   7.411 -0.0123 -0.1681  0.1074
 1046YOPC   C4A14706  13.640   4.757   7.822  0.0767 -0.0324 -0.0607
 1046YOPC   C1B14707  12.809   5.155   6.646  0.0847 -0.1817 -0.1767
 1046YOPC   C2B14708  12.903   4.885   7.008 -0.0285  0.0314 -0.0059
 1046YOPC   D3B14709  13.045   5.190   7.415 -0.0125 -0.1054 -0.6182
 1046YOPC   C4B14710  13.019   5.525   7.793  0.2704  0.2210  0.1083
 1047YOPC   NC314711   9.149   3.971   5.807  0.0443  0.0953  0.1820
 1047YOPC   PO414712   9.227   3.881   6.198 -0.2745 -0.1150  0.0978
 1047YOPC   GL114713   9.197   3.973   6.660 -0.2399 -0.1783 -0.0522
 1047YOPC   GL214714   9.495   4.003   6.768  0.0577  0.0626  0.1227
 1047YOPC   C1A14715   8.946   4.000   6.867 -0.0437  0.2353 -0.3384
 1047YOPC   D2A14716   8.538   3.734   7.074 -0.2626  0.0077  0.1511
 1047YOPC   C3A14717   8.425   3.655   7.508 -0.1069 -0.1162 -0.0735
 1047YOPC   C4A14718   8.102   3.892   7.685 -0.0993  0.2074 -0.5269
 1047YOPC   C1B14719   9.332   3.904   7.197 -0.0332 -0.0900  0.1558
 1047YOPC   C2B14720   8.915   3.833   7.349  0.2437  0.0195  0.0555
 1047YOPC   D3B14721   8.864   3.493   7.700  0.2547 -0.0684 -0.0827
 1047YOPC   C4B14722   8.916   3.007   7.806 -0.1108  0.1950 -0.0234
 1048YOPC   NC314723  17.677  13.479   6.221  0.0407  0.2500 -0.0155
 1048YOPC   PO414724  18.104  13.628   6.349  0.1196  0.1037  0.1099
 1048YOPC   GL114725  18.303  13.921   6.617  0.0067 -0.0003 -0.3393
 1048YOPC   GL214726  18.422  13.706   6.791  0.0896  0.1160 -0.0731
 1048YOPC   C1A14727  18.420  14.212   6.962  0.0527  0.0535  0.1030
 1048YOPC   D2A14728  18.597  14.409   7.289  0.1125  0.1588 -0.0327
 1048YOPC   C3A14729  18.730  14.738   7.326 -0.1436  0.0360  0.4169
 1048YOPC   C4A14730  18.749  14.952   7.622 -0.0755  0.0602 -0.1599
 1048YOPC   C1B14731  18.082  13.450   7.050 -0.0380 -0.0201 -0.0473
 1048YOPC   C2B14732  17.883  13.360   7.393  0.1265 -0.3188  0.0698
 1048YOPC   D3B14733  18.044  13.680   7.766  0.1415 -0.0510 -0.1068
 1048YOPC   C4B14734  17.689  13.785   8.147 -0.2099  0.4609 -0.1249
 1049YOPC   NC314735  15.902  13.811   6.163 -0.0817 -0.1623 -0.1835
 1049YOPC   PO414736  15.613  13.420   6.063 -0.0603  0.0686  0.0144
 1049YOPC   GL114737  15.531  13.633   6.512 -0.0499 -0.0301  0.0948
 1049YOPC   GL214738  15.667  13.892   6.661  0.3137  0.0476  0.0836
 1049YOPC   C1A14739  15.259  13.626   6.811 -0.2209 -0.4212  0.2551
 1049YOPC   D2A14740  15.076  13.585   7.256  0.0372  0.3027  0.1001
 1049YOPC   C3A14741  15.178  13.215   7.496 -0.1552  0.1405  0.1528
 1049YOPC   C4A14742  15.182  13.106   7.926 -0.2494 -0.0381 -0.0007
 1049YOPC   C1B14743  15.686  13.793   7.028  0.2414 -0.0355  0.0265
 1049YOPC   C2B14744  15.550  13.473   7.255  0.0853 -0.1167  0.1205
 1049YOPC   D3B14745  15.661  13.293   7.648  0.2310 -0.3800 -0.1172
 1049YOPC   C4B14746  15.854  13.235   8.014  0.1042  0.0815 -0.0371
 1050YOPC   NC314747   1.545   3.075   5.387 -0.0144  0.3683 -0.1282
 1050YOPC   PO414748   1.471   3.110   5.855 -0.2719  0.0997  0.0200
 1050YOPC   GL114749   1.568   3.422   6.144 -0.1159  0.1495 -0.0832
 1050YOPC   GL214750   1.696   3.278   6.298 -0.0562 -0.2374 -0.0945
 1050YOPC   C1A14751   1.586   3.680   6.616 -0.1916  0.0289  0.2679
 1050YOPC   D2A14752   1.621   4.070   6.652  0.1686 -0.0293 -0.2073
 1050YOPC   C3A14753   1.800   4.160   7.034 -0.0554 -0.0069  0.1185
 1050YOPC   C4A14754   1.703   4.442   7.440  0.2592  0.1807 -0.2025
 1050YOPC   C1B14755   1.611   3.048   6.632 -0.1096  0.1224 -0.1453
 1050YOPC   C2B14756   1.487   2.875   7.080  0.0052 -0.0445 -0.0388
 1050YOPC   D3B14757   1.088   2.842   7.205 -0.2035  0.1667  0.2071
 1050YOPC   C4B14758   0.752   3.116   7.409 -0.2829 -0.3434  0.0112
 1051YOPC   NC314759  14.724   1.441   5.499  0.1271  0.0736  0.3278
 1051YOPC   PO414760  14.709   1.842   5.840  0.1268  0.0262  0.1291
 1051YOPC   GL114761  14.738   1.702   6.285 -0.1078 -0.3215 -0.3023
 1051YOPC   GL214762  14.615   1.432   6.415  0.3087 -0.2437  0.2568
 1051YOPC   C1A14763  14.859   1.844   6.668 -0.0114  0.1800  0.0483
 1051YOPC   D2A14764  14.785   1.585   6.921  0.0256  0.0721 -0.2310
 1051YOPC   C3A14765  14.843   1.320   7.302  0.0335  0.1048  0.4004
 1051YOPC   C4A14766  14.793   1.143   7.637 -0.0167  0.2722 -0.1661
 1051YOPC   C1B14767  14.307   1.126   6.613 -0.0423  0.0391 -0.1817
 1051YOPC   C2B14768  14.320   0.710   6.776  0.1422 -0.0698  0.3729
 1051YOPC   D3B14769  13.965   0.492   6.903 -0.0419  0.3171  0.1223
 1051YOPC   C4B14770  14.047   0.257   7.205  0.0078 -0.1269 -0.4411
 1052YOPC   NC314771   8.950  11.738   5.958  0.1424 -0.1875  0.1514
 1052YOPC   PO414772   8.679  12.224   5.906  0.1558 -0.2454  0.3810
 1052YOPC   GL114773   8.641  12.327   6.185  0.0671 -0.0952  0.0158
 1052YOPC   GL214774   8.802  12.058   6.316  0.2760  0.0094 -0.3203
 1052YOPC   C1A14775   8.334  12.224   6.545 -0.0638  0.5256 -0.2083
 1052YOPC   D2A14776   8.120  12.364   6.916  0.1907 -0.2250 -0.1665
 1052YOPC   C3A14777   7.719  12.649   6.774  0.1397  0.1823  0.2439
 1052YOPC   C4A14778   7.577  12.809   6.523 -0.1976 -0.1608  0.0995
 1052YOPC   C1B14779   8.958  11.969   6.686 -0.1648 -0.1385 -0.0183
 1052YOPC   C2B14780   8.972  11.839   7.129  0.0240 -0.1742 -0.0154
 1052YOPC   D3B14781   9.045  12.059   7.527 -0.3722  0.2694  0.4188
 1052YOPC   C4B14782   8.853  12.111   7.915 -0.0583  0.3394 -0.0643
 1053YOPC   NC314783  13.163  16.995   5.980 -0.2063  0.0302 -0.0616
 1053YOPC   PO414784  13.100  16.586   5.843  0.1479  0.0745  0.2520
 1053YOPC   GL114785  12.992  16.652   6.321  0.1805 -0.1448 -0.1487
 1053YOPC   GL214786  13.382  16.762   6.358 -0.0913 -0.3294  0.3463
 1053YOPC   C1A14787  12.840  16.942   6.612  0.1451  0.1185  0.0267
 1053YOPC   D2A14788  12.500  17.144   6.811  0.0459 -0.0217 -0.1309
 1053YOPC   C3A14789  12.229  16.916   6.870 -0.2797  0.4788 -0.1755
 1053YOPC   C4A14790  12.073  16.632   7.050 -0.0535  0.0020 -0.0056
 1053YOPC   C1B14791  13.168  16.563   6.732 -0.1637  0.0298 -0.1504
 1053YOPC   C2B14792  13.117  16.634   7.210 -0.2646  0.0991  0.3531
 1053YOPC   D3B14793  12.870  17.074   7.129 -0.1838 -0.0771  0.0167
 1053YOPC   C4B14794  12.559  17.190   7.338 -0.2647  0.1300  0.3042
 1054YOPC   NC314795  14.163  15.846   5.855 -0.1748 -0.1297  0.0954
 1054YOPC   PO414796  14.503  15.909   6.046 -0.3331  0.0458 -0.2091
 1054YOPC   GL114797  14.555  16.091   6.429 -0.1407 -0.0575  0.2725
 1054YOPC   GL214798  14.460  15.879   6.622  0.3224  0.1708 -0.3244
 1054YOPC   C1A14799  14.666  16.329   6.850 -0.0843 -0.1364 -0.2699
 1054YOPC   D2A14800  14.826  16.201   7.253  0.3246  0.0549 -0.0373
 1054YOPC   C3A14801  14.886  15.909   7.577 -0.1108  0.0170  0.0610
 1054YOPC   C4A14802  14.729  15.671   7.943  0.0196  0.0986  0.1775
 1054YOPC   C1B14803  14.510  15.822   7.012  0.1868 -0.1419  0.0858
 1054YOPC   C2B14804  14.412  15.812   7.419 -0.1897 -0.1794  0.0245
 1054YOPC   D3B14805  14.497  16.164   7.634 -0.1344 -0.1717 -0.1699
 1054YOPC   C4B14806  14.423  16.121   8.048  0.0069  0.2672  0.1356
 1055YOPC   NC314807   1.058  14.493   6.296 -0.1683 -0.3077 -0.0759
 1055YOPC   PO414808   0.717  14.404   6.350  0.1105 -0.1527 -0.2903
 1055YOPC   GL114809   0.690  14.708   6.685  0.1022  0.3102  0.0249
 1055YOPC   GL214810   0.908  14.899   6.732 -0.3493  0.0004  0.0321
 1055YOPC   C1A14811   0.411  14.745   6.924 -0.3056  0.1341 -0.3791
 1055YOPC   D2A14812   0.250  14.723   7.461 -0.2445  0.2458  0.2257
 1055YOPC   C3A14813   0.300  14.854   7.830  0.1394  0.0897  0.1075
 1055YOPC   C4A14814   0.393  15.032   8.209 -0.0287  0.0502  0.0875
 1055YOPC   C1B14815   1.021  15.093   7.067  0.1229  0.4059 -0.0286
 1055YOPC   C2B14816   0.933  15.297   7.355  0.0715 -0.1491 -0.2999
 1055YOPC   D3B14817   1.139  15.315   7.657  0.0807 -0.1313 -0.2176
 1055YOPC   C4B14818   1.326  15.278   8.032 -0.1906  0.2210 -0.2131
 1056YOPC   NC314819   9.736   0.285   5.418 -0.1441 -0.2695 -0.1458
 1056YOPC   PO414820   9.513   0.116   5.744  0.0029  0.1791 -0.3117
 1056YOPC   GL114821   9.431   0.025   6.215  0.2893  0.2131 -0.3929
 1056YOPC   GL214822   9.131  -0.157   6.141  0.0249  0.1345 -0.1594
 1056YOPC   C1A14823   9.530   0.123   6.739 -0.0304  0.0381  0.2302
 1056YOPC   D2A14824   9.619   0.310   7.148 -0.1208  0.0265 -0.0883
 1056YOPC   C3A14825  10.005   0.246   7.451 -0.1563 -0.0486 -0.1184
 1056YOPC   C4A14826  10.469   0.312   7.391  0.0001  0.2402 -0.3962
 1056YOPC   C1B14827   9.171  -0.187   6.556  0.1337  0.1127  0.1538
 1056YOPC   C2B14828   9.100  -0.010   7.020 -0.0225 -0.1946 -0.1530
 1056YOPC   D3B14829   9.251   0.078   7.373  0.1312  0.1262  0.1995
 1056YOPC   C4B14830   9.276   0.416   7.569  0.1081  0.0573  0.0136
 1057YOPC   NC314831   0.093   7.822   6.143 -0.1704  0.0391 -0.0858
 1057YOPC   PO414832   0.342   7.423   6.136  0.0876  0.0974  0.0654
 1057YOPC   GL114833   0.028   7.357   6.413 -0.1504  0.0692 -0.2463
 1057YOPC   GL214834   0.324   7.138   6.539 -0.4262  0.0494  0.1703
 1057YOPC   C1A14835  -0.331   7.361   6.713 -0.0615 -0.1017 -0.2849
 1057YOPC   D2A14836  -0.507   7.322   7.009  0.1336  0.1500 -0.0461
 1057YOPC   C3A14837  -0.367   7.215   7.406 -0.4047 -0.0524 -0.2159
 1057YOPC   C4A14838  -0.045   7.059   7.729  0.2178 -0.2353 -0.1175
 1057YOPC   C1B14839   0.079   7.010   6.749 -0.0778 -0.1361  0.1119
 1057YOPC   C2B14840  -0.185   6.947   7.049 -0.1547 -0.0153 -0.0472
 1057YOPC   D3B14841  -0.176   6.610   7.395  0.1831 -0.1890  0.0986
 1057YOPC   C4B14842  -0.392   6.230   7.633 -0.3514  0.0460  0.0748
 1058YOPC   NC314843   4.545  11.476   5.742  0.0415 -0.1274 -0.0176
 1058YOPC   PO414844   4.522  11.854   5.996 -0.1241 -0.0502  0.1015
 1058YOPC   GL114845   4.158  11.912   6.240  0.0638 -0.0577  0.1545
 1058YOPC   GL214846   3.834  12.058   6.282 -0.0893 -0.0446 -0.1277
 1058YOPC   C1A14847   4.170  12.074   6.724  0.0230 -0.0031  0.0221
 1058YOPC   D2A14848   4.008  12.022   7.065 -0.0944  0.2091  0.1960
 1058YOPC   C3A14849   3.978  12.014   7.477 -0.1647  0.0080  0.1927
 1058YOPC   C4A14850   3.895  11.977   7.887  0.2391 -0.1240 -0.6149
 1058YOPC   C1B14851   3.674  12.182   6.740  0.4230 -0.1134  0.0087
 1058YOPC   C2B14852   3.422  12.296   7.091  0.0660  0.2577  0.0316
 1058YOPC   D3B14853   3.504  11.981   7.478 -0.1368 -0.0645 -0.0495
 1058YOPC   C4B14854   3.420  12.119   7.879 -0.3246  0.0711  0.3680
 1059YOPC   NC314855  13.348   5.516   6.147 -0.1099  0.0640 -0.1819
 1059YOPC   PO414856  13.059   5.895   6.045 -0.2605  0.0447  0.1689
 1059YOPC   GL114857  12.898   5.782   6.435 -0.2157  0.0001 -0.2292
 1059YOPC   GL214858  12.658   5.649   6.483  0.3391 -0.4188  0.0210
 1059YOPC   C1A14859  12.975   5.620   6.889 -0.2830 -0.0171 -0.0311
 1059YOPC   D2A14860  12.993   5.658   7.314  0.0807  0.1666  0.2114
 1059YOPC   C3A14861  12.578   5.722   7.633  0.1887 -0.3200 -0.0910
 1059YOPC   C4A14862  12.174   5.815   7.776  0.2542 -0.1432  0.0140
 1059YOPC   C1B14863  12.432   5.648   6.854  0.3626 -0.0088  0.0912
 1059YOPC   C2B14864  12.239   5.647   7.251 -0.1428  0.0323  0.1426
 1059YOPC   D3B14865  12.158   5.289   7.467 -0.1213 -0.1359  0.1490
 1059YOPC   C4B14866  12.182   4.950   7.773  0.1803  0.0161  0.0218
 1060YOPC   NC314867   2.899  11.988   5.942 -0.0799 -0.2289  0.1713
 1060YOPC   PO414868   2.503  12.161   6.159 -0.0841  0.1470 -0.0630
 1060YOPC   GL114869   2.588  12.421   6.500 -0.0197  0.1269  0.2905
 1060YOPC   GL214870   2.313  12.467   6.714  0.2406  0.0620 -0.0096
 1060YOPC   C1A14871   2.867  12.363   6.780 -0.0930 -0.1031 -0.2915
 1060YOPC   D2A14872   2.924  12.237   7.190 -0.0835 -0.1423 -0.2863
 1060YOPC   C3A14873   3.182  12.495   7.446  0.1966 -0.0026  0.2295
 1060YOPC   C4A14874   3.337  12.775   7.697 -0.1329 -0.0694 -0.1206
 1060YOPC   C1B14875   2.442  12.390   7.205 -0.1434 -0.1780 -0.1363
 1060YOPC   C2B14876   2.646  12.446   7.579  0.0562  0.2435  0.4551
 1060YOPC   D3B14877   3.008  12.398   7.910  0.1331 -0.2031  0.1399
 1060YOPC   C4B14878   3.280  12.395   8.256 -0.1740  0.0709 -0.0877
 1061YOPC   NC314879  13.544  14.004   6.082  0.0698 -0.2961  0.2868
 1061YOPC   PO414880  13.936  13.821   6.196 -0.0244  0.3023  0.1473
 1061YOPC   GL114881  13.915  13.850   6.608 -0.2749  0.0710 -0.2743
 1061YOPC   GL214882  14.181  13.641   6.648 -0.1095  0.1907  0.1840
 1061YOPC   C1A14883  13.757  13.796   6.984  0.0506 -0.2143  0.0857
 1061YOPC   D2A14884  13.628  13.750   7.355 -0.0389 -0.1688 -0.2579
 1061YOPC   C3A14885  13.378  13.937   7.536  0.2499  0.2062 -0.0202
 1061YOPC   C4A14886  13.398  14.377   7.700 -0.1203 -0.1720  0.3058
 1061YOPC   C1B14887  14.275  13.497   6.987  0.1586  0.0320  0.2833
 1061YOPC   C2B14888  14.565  13.643   7.340 -0.1365 -0.0632  0.0985
 1061YOPC   D3B14889  14.696  13.460   7.658 -0.0700 -0.1238 -0.0656
 1061YOPC   C4B14890  14.648  13.285   7.990 -0.1315  0.1172  0.2173
 1062YOPC   NC314891  17.118  10.795   6.025  0.0166  0.0916 -0.4344
 1062YOPC   PO414892  17.350  10.520   5.796 -0.0829  0.0320  0.0428
 1062YOPC   GL114893  17.575  10.666   6.188  0.0794  0.0752 -0.0855
 1062YOPC   GL214894  17.629  10.410   6.332  0.1582  0.0219 -0.1565
 1062YOPC   C1A14895  17.518  10.742   6.669  0.1633 -0.1000 -0.3132
 1062YOPC   D2A14896  17.456  11.034   6.896  0.1616 -0.2534 -0.4432
 1062YOPC   C3A14897  17.546  10.941   7.299  0.1547  0.1892  0.0032
 1062YOPC   C4A14898  17.434  10.944   7.694  0.0788 -0.0208  0.0352
 1062YOPC   C1B14899  17.772  10.318   6.718  0.1932 -0.0158 -0.2002
 1062YOPC   C2B14900  17.568  10.007   7.041 -0.0691 -0.3277  0.0719
 1062YOPC   D3B14901  17.618   9.992   7.482 -0.0540 -0.0111 -0.0520
 1062YOPC   C4B14902  17.795  10.163   7.770 -0.2132  0.1801 -0.0390
 1063YOPC   NC314903   9.644   5.715   5.422 -0.0080  0.2002 -0.0667
 1063YOPC   PO414904   9.312   5.603   5.766 -0.2024  0.1142  0.2364
 1063YOPC   GL114905   9.083   5.594   6.150  0.0648  0.2918 -0.0430
 1063YOPC   GL214906   8.758   5.741   6.271 -0.0548 -0.1959  0.2203
 1063YOPC   C1A14907   9.070   5.473   6.551 -0.1106 -0.0116  0.1674
 1063YOPC   D2A14908   8.831   5.547   6.915  0.0753 -0.1000 -0.0728
 1063YOPC   C3A14909   8.450   5.463   7.040 -0.1049 -0.0784 -0.0392
 1063YOPC   C4A14910   8.218   5.511   7.416 -0.3117  0.1152  0.0803
 1063YOPC   C1B14911   8.767   5.982   6.643 -0.4519 -0.0093  0.0701
 1063YOPC   C2B14912   8.775   6.165   7.108  0.1420  0.0711 -0.3785
 1063YOPC   D3B14913   9.101   5.999   7.429  0.2496 -0.3486  0.0403
 1063YOPC   C4B14914   9.249   6.186   7.821 -0.1302 -0.1399 -0.0512
 1064YOPC   NC314915   0.798   8.732   6.148  0.2797 -0.0958 -0.1493
 1064YOPC   PO414916   0.615   8.350   6.285 -0.1378 -0.1901  0.1174
 1064YOPC   GL114917   0.345   8.069   6.468 -0.0961  0.2973 -0.5097
 1064YOPC   GL214918   0.554   7.691   6.497  0.0643 -0.0133 -0.0695
 1064YOPC   C1A14919   0.125   8.063   6.890 -0.0497  0.0533  0.0828
 1064YOPC   D2A14920   0.100   7.930   7.347  0.0152 -0.2222 -0.1102
 1064YOPC   C3A14921   0.018   7.510   7.717 -0.1637  0.2577 -0.0178
 1064YOPC   C4A14922  -0.356   7.417   8.042  0.1762 -0.1477 -0.0994
 1064YOPC   C1B14923   0.271   7.614   6.823 -0.2076 -0.0005 -0.2570
 1064YOPC   C2B14924  -0.034   7.456   7.129  0.0199  0.1302 -0.1332
 1064YOPC   D3B14925   0.236   7.042   7.299  0.4513  0.3204  0.0676
 1064YOPC   C4B14926   0.329   6.724   7.443 -0.0705 -0.4003  0.1150
 1065YOPC   NC314927   6.987   6.593   5.680 -0.3009 -0.0430  0.1301
 1065YOPC   PO414928   7.184   6.928   5.870 -0.0867 -0.1029 -0.0082
 1065YOPC   GL114929   7.159   6.977   6.329  0.0139 -0.2825  0.2094
 1065YOPC   GL214930   6.879   7.155   6.420 -0.0891  0.0156 -0.1200
 1065YOPC   C1A14931   7.314   7.051   6.794 -0.0906  0.1679  0.1239
 1065YOPC   D2A14932   7.275   7.402   7.013 -0.1233  0.0318 -0.0252
 1065YOPC   C3A14933   7.624   7.382   7.238 -0.2741 -0.1351 -0.0097
 1065YOPC   C4A14934   7.892   7.406   7.504 -0.0585 -0.0979 -0.1386
 1065YOPC   C1B14935   6.841   7.398   6.761  0.3603  0.0408 -0.1413
 1065YOPC   C2B14936   6.394   7.398   6.998 -0.1117  0.0331  0.0232
 1065YOPC   D3B14937   6.138   7.044   7.268 -0.1993 -0.1833  0.0178
 1065YOPC   C4B14938   6.328   6.667   7.178 -0.1582 -0.0277 -0.1385
 1066YOPC   NC314939   9.070  14.642   5.244  0.0385 -0.0020  0.0887
 1066YOPC   PO414940   9.287  14.624   5.651  0.0997  0.0883 -0.2449
 1066YOPC   GL114941   9.662  14.543   5.984  0.1800 -0.1164 -0.0416
 1066YOPC   GL214942   9.897  14.794   6.010  0.0907 -0.0678  0.4594
 1066YOPC   C1A14943   9.555  14.662   6.346 -0.0107 -0.0018  0.1234
 1066YOPC   D2A14944   9.450  14.975   6.606  0.0146 -0.0741 -0.1843
 1066YOPC   C3A14945   9.256  15.367   6.512 -0.1075 -0.1522 -0.0491
 1066YOPC   C4A14946   9.568  15.729   6.608 -0.0946  0.0988  0.3413
 1066YOPC   C1B14947  10.037  14.890   6.409  0.2004 -0.3173 -0.2187
 1066YOPC   C2B14948   9.862  14.683   6.753 -0.3292  0.1978 -0.1394
 1066YOPC   D3B14949   9.649  14.807   7.154 -0.1117  0.1510 -0.3621
 1066YOPC   C4B14950   9.440  14.798   7.534 -0.0708  0.1952  0.0575
 1067YOPC   NC314951   7.016   6.516   6.153  0.1476 -0.2712 -0.1838
 1067YOPC   PO414952   6.666   6.809   5.988  0.2082 -0.0914  0.2389
 1067YOPC   GL114953   6.570   6.696   6.407 -0.2782  0.0353 -0.1303
 1067YOPC   GL214954   6.933   6.657   6.651 -0.0895 -0.3922 -0.0959
 1067YOPC   C1A14955   6.592   6.955   6.790  0.1130  0.0006 -0.4070
 1067YOPC   D2A14956   6.649   7.092   7.315 -0.0401 -0.3062 -0.1001
 1067YOPC   C3A14957   6.410   7.393   7.549  0.0761  0.0644  0.0893
 1067YOPC   C4A14958   6.268   7.583   8.055 -0.2054  0.0383 -0.2053
 1067YOPC   C1B14959   6.889   6.698   7.118  0.0619 -0.0396 -0.0203
 1067YOPC   C2B14960   6.737   6.617   7.496 -0.1925 -0.1264  0.2231
 1067YOPC   D3B14961   6.677   6.927   7.828 -0.0524 -0.1060 -0.1781
 1067YOPC   C4B14962   6.766   7.303   7.962  0.2148 -0.1819  0.2048
 1068YOPC   NC314963   8.733   3.938   6.181  0.2323 -0.2222 -0.0843
 1068YOPC   PO414964   8.409   4.003   6.046  0.2107 -0.1098  0.0312
 1068YOPC   GL114965   8.410   4.320   6.403  0.0583  0.2661 -0.1591
 1068YOPC   GL214966   8.620   4.629   6.399  0.1785 -0.2239 -0.0937
 1068YOPC   C1A14967   8.334   4.170   6.803  0.0470  0.0159 -0.0093
 1068YOPC   D2A14968   8.076   3.982   7.192  0.2617 -0.2864  0.0619
 1068YOPC   C3A14969   7.655   3.792   7.391 -0.1252 -0.0887 -0.1521
 1068YOPC   C4A14970   7.338   3.706   7.798  0.2273 -0.2097 -0.0308
 1068YOPC   C1B14971   8.729   4.485   6.895 -0.0975  0.0383  0.1193
 1068YOPC   C2B14972   8.585   4.246   7.256  0.0658 -0.0836 -0.0377
 1068YOPC   D3B14973   8.586   4.111   7.677  0.1047 -0.1673  0.0865
 1068YOPC   C4B14974   8.503   3.721   8.027 -0.1950  0.4159 -0.0121
 1069YOPC   NC314975   4.838   1.786   5.529 -0.2038  0.5217 -0.1677
 1069YOPC   PO414976   5.059   1.761   5.902 -0.1882 -0.0601 -0.0920
 1069YOPC   GL114977   5.028   2.059   6.296 -0.0890 -0.1054 -0.1536
 1069YOPC   GL214978   4.823   2.378   6.345 -0.0149  0.0024 -0.0377
 1069YOPC   C1A14979   4.933   1.983   6.703  0.1490  0.1497  0.0163
 1069YOPC   D2A14980   4.929   2.191   7.144 -0.3828  0.6040  0.0686
 1069YOPC   C3A14981   4.825   2.040   7.649 -0.0915  0.2841 -0.1853
 1069YOPC   C4A14982   4.855   2.014   8.035  0.2109 -0.2534  0.1131
 1069YOPC   C1B14983   4.494   2.261   6.517 -0.0284  0.1164  0.0600
 1069YOPC   C2B14984   4.093   2.014   6.482 -0.0973 -0.1209  0.0474
 1069YOPC   D3B14985   4.001   1.946   6.943 -0.1556 -0.0276 -0.0230
 1069YOPC   C4B14986   4.028   2.065   7.299  0.1089 -0.0861 -0.2362
 1070YOPC   NC314987   6.071   1.346   5.390  0.0131  0.1094 -0.2015
 1070YOPC   PO414988   5.931   1.534   5.792  0.2677  0.0776 -0.3344
 1070YOPC   GL114989   5.962   1.421   6.130 -0.2537  0.0221  0.0967
 1070YOPC   GL214990   5.972   1.727   6.284  0.1593 -0.0039 -0.0872
 1070YOPC   C1A14991   5.995   1.188   6.540 -0.1670 -0.2427 -0.1453
 1070YOPC   D2A14992   5.819   0.965   6.894  0.0852 -0.0004 -0.3710
 1070YOPC   C3A14993   5.592   1.080   7.195 -0.5336 -0.5250  0.0469
 1070YOPC   C4A14994   5.502   1.334   7.533  0.1802 -0.0695 -0.1350
 1070YOPC   C1B14995   5.997   1.693   6.711  0.0523  0.2637 -0.1571
 1070YOPC   C2B14996   6.124   1.320   7.005  0.0404  0.2929 -0.1515
 1070YOPC   D3B14997   5.990   1.271   7.406  0.0275  0.2044 -0.1266
 1070YOPC   C4B14998   6.121   1.242   7.862  0.4441 -0.0953 -0.1491
 1071YOPC   NC314999  13.240  11.574   6.118  0.0998 -0.0782  0.1204
 1071YOPC   PO415000  13.505  11.842   5.952  0.0691 -0.4056  0.1017
 1071YOPC   GL115001  13.707  11.764   6.257 -0.1178  0.1481 -0.2937
 1071YOPC   GL215002  13.581  11.317   6.347 -0.0147 -0.1358  0.0239
 1071YOPC   C1A15003  13.814  11.599   6.697 -0.1027  0.0969  0.1378
 1071YOPC   D2A15004  13.828  11.312   7.021 -0.1467 -0.1594 -0.1946
 1071YOPC   C3A15005  13.797  11.371   7.398  0.0064  0.1745  0.3826
 1071YOPC   C4A15006  13.800  11.104   7.732  0.1410  0.2776  0.2046
 1071YOPC   C1B15007  13.395  11.117   6.581  0.1333  0.0075 -0.1522
 1071YOPC   C2B15008  13.353  10.951   6.939 -0.1003  0.0683  0.2889
 1071YOPC   D3B15009  13.161  10.624   7.015 -0.2919 -0.1176  0.1121
 1071YOPC   C4B15010  12.874  10.462   7.347  0.1727 -0.1385 -0.0177
 1072YOPC   NC315011   0.943   6.322   6.028  0.0159 -0.2405  0.3301
 1072YOPC   PO415012   0.749   5.889   5.906 -0.0035 -0.3615 -0.0745
 1072YOPC   GL115013   0.722   5.930   6.308 -0.0061  0.1125  0.0181
 1072YOPC   GL215014   0.984   5.975   6.375  0.1308  0.1594  0.1418
 1072YOPC   C1A15015   0.607   5.978   6.762 -0.0279 -0.0488  0.1471
 1072YOPC   D2A15016   0.707   5.912   7.173 -0.1160  0.0856 -0.0505
 1072YOPC   C3A15017   1.120   6.033   7.299  0.0636  0.0688 -0.3003
 1072YOPC   C4A15018   1.344   5.748   7.540 -0.0847  0.1065  0.1618
 1072YOPC   C1B15019   1.110   5.870   6.796 -0.3328  0.2082 -0.0232
 1072YOPC   C2B15020   1.033   5.529   7.170 -0.0157 -0.1032 -0.2034
 1072YOPC   D3B15021   0.714   5.504   7.389  0.3656  0.0145 -0.2720
 1072YOPC   C4B15022   0.305   5.412   7.608  0.0290 -0.0394 -0.0846
 1073YOPC   NC315023  11.051  14.190   5.793  0.1808  0.1310 -0.0024
 1073YOPC   PO415024  10.745  14.580   5.885  0.0167  0.1668  0.1451
 1073YOPC   GL115025  10.384  14.463   6.194  0.0534  0.0677 -0.2565
 1073YOPC   GL215026  10.094  14.443   6.302 -0.0325  0.2337 -0.0945
 1073YOPC   C1A15027  10.463  14.615   6.545 -0.1625 -0.1138 -0.0665
 1073YOPC   D2A15028  10.504  14.529   6.926  0.0071  0.0329  0.1455
 1073YOPC   C3A15029  10.406  14.266   7.361  0.0238 -0.2446  0.0491
 1073YOPC   C4A15030  10.654  14.104   7.650 -0.0251 -0.0966  0.0256
 1073YOPC   C1B15031  10.029  14.233   6.670  0.1033 -0.1229  0.0466
 1073YOPC   C2B15032   9.942  14.329   7.099  0.0344  0.0089  0.2060
 1073YOPC   D3B15033   9.929  14.070   7.442  0.0204 -0.2439  0.0560
 1073YOPC   C4B15034  10.121  13.844   7.812 -0.0306  0.4077  0.1290
 1074YOPC   NC315035  15.546   6.150   5.856  0.1929 -0.3267 -0.1195
 1074YOPC   PO415036  15.681   6.562   5.897  0.0707 -0.1695 -0.2672
 1074YOPC   GL115037  15.710   6.478   6.301  0.1234 -0.0614 -0.2332
 1074YOPC   GL215038  15.721   6.138   6.468 -0.1123  0.0963 -0.3142
 1074YOPC   C1A15039  15.862   6.775   6.659  0.1014 -0.2404  0.1252
 1074YOPC   D2A15040  16.008   6.869   7.075 -0.0000  0.0011  0.2850
 1074YOPC   C3A15041  15.910   7.108   7.391 -0.2128  0.1403  0.3251
 1074YOPC   C4A15042  15.863   7.224   7.745 -0.2409  0.0112  0.2015
 1074YOPC   C1B15043  15.871   6.327   6.926 -0.1392 -0.0276 -0.0124
 1074YOPC   C2B15044  16.240   6.237   7.181 -0.0981 -0.0820 -0.0809
 1074YOPC   D3B15045  16.404   6.586   7.364  0.2205 -0.0162 -0.0552
 1074YOPC   C4B15046  16.178   6.799   7.732 -0.1602  0.1779 -0.0367
 1075YOPC   NC315047  17.087   3.628   5.808  0.1781  0.0769 -0.3045
 1075YOPC   PO415048  17.413   3.889   5.892  0.1936  0.1069 -0.1976
 1075YOPC   GL115049  17.571   3.672   6.280  0.0684 -0.1708 -0.0945
 1075YOPC   GL215050  17.387   3.497   6.309 -0.0582 -0.1542 -0.0872
 1075YOPC   C1A15051  17.722   3.655   6.678 -0.2977 -0.2221 -0.0039
 1075YOPC   D2A15052  17.606   3.527   7.077  0.1251 -0.1970 -0.0064
 1075YOPC   C3A15053  17.619   3.693   7.553  0.1736 -0.3700 -0.0303
 1075YOPC   C4A15054  17.695   3.799   8.047 -0.1458 -0.1611  0.1042
 1075YOPC   C1B15055  17.300   3.368   6.722 -0.1225 -0.3327 -0.0164
 1075YOPC   C2B15056  17.177   3.147   7.055 -0.0948 -0.2413  0.2568
 1075YOPC   D3B15057  17.384   3.242   7.512 -0.2748  0.0990  0.1297
 1075YOPC   C4B15058  17.738   3.156   7.857 -0.0112 -0.2228 -0.3659
 1076YOPC   NC315059   5.800   8.534   6.091  0.1562  0.0289 -0.0962
 1076YOPC   PO415060   5.880   8.971   5.968 -0.3073  0.1108 -0.2963
 1076YOPC   GL115061   5.668   8.937   6.392  0.2514 -0.1319  0.3414
 1076YOPC   GL215062   5.636   9.236   6.560  0.1075  0.0799 -0.1982
 1076YOPC   C1A15063   5.661   8.694   6.679  0.1696 -0.2058  0.0144
 1076YOPC   D2A15064   6.023   8.656   7.059 -0.2217  0.0829  0.0099
 1076YOPC   C3A15065   5.730   8.741   7.494 -0.3911  0.0433 -0.3453
 1076YOPC   C4A15066   5.779   8.958   7.897  0.1831 -0.0809  0.0503
 1076YOPC   C1B15067   5.672   9.098   7.036  0.1689  0.0517 -0.0357
 1076YOPC   C2B15068   5.657   9.354   7.425  0.0502 -0.0908  0.2139
 1076YOPC   D3B15069   5.400   9.328   7.862 -0.1011 -0.0074  0.0348
 1076YOPC   C4B15070   5.174   9.344   8.240 -0.1472  0.1188 -0.1403
 1077YOPC   NC315071   7.977   2.447   5.852  0.1453 -0.0663 -0.1958
 1077YOPC   PO415072   8.294   2.740   5.842 -0.0167  0.0393  0.1292
 1077YOPC   GL115073   8.422   2.879   6.180  0.1493 -0.0532 -0.1130
 1077YOPC   GL215074   8.363   2.646   6.449  0.0993 -0.1707 -0.2878
 1077YOPC   C1A15075   8.602   3.183   6.498  0.1486  0.3334  0.2120
 1077YOPC   D2A15076   8.728   3.363   6.855 -0.0284  0.2510  0.1441
 1077YOPC   C3A15077   8.687   3.228   7.227  0.0202 -0.0649 -0.1559
 1077YOPC   C4A15078   8.850   2.787   7.316 -0.1848 -0.1016  0.0601
 1077YOPC   C1B15079   8.037   2.836   6.743  0.0955 -0.0247  0.1869
 1077YOPC   C2B15080   7.802   2.959   7.126 -0.0410 -0.0392 -0.1332
 1077YOPC   D3B15081   7.938   2.848   7.625 -0.0676 -0.1740 -0.0050
 1077YOPC   C4B15082   8.045   2.981   8.061  0.1131  0.0862  0.0056
 1078YOPC   NC315083  17.205   8.186   6.059  0.0636  0.0054  0.1187
 1078YOPC   PO415084  16.782   8.099   6.087 -0.1334 -0.1243 -0.0855
 1078YOPC   GL115085  16.701   8.005   6.433 -0.1005  0.0316  0.0991
 1078YOPC   GL215086  16.501   8.044   6.670  0.1535  0.1268  0.1565
 1078YOPC   C1A15087  16.952   8.116   6.842  0.0890 -0.2184  0.0719
 1078YOPC   D2A15088  17.177   8.040   7.132  0.0560  0.0894  0.1339
 1078YOPC   C3A15089  16.984   7.913   7.441  0.2783  0.0255  0.0275
 1078YOPC   C4A15090  16.813   7.992   7.813  0.1502  0.0817  0.1900
 1078YOPC   C1B15091  16.645   7.691   6.961  0.2503 -0.1685 -0.1295
 1078YOPC   C2B15092  16.671   7.499   7.351  0.2890  0.1969 -0.2884
 1078YOPC   D3B15093  16.817   7.434   7.763 -0.2947 -0.0945  0.0199
 1078YOPC   C4B15094  16.678   7.518   8.127  0.3966 -0.0627  0.0149
 1079YOPC   NC315095   4.785   6.660   6.097  0.0524  0.4675 -0.0155
 1079YOPC   PO415096   5.135   6.525   6.080 -0.0670 -0.0418  0.2555
 1079YOPC   GL115097   4.962   6.176   6.337 -0.2504 -0.0019 -0.2493
 1079YOPC   GL215098   5.090   5.843   6.409 -0.3131  0.0057 -0.1586
 1079YOPC   C1A15099   4.639   5.835   6.639 -0.0598 -0.4643  0.2725
 1079YOPC   D2A15100   4.350   5.726   6.852  0.0599  0.0066  0.2228
 1079YOPC   C3A15101   4.308   5.899   7.188  0.3028  0.3174  0.1375
 1079YOPC   C4A15102   4.263   6.209   7.575  0.3730 -0.1256 -0.0092
 1079YOPC   C1B15103   5.053   5.822   6.887  0.0461 -0.1624  0.2001
 1079YOPC   C2B15104   4.776   5.885   7.214 -0.0466 -0.0542 -0.1719
 1079YOPC   D3B15105   5.060   6.174   7.473  0.0609  0.2607 -0.0671
 1079YOPC   C4B15106   5.408   6.374   7.663  0.4176 -0.0817 -0.3330
 1080YOPC   NC315107   3.058   7.254   5.416  0.2934 -0.1914  0.1487
 1080YOPC   PO415108   3.271   6.996   5.736 -0.3265 -0.1709 -0.5434
 1080YOPC   GL115109   3.486   6.765   6.126  0.0703 -0.0502 -0.0503
 1080YOPC   GL215110   3.789   6.773   6.269  0.0334 -0.1689  0.3403
 1080YOPC   C1A15111   3.378   6.713   6.571  0.0818 -0.1636  0.0911
 1080YOPC   D2A15112   3.219   6.677   7.018  0.1329 -0.2715 -0.0206
 1080YOPC   C3A15113   3.449   6.777   7.429 -0.1243 -0.1887  0.1691
 1080YOPC   C4A15114   3.421   7.077   7.767  0.1164  0.2358  0.1136
 1080YOPC   C1B15115   3.875   6.555   6.716  0.1119 -0.0621  0.0166
 1080YOPC   C2B15116   4.127   6.469   7.119 -0.3977  0.1826  0.0622
 1080YOPC   D3B15117   4.330   6.729   7.433  0.0712 -0.2495  0.2325
 1080YOPC   C4B15118   4.358   6.663   7.871 -0.1796 -0.3259  0.0856
 1081YOPC   NC315119  10.619   5.168   6.276 -0.3295  0.0133  0.0865
 1081YOPC   PO415120  10.231   4.986   6.309  0.2739  0.0197  0.0339
 1081YOPC   GL115121  10.321   5.022   6.630 -0.0641  0.1479  0.1327
 1081YOPC   GL215122  10.582   4.907   6.810  0.0314  0.0850 -0.1504
 1081YOPC   C1A15123  10.039   5.246   7.031  0.2856 -0.2088 -0.1952
 1081YOPC   D2A15124   9.920   5.342   7.492  0.0386 -0.2064  0.0361
 1081YOPC   C3A15125   9.883   5.291   7.994  0.3100  0.0469  0.2911
 1081YOPC   C4A15126   9.533   5.303   8.265 -0.2181  0.0068  0.2137
 1081YOPC   C1B15127  11.027   5.062   7.028  0.1111 -0.0501 -0.5276
 1081YOPC   C2B15128  11.371   5.171   7.297  0.0092 -0.0626 -0.1014
 1081YOPC   D3B15129  11.230   5.318   7.647 -0.3590  0.0102  0.1272
 1081YOPC   C4B15130  11.315   5.524   8.087  0.3355 -0.5272 -0.0594
 1082YOPC   NC315131  15.032  10.189   5.951 -0.0523  0.0789 -0.0003
 1082YOPC   PO415132  14.596  10.083   5.914  0.0453  0.1032  0.1772
 1082YOPC   GL115133  14.418   9.993   6.338 -0.1522 -0.1106  0.1199
 1082YOPC   GL215134  14.289   9.716   6.432  0.2959 -0.0184 -0.0540
 1082YOPC   C1A15135  14.416  10.220   6.701  0.1146  0.1028 -0.1715
 1082YOPC   D2A15136  14.468  10.150   7.181  0.1200 -0.3477 -0.0093
 1082YOPC   C3A15137  14.190  10.514   7.357 -0.1866 -0.1600  0.1287
 1082YOPC   C4A15138  14.233  10.843   7.666 -0.0079 -0.2526  0.5075
 1082YOPC   C1B15139  14.166   9.745   6.833 -0.1033  0.0089  0.3416
 1082YOPC   C2B15140  14.201   9.757   7.323 -0.0976  0.1360  0.1324
 1082YOPC   D3B15141  14.491   9.987   7.667 -0.0959  0.1075  0.1381
 1082YOPC   C4B15142  14.653   9.845   8.004 -0.1179  0.0478  0.3880
 1083YOPC   NC315143   2.392   2.441   5.724  0.1081 -0.0986 -0.3195
 1083YOPC   PO415144   2.304   2.032   6.010 -0.0000  0.0142 -0.4959
 1083YOPC   GL115145   2.171   1.808   6.423 -0.2239  0.0229 -0.2784
 1083YOPC   GL215146   2.032   1.473   6.416 -0.1700 -0.3929 -0.2731
 1083YOPC   C1A15147   1.892   1.935   6.739 -0.2374  0.0402  0.3185
 1083YOPC   D2A15148   1.470   2.055   6.701  0.1848  0.0066  0.1362
 1083YOPC   C3A15149   1.445   2.503   6.564  0.1376 -0.2268  0.3257
 1083YOPC   C4A15150   1.129   2.820   6.685 -0.0185 -0.0338 -0.1034
 1083YOPC   C1B15151   2.087   1.461   6.856  0.3694  0.0554  0.0275
 1083YOPC   C2B15152   2.376   1.654   7.116  0.2658 -0.0516 -0.1231
 1083YOPC   D3B15153   2.124   1.891   7.451 -0.1429 -0.2761  0.0779
 1083YOPC   C4B15154   2.037   2.314   7.523  0.0113  0.0899  0.0338
 1084YOPC   NC315155  14.549  14.607   5.917 -0.0794  0.1521  0.0481
 1084YOPC   PO415156  14.767  14.496   6.246 -0.0974 -0.1170  0.0128
 1084YOPC   GL115157  14.737  14.267   6.660 -0.1699  0.2072 -0.1257
 1084YOPC   GL215158  15.059  14.361   6.840 -0.0196  0.2871 -0.0446
 1084YOPC   C1A15159  14.598  14.447   7.005 -0.0697  0.0981 -0.0386
 1084YOPC   D2A15160  14.658  14.467   7.412  0.1136  0.1325  0.0146
 1084YOPC   C3A15161  14.444  14.123   7.594 -0.2252 -0.0010  0.0642
 1084YOPC   C4A15162  14.311  13.768   7.935 -0.0804 -0.3261  0.0494
 1084YOPC   C1B15163  15.072  14.555   7.208  0.0859 -0.0632 -0.0098
 1084YOPC   C2B15164  15.021  14.432   7.704 -0.2444 -0.1738  0.0964
 1084YOPC   D3B15165  14.986  14.649   8.092  0.0594  0.5251  0.0329
 1084YOPC   C4B15166  14.748  14.792   8.405  0.1583 -0.0780 -0.0918
 1085YOPC   NC315167  13.422   4.172   5.439 -0.0982 -0.1379 -0.5977
 1085YOPC   PO415168  13.397   3.840   5.772  0.0685 -0.1196  0.1802
 1085YOPC   GL115169  13.347   3.946   6.071  0.0811 -0.2213 -0.2750
 1085YOPC   GL215170  13.628   4.005   6.253 -0.0646  0.3125  0.0143
 1085YOPC   C1A15171  13.199   4.111   6.438  0.1007  0.0541  0.1663
 1085YOPC   D2A15172  13.119   4.212   6.862 -0.0858 -0.1444 -0.0068
 1085YOPC   C3A15173  13.148   4.477   7.168 -0.1392 -0.1619  0.2852
 1085YOPC   C4A15174  12.950   4.721   7.510  0.5732  0.1994 -0.2468
 1085YOPC   C1B15175  13.565   3.900   6.639  0.0175  0.1714 -0.0904
 1085YOPC   C2B15176  13.713   3.908   7.051 -0.2250 -0.1862 -0.0258
 1085YOPC   D3B15177  13.855   3.821   7.374  0.1888  0.1567 -0.3114
 1085YOPC   C4B15178  13.910   3.858   7.810 -0.2336 -0.1648  0.3431
 1086YOPC   NC315179   5.660  15.319   6.183 -0.0202  0.1531  0.2432
 1086YOPC   PO415180   5.233  15.196   6.281 -0.0588  0.0530  0.2280
 1086YOPC   GL115181   4.769  15.347   6.406  0.0491  0.1381  0.1838
 1086YOPC   GL215182   4.725  15.621   6.236 -0.0399  0.1060  0.0204
 1086YOPC   C1A15183   4.428  15.451   6.713  0.0488 -0.0371 -0.2304
 1086YOPC   D2A15184   4.387  15.184   7.101  0.0195 -0.0427 -0.0663
 1086YOPC   C3A15185   4.589  14.740   7.017 -0.0181 -0.1329  0.0558
 1086YOPC   C4A15186   4.961  14.535   7.102 -0.0377  0.0205 -0.0150
 1086YOPC   C1B15187   4.788  15.958   6.600 -0.0105 -0.0229 -0.0854
 1086YOPC   C2B15188   4.854  16.376   6.712  0.2708 -0.0617  0.1199
 1086YOPC   D3B15189   4.830  16.391   7.113  0.0555 -0.3101 -0.2304
 1086YOPC   C4B15190   4.666  16.445   7.481 -0.0057 -0.1518 -0.2202
 1087YOPC   NC315191  12.332  11.298   5.976 -0.2642  0.2642  0.0700
 1087YOPC   PO415192  12.805  11.439   5.944  0.1487  0.0543 -0.0358
 1087YOPC   GL115193  12.826  11.374   6.373  0.2734 -0.2695  0.1377
 1087YOPC   GL215194  12.575  11.359   6.454  0.1405  0.1131  0.1375
 1087YOPC   C1A15195  12.900  11.068   6.719  0.3459 -0.3484 -0.0224
 1087YOPC   D2A15196  12.705  10.737   6.941  0.1979 -0.2569  0.2395
 1087YOPC   C3A15197  12.598  10.917   7.384 -0.0336  0.3082  0.2383
 1087YOPC   C4A15198  12.586  11.240   7.775  0.1517 -0.0459  0.2128
 1087YOPC   C1B15199  12.379  11.231   6.803  0.1895  0.1702  0.0804
 1087YOPC   C2B15200  12.151  11.132   7.149  0.1261  0.1788 -0.2002
 1087YOPC   D3B15201  12.185  11.343   7.507 -0.2778 -0.0765  0.2244
 1087YOPC   C4B15202  12.088  11.390   8.015  0.0387 -0.1330 -0.1949
 1088YOPC   NC315203  12.233  17.232   5.954 -0.0252 -0.0202 -0.4748
 1088YOPC   PO415204  11.796  17.198   6.236  0.4304  0.3025  0.2277
 1088YOPC   GL115205  11.985  17.397   6.599  0.0606  0.1700  0.0677
 1088YOPC   GL215206  12.324  17.454   6.464 -0.1520 -0.1567 -0.3181
 1088YOPC   C1A15207  12.111  17.472   7.094  0.0895 -0.1749 -0.0417
 1088YOPC   D2A15208  12.188  17.581   7.531  0.1839 -0.2273  0.1206
 1088YOPC   C3A15209  12.608  17.447   7.841  0.0486 -0.2837  0.0301
 1088YOPC   C4A15210  12.651  17.367   8.264 -0.0807 -0.1037 -0.3790
 1088YOPC   C1B15211  12.531  17.620   6.787  0.0767 -0.1696  0.0153
 1088YOPC   C2B15212  12.505  17.798   7.263  0.1775 -0.0564 -0.0462
 1088YOPC   D3B15213  12.719  17.876   7.625  0.3830 -0.0463 -0.2092
 1088YOPC   C4B15214  13.117  18.038   7.815 -0.1548  0.3117 -0.3724
 1089YOPC   NC315215  17.187   6.153   5.646  0.0674  0.1472 -0.1597
 1089YOPC   PO415216  17.656   6.060   5.724 -0.1041 -0.1028  0.2014
 1089YOPC   GL115217  17.413   5.788   6.011 -0.1497  0.0128  0.2025
 1089YOPC   GL215218  17.325   5.552   5.815  0.0768  0.0440 -0.1061
 1089YOPC   C1A15219  17.395   5.837   6.423  0.0107 -0.1787 -0.1589
 1089YOPC   D2A15220  17.372   6.030   6.820 -0.0958  0.1907  0.1707
 1089YOPC   C3A15221  17.026   5.943   7.060 -0.0443  0.1173  0.0467
 1089YOPC   C4A15222  16.669   5.761   7.225  0.1135 -0.3012 -0.0561
 1089YOPC   C1B15223  17.158   5.408   6.277 -0.1899  0.1872 -0.0718
 1089YOPC   C2B15224  17.115   5.257   6.608  0.1912 -0.0809 -0.2240
 1089YOPC   D3B15225  16.936   5.503   6.862 -0.2343 -0.0271 -0.0238
 1089YOPC   C4B15226  16.941   5.351   7.265  0.2670  0.2184 -0.0593
 1090YOPC   NC315227  10.849  12.017   6.057  0.1603 -0.0606  0.1095
 1090YOPC   PO415228  10.736  12.364   5.824 -0.0364  0.4143 -0.0963
 1090YOPC   GL115229  10.736  12.408   6.350  0.3473 -0.1370 -0.2464
 1090YOPC   GL215230  10.412  12.330   6.454  0.2969  0.2214  0.4665
 1090YOPC   C1A15231  10.599  12.836   6.537  0.1956 -0.3332 -0.1050
 1090YOPC   D2A15232  10.125  13.070   6.661  0.0724  0.0472  0.0651
 1090YOPC   C3A15233   9.734  13.013   6.406 -0.1603  0.1376 -0.0370
 1090YOPC   C4A15234   9.360  13.088   6.443  0.1193  0.1438  0.1370
 1090YOPC   C1B15235  10.235  12.558   6.820 -0.2756 -0.0183  0.2396
 1090YOPC   C2B15236  10.160  12.804   7.172  0.1769 -0.1154 -0.1055
 1090YOPC   D3B15237  10.129  12.706   7.669  0.0740 -0.2026  0.1712
 1090YOPC   C4B15238  10.533  12.730   7.950  0.1932  0.0715  0.1998
 1091YOPC   NC315239  11.376  17.407   5.863 -0.3835  0.4296 -0.0805
 1091YOPC   PO415240  10.969  17.087   5.903  0.2302  0.0413 -0.0004
 1091YOPC   GL115241  10.909  17.131   6.272 -0.1419  0.0511  0.1825
 1091YOPC   GL215242  10.591  17.047   6.336 -0.0324  0.0918  0.1407
 1091YOPC   C1A15243  11.008  17.206   6.714  0.0141 -0.1040 -0.0781
 1091YOPC   D2A15244  11.218  17.371   7.094  0.2722  0.0036 -0.1694
 1091YOPC   C3A15245  11.052  17.334   7.503  0.1718 -0.2393 -0.0052
 1091YOPC   C4A15246  10.905  17.103   7.855 -0.4249  0.0439  0.1388
 1091YOPC   C1B15247  10.458  17.155   6.684  0.1440 -0.0382  0.1442
 1091YOPC   C2B15248  10.115  17.158   7.012  0.0765 -0.0281 -0.1387
 1091YOPC   D3B15249   9.898  17.175   7.377  0.1631  0.1094  0.1096
 1091YOPC   C4B15250   9.683  17.310   7.741  0.1056 -0.1049 -0.1758
 1092YOPC   NC315251  14.109  17.395   6.227 -0.2714 -0.2666  0.0416
 1092YOPC   PO415252  13.980  17.666   5.889 -0.2102  0.1624  0.0442
 1092YOPC   GL115253  13.684  17.674   6.226  0.0309  0.1755 -0.5748
 1092YOPC   GL215254  13.658  17.980   6.428 -0.0763 -0.0580 -0.1384
 1092YOPC   C1A15255  13.598  17.441   6.784 -0.1952 -0.3423  0.0510
 1092YOPC   D2A15256  13.473  17.431   7.201 -0.0789  0.1909  0.0394
 1092YOPC   C3A15257  13.249  17.166   7.409  0.2060 -0.1683 -0.1484
 1092YOPC   C4A15258  13.050  16.920   7.644 -0.1761  0.1847  0.0388
 1092YOPC   C1B15259  13.762  17.983   6.759  0.2130  0.0522 -0.0136
 1092YOPC   C2B15260  13.914  17.734   7.102  0.0825  0.0430 -0.1849
 1092YOPC   D3B15261  13.893  17.758   7.464 -0.0269  0.2371 -0.1232
 1092YOPC   C4B15262  14.091  17.897   7.839 -0.1244 -0.0185  0.1029
 1093YOPC   NC315263  15.853   0.309   5.888 -0.0873 -0.1066  0.1137
 1093YOPC   PO415264  15.933   0.732   5.983 -0.0085 -0.0571  0.3352
 1093YOPC   GL115265  15.745   0.594   6.395 -0.1784 -0.1038 -0.1526
 1093YOPC   GL215266  15.772   0.908   6.692 -0.0693  0.1270  0.2585
 1093YOPC   C1A15267  15.516   0.457   6.714  0.4364  0.1723 -0.1243
 1093YOPC   D2A15268  15.149   0.413   7.012 -0.4056 -0.5996  0.1217
 1093YOPC   C3A15269  15.025   0.579   7.332  0.0296 -0.2450 -0.2941
 1093YOPC   C4A15270  15.167   0.966   7.407  0.2788 -0.0183  0.1497
 1093YOPC   C1B15271  15.557   0.850   7.069  0.3501  0.3950  0.1243
 1093YOPC   C2B15272  15.517   0.565   7.467 -0.2641 -0.1430 -0.1271
 1093YOPC   D3B15273  15.210   0.469   7.770 -0.1839  0.0303  0.1366
 1093YOPC   C4B15274  14.807   0.634   7.887 -0.0283  0.0439  0.0872
 1094YOPC   NC315275   8.010   4.414   6.146 -0.2346 -0.2245  0.2177
 1094YOPC   PO415276   7.652   4.388   6.246  0.2290 -0.0294 -0.2634
 1094YOPC   GL115277   7.768   4.287   6.667 -0.2418  0.0521 -0.1176
 1094YOPC   GL215278   7.959   4.083   6.570 -0.0996  0.2172 -0.1215
 1094YOPC   C1A15279   7.632   4.247   7.139 -0.2065  0.0490  0.3779
 1094YOPC   D2A15280   7.256   4.276   7.458 -0.1112  0.3979  0.0915
 1094YOPC   C3A15281   7.148   4.632   7.692 -0.0400  0.0721 -0.1382
 1094YOPC   C4A15282   6.810   4.938   7.847 -0.1071  0.1727  0.3501
 1094YOPC   C1B15283   7.648   3.805   6.876  0.2789  0.3520 -0.0244
 1094YOPC   C2B15284   7.329   3.623   7.044  0.2261 -0.1848 -0.0116
 1094YOPC   D3B15285   7.227   3.464   7.406 -0.3171 -0.1298 -0.0746
 1094YOPC   C4B15286   7.044   3.163   7.572 -0.1272  0.0820 -0.0411
 1095YOPC   NC315287   1.374   1.029   5.400 -0.1082  0.0746 -0.0319
 1095YOPC   PO415288   1.452   0.893   5.798  0.0578 -0.2109 -0.0056
 1095YOPC   GL115289   1.290   0.902   6.196 -0.0825 -0.0713 -0.1907
 1095YOPC   GL215290   1.340   0.574   6.303 -0.2208 -0.0845 -0.2060
 1095YOPC   C1A15291   1.243   1.020   6.564 -0.3241  0.0953 -0.0958
 1095YOPC   D2A15292   1.085   0.835   7.001  0.0262  0.2662  0.0327
 1095YOPC   C3A15293   0.796   1.008   7.204  0.0755  0.4955  0.0235
 1095YOPC   C4A15294   0.518   1.028   7.607 -0.1809 -0.1561 -0.0232
 1095YOPC   C1B15295   1.374   0.551   6.723  0.0144  0.0457  0.0053
 1095YOPC   C2B15296   1.546   0.238   6.864  0.0312 -0.0271 -0.2100
 1095YOPC   D3B15297   1.602   0.094   7.256  0.0050  0.1316 -0.0296
 1095YOPC   C4B15298   1.669   0.415   7.549  0.0381  0.1049 -0.1495
 1096YOPC   NC315299   2.742   2.055   5.805 -0.1257  0.0740  0.0260
 1096YOPC   PO415300   3.160   2.214   5.987 -0.2525  0.2009 -0.1108
 1096YOPC   GL115301   3.182   2.266   6.306  0.3033  0.1000  0.4086
 1096YOPC   GL215302   3.350   2.554   6.328 -0.1632  0.0179 -0.0610
 1096YOPC   C1A15303   2.982   2.190   6.728  0.2455 -0.0680 -0.2276
 1096YOPC   D2A15304   2.771   2.206   7.120  0.1116  0.3832  0.0694
 1096YOPC   C3A15305   2.711   2.644   7.332  0.2042  0.3001  0.2066
 1096YOPC   C4A15306   2.745   2.825   7.800 -0.0687  0.2715 -0.1779
 1096YOPC   C1B15307   3.336   2.544   6.690  0.2072 -0.0295 -0.2656
 1096YOPC   C2B15308   3.155   2.582   7.096 -0.0610  0.0595  0.1601
 1096YOPC   D3B15309   3.095   2.344   7.509  0.0117 -0.0304  0.0818
 1096YOPC   C4B15310   3.251   2.224   7.960  0.1907 -0.1609  0.1129
 1097YOPC   NC315311   0.006  12.811   6.169  0.1405  0.1932  0.0827
 1097YOPC   PO415312  -0.370  12.986   6.310  0.0928 -0.3143 -0.0286
 1097YOPC   GL115313  -0.011  13.186   6.549 -0.1174 -0.2702  0.0599
 1097YOPC   GL215314  -0.238  13.472   6.733 -0.0563 -0.0640  0.1303
 1097YOPC   C1A15315   0.267  13.003   6.856 -0.1348 -0.1389 -0.1775
 1097YOPC   D2A15316   0.357  13.046   7.288  0.0898 -0.0239 -0.1534
 1097YOPC   C3A15317   0.227  13.192   7.723 -0.0326 -0.1378 -0.0397
 1097YOPC   C4A15318   0.149  13.259   8.067  0.0035 -0.2531 -0.1769
 1097YOPC   C1B15319  -0.409  13.166   6.979 -0.1192  0.0032  0.0093
 1097YOPC   C2B15320  -0.661  12.818   6.794 -0.2756 -0.1905  0.3988
 1097YOPC   D3B15321  -1.007  12.755   6.952  0.0014  0.1845 -0.1132
 1097YOPC   C4B15322  -1.278  12.967   7.318 -0.0103 -0.0639 -0.1037
 1098YOPC   NC315323   7.874  10.922   5.783 -0.0046  0.1060 -0.1143
 1098YOPC   PO415324   7.637  10.632   5.909  0.2153  0.1920 -0.0215
 1098YOPC   GL115325   7.688  10.467   6.249  0.0470 -0.2095 -0.1141
 1098YOPC   GL215326   7.406  10.260   6.408  0.2831  0.0680 -0.2174
 1098YOPC   C1A15327   8.075  10.389   6.604  0.2016  0.0937 -0.0426
 1098YOPC   D2A15328   8.390  10.374   6.924 -0.4346  0.1493 -0.0680
 1098YOPC   C3A15329   8.383  10.830   7.117 -0.4721  0.2137  0.0336
 1098YOPC   C4A15330   8.331  10.965   7.628 -0.1600 -0.0277  0.0628
 1098YOPC   C1B15331   7.572  10.283   6.804  0.0331 -0.0625  0.0739
 1098YOPC   C2B15332   7.493  10.418   7.213 -0.2305  0.2151  0.0905
 1098YOPC   D3B15333   7.447  10.211   7.591  0.0344  0.0197  0.3102
 1098YOPC   C4B15334   7.383  10.224   8.024  0.2185  0.2453 -0.0075
 1099YOPC   NC315335   9.618   9.362   5.242 -0.2012  0.0583 -0.1153
 1099YOPC   PO415336   9.388   9.188   5.608  0.1206 -0.2359  0.1103
 1099YOPC   GL115337   9.514   9.334   5.915 -0.2796  0.1197  0.0443
 1099YOPC   GL215338   9.343   9.143   6.144  0.1707 -0.2347 -0.0041
 1099YOPC   C1A15339   9.407   9.560   6.435 -0.1946 -0.0637  0.3767
 1099YOPC   D2A15340   9.238   9.508   6.895  0.0294  0.2138 -0.0722
 1099YOPC   C3A15341   8.959   9.746   7.285  0.1172  0.1401  0.1841
 1099YOPC   C4A15342   8.650   9.727   7.633 -0.0218  0.2843 -0.1758
 1099YOPC   C1B15343   9.318   9.092   6.635 -0.0283  0.1016  0.3656
 1099YOPC   C2B15344   9.117   9.002   7.005 -0.0464 -0.2188 -0.0354
 1099YOPC   D3B15345   9.107   9.285   7.293  0.2050 -0.2752 -0.2162
 1099YOPC   C4B15346   9.094   9.495   7.732 -0.0353  0.2176  0.1031
 1100YOPC   NC315347   6.290   7.149   5.853  0.3812 -0.0670 -0.0403
 1100YOPC   PO415348   5.953   7.099   6.077  0.1328  0.0023 -0.3427
 1100YOPC   GL115349   6.204   7.028   6.378  0.0951 -0.1727  0.2471
 1100YOPC   GL215350   6.296   7.401   6.428  0.5886  0.5099 -0.0559
 1100YOPC   C1A15351   6.179   6.715   6.680  0.3603  0.1267  0.2305
 1100YOPC   D2A15352   5.971   6.304   6.958 -0.0383 -0.0964  0.1679
 1100YOPC   C3A15353   6.056   5.965   7.193  0.1479  0.0225  0.1026
 1100YOPC   C4A15354   6.134   5.715   7.502 -0.2367 -0.0906  0.1959
 1100YOPC   C1B15355   5.958   7.299   6.726 -0.0772  0.2966 -0.0884
 1100YOPC   C2B15356   5.560   7.330   6.884 -0.0202 -0.0970 -0.0678
 1100YOPC   D3B15357   5.395   7.614   7.249  0.0740 -0.2876 -0.3106
 1100YOPC   C4B15358   5.344   7.764   7.566  0.1286  0.0604  0.1727
 1101YOPC   NC315359   2.150   3.198   6.069  0.1026 -0.0524 -0.0294
 1101YOPC   PO415360   2.056   2.851   5.776 -0.0806 -0.2035  0.3718
 1101YOPC   GL115361   2.276   2.691   6.149  0.0195  0.0771 -0.1178
 1101YOPC   GL215362   2.542   3.015   6.301  0.0001 -0.1522  0.0013
 1101YOPC   C1A15363   2.473   2.477   6.495 -0.0526  0.2233  0.1467
 1101YOPC   D2A15364   2.615   2.576   6.844 -0.0185 -0.0598 -0.1198
 1101YOPC   C3A15365   2.320   2.815   7.083 -0.2539  0.0847  0.0815
 1101YOPC   C4A15366   2.075   2.859   7.396  0.0472  0.0911 -0.0395
 1101YOPC   C1B15367   2.503   3.160   6.758  0.2040  0.1660  0.1877
 1101YOPC   C2B15368   2.379   3.360   7.068 -0.2601 -0.0050 -0.2873
 1101YOPC   D3B15369   2.272   3.364   7.465  0.4146  0.0707 -0.1579
 1101YOPC   C4B15370   2.290   3.092   7.763  0.2661  0.2169 -0.2097
 1102YOPC   NC315371   2.890   1.560   5.618 -0.0282  0.0788  0.3022
 1102YOPC   PO415372   2.667   1.203   5.787  0.1786 -0.0915 -0.2781
 1102YOPC   GL115373   2.691   1.154   6.218 -0.0357  0.0750  0.0666
 1102YOPC   GL215374   2.389   1.208   6.299  0.0920 -0.0202  0.2809
 1102YOPC   C1A15375   2.800   1.128   6.690  0.1631  0.3608  0.0482
 1102YOPC   D2A15376   2.646   1.273   7.069 -0.1197 -0.2432  0.0136
 1102YOPC   C3A15377   2.851   1.261   7.471 -0.0531  0.0362  0.2464
 1102YOPC   C4A15378   3.007   1.221   7.853 -0.2342  0.0886  0.3874
 1102YOPC   C1B15379   2.531   1.549   6.560 -0.1547  0.4168 -0.0403
 1102YOPC   C2B15380   2.701   1.736   6.780  0.1163  0.1262 -0.0105
 1102YOPC   D3B15381   2.406   2.060   6.794 -0.0289  0.2167 -0.0295
 1102YOPC   C4B15382   2.283   2.304   7.118 -0.0835 -0.2974 -0.0676
 1103YOPC   NC315383   1.274   5.754   5.962  0.1683 -0.0578 -0.1907
 1103YOPC   PO415384   1.395   6.191   6.128  0.1145  0.0154  0.1305
 1103YOPC   GL115385   1.410   6.310   6.592 -0.0107 -0.0584 -0.0326
 1103YOPC   GL215386   1.524   6.575   6.699  0.1391  0.1856 -0.3518
 1103YOPC   C1A15387   1.555   6.136   6.882  0.0145  0.2058  0.1149
 1103YOPC   D2A15388   1.670   6.001   7.262  0.0765  0.1033  0.0597
 1103YOPC   C3A15389   1.589   6.210   7.606 -0.1708 -0.0620 -0.1187
 1103YOPC   C4A15390   1.643   6.157   8.060  0.2584 -0.2233  0.0799
 1103YOPC   C1B15391   1.793   6.707   7.083 -0.0076 -0.1121 -0.0443
 1103YOPC   C2B15392   1.959   7.049   7.277  0.0565  0.1282 -0.0205
 1103YOPC   D3B15393   1.749   7.322   7.535  0.0444  0.0803  0.0188
 1103YOPC   C4B15394   1.632   7.263   7.946  0.0754 -0.1142  0.2370
 1104YOPC   NC315395   3.209  10.377   5.960 -0.1539  0.0561  0.0563
 1104YOPC   PO415396   2.800  10.226   5.991  0.2459 -0.1193  0.0226
 1104YOPC   GL115397   2.741   9.808   6.267  0.0630  0.0801 -0.0398
 1104YOPC   GL215398   2.901   9.724   6.584  0.1167  0.0642 -0.0613
 1104YOPC   C1A15399   2.728   9.366   6.420  0.0873 -0.1119 -0.0838
 1104YOPC   D2A15400   2.838   8.976   6.386  0.0412 -0.1378  0.1269
 1104YOPC   C3A15401   2.610   8.579   6.474  0.1602  0.0182 -0.3065
 1104YOPC   C4A15402   2.247   8.417   6.683 -0.0534 -0.0820  0.3139
 1104YOPC   C1B15403   2.550   9.875   6.839 -0.0029  0.0285 -0.0860
 1104YOPC   C2B15404   2.423   9.812   7.212  0.1165 -0.1022 -0.3615
 1104YOPC   D3B15405   2.346   9.554   7.541 -0.0882 -0.3326 -0.0271
 1104YOPC   C4B15406   2.287   9.480   7.967  0.0812  0.1260  0.0560
 1105YOPC   NC315407  17.902  17.567   6.110  0.2193  0.0190  0.2455
 1105YOPC   PO415408  17.671  17.382   6.309  0.1211  0.1279 -0.0607
 1105YOPC   GL115409  17.907  17.373   6.627 -0.2530 -0.3123  0.1548
 1105YOPC   GL215410  18.174  17.419   6.581 -0.3042  0.0035  0.2107
 1105YOPC   C1A15411  18.006  17.148   7.032  0.2855  0.0358  0.2008
 1105YOPC   D2A15412  18.393  17.073   7.274 -0.1673 -0.2246 -0.0548
 1105YOPC   C3A15413  18.386  17.041   7.738  0.3000  0.0800 -0.2429
 1105YOPC   C4A15414  18.314  17.471   7.917 -0.0451 -0.1042 -0.4722
 1105YOPC   C1B15415  18.495  17.126   6.768  0.1353  0.0688 -0.4903
 1105YOPC   C2B15416  18.720  16.831   6.847 -0.0626 -0.1161  0.2036
 1105YOPC   D3B15417  18.816  16.830   7.236 -0.1966 -0.0346  0.2511
 1105YOPC   C4B15418  19.076  16.532   7.386 -0.1505  0.0054 -0.3385
 1106YOPC   NC315419  15.070   7.761   5.799 -0.1691  0.1295  0.3528
 1106YOPC   PO415420  15.545   7.533   5.826  0.2791 -0.1707 -0.0995
 1106YOPC   GL115421  15.628   7.559   6.198  0.4646  0.2015 -0.3381
 1106YOPC   GL215422  15.802   7.313   6.371 -0.0520 -0.2839  0.0873
 1106YOPC   C1A15423  15.688   7.717   6.613 -0.0250 -0.0884  0.2171
 1106YOPC   D2A15424  15.662   7.663   7.023 -0.1828 -0.3782 -0.2409
 1106YOPC   C3A15425  15.526   7.998   7.359  0.0374  0.1752 -0.1971
 1106YOPC   C4A15426  15.419   8.357   7.690 -0.2726  0.4325 -0.4157
 1106YOPC   C1B15427  15.906   7.309   6.772  0.0045 -0.1934 -0.3457
 1106YOPC   C2B15428  16.269   7.284   7.093 -0.3421  0.1115 -0.0957
 1106YOPC   D3B15429  16.412   7.075   7.421  0.0615  0.1524  0.1261
 1106YOPC   C4B15430  16.754   6.903   7.626 -0.1399 -0.0911  0.0371
 1107YOPC   NC315431  17.949  14.612   6.122  0.0526  0.0713  0.0333
 1107YOPC   PO415432  17.993  15.075   6.128  0.0585  0.2278 -0.0972
 1107YOPC   GL115433  18.207  15.093   6.548  0.0528  0.3098 -0.2577
 1107YOPC   GL215434  18.508  15.159   6.582  0.3875  0.0629 -0.2083
 1107YOPC   C1A15435  18.067  15.428   6.818  0.0109  0.1861 -0.0708
 1107YOPC   D2A15436  18.063  15.804   7.050  0.1317  0.2646  0.1532
 1107YOPC   C3A15437  18.315  16.113   7.026  0.0268 -0.0966  0.2361
 1107YOPC   C4A15438  18.494  16.464   7.152  0.1862 -0.0920  0.1196
 1107YOPC   C1B15439  18.525  15.243   7.020 -0.0491 -0.3088 -0.0860
 1107YOPC   C2B15440  18.399  15.272   7.458  0.0883 -0.2541 -0.1624
 1107YOPC   D3B15441  18.626  15.448   7.898  0.0483  0.2021 -0.2491
 1107YOPC   C4B15442  18.855  15.464   8.172  0.0782 -0.0310 -0.0582
 1108YOPC   NC315443  11.737   9.126   5.699 -0.2415 -0.2837  0.1461
 1108YOPC   PO415444  11.375   9.117   5.747  0.0948  0.3507  0.0133
 1108YOPC   GL115445  11.452   8.899   6.122  0.0268  0.1796 -0.0554
 1108YOPC   GL215446  11.275   9.087   6.370 -0.1124  0.0121 -0.0169
 1108YOPC   C1A15447  11.636   8.581   6.335 -0.0592 -0.3041  0.2561
 1108YOPC   D2A15448  12.002   8.367   6.474 -0.0858  0.1050 -0.2995
 1108YOPC   C3A15449  12.078   8.396   6.905  0.0878  0.1366  0.1797
 1108YOPC   C4A15450  12.105   8.477   7.346 -0.2776  0.2209  0.0975
 1108YOPC   C1B15451  11.262   8.985   6.807 -0.3431  0.0113  0.1153
 1108YOPC   C2B15452  11.127   8.846   7.219 -0.2377  0.2094  0.2793
 1108YOPC   D3B15453  10.903   9.003   7.507  0.1058 -0.1775 -0.1814
 1108YOPC   C4B15454  10.710   9.324   7.801  0.0507  0.0711  0.2395
 1109YOPC   NC315455  15.900  17.294   6.119  0.1609 -0.1600  0.3514
 1109YOPC   PO415456  16.325  17.435   6.331  0.0003 -0.2168 -0.0296
 1109YOPC   GL115457  16.719  17.547   6.500 -0.1180  0.2475  0.0905
 1109YOPC   GL215458  16.831  17.382   6.654  0.1282  0.0801  0.4139
 1109YOPC   C1A15459  16.868  17.984   6.697 -0.0150  0.2426  0.1193
 1109YOPC   D2A15460  17.219  18.200   6.722  0.2125 -0.2886 -0.2704
 1109YOPC   C3A15461  17.059  18.495   6.979 -0.2741 -0.2252  0.0342
 1109YOPC   C4A15462  16.819  18.673   7.249 -0.0637 -0.2495 -0.3759
 1109YOPC   C1B15463  16.457  17.184   7.006  0.0888 -0.1600 -0.1516
 1109YOPC   C2B15464  16.528  17.116   7.476 -0.2330 -0.0244  0.2596
 1109YOPC   D3B15465  16.450  17.393   7.794  0.1964 -0.0263  0.4646
 1109YOPC   C4B15466  16.498  17.767   8.090  0.1612  0.0886  0.0270
 1110YOPC   NC315467  13.769   2.862   5.802  0.1502 -0.0215 -0.0029
 1110YOPC   PO415468  13.768   3.164   6.114  0.1755  0.0825  0.3050
 1110YOPC   GL115469  13.503   3.451   6.277  0.0013 -0.2292  0.1803
 1110YOPC   GL215470  13.234   3.620   6.412  0.0741  0.1103 -0.0474
 1110YOPC   C1A15471  13.538   3.399   6.693 -0.1445 -0.2332 -0.0480
 1110YOPC   D2A15472  13.596   3.455   7.161  0.0759  0.2392  0.0728
 1110YOPC   C3A15473  13.554   3.154   7.527 -0.1382 -0.3380 -0.1528
 1110YOPC   C4A15474  13.249   2.823   7.557 -0.3290  0.0667  0.2327
 1110YOPC   C1B15475  13.183   3.707   6.870 -0.0462  0.0245 -0.1446
 1110YOPC   C2B15476  13.220   3.935   7.316  0.1444  0.0487  0.0666
 1110YOPC   D3B15477  13.459   3.716   7.619  0.1344 -0.2144  0.3413
 1110YOPC   C4B15478  13.594   3.499   8.020 -0.1630  0.1797  0.0062
 1111YOPC   NC315479  16.855  11.301   5.832 -0.2572 -0.0304  0.0754
 1111YOPC   PO415480  16.948  11.234   6.271 -0.0892 -0.0053  0.1241
 1111YOPC   GL115481  16.849  10.973   6.708 -0.1088  0.2973 -0.2187
 1111YOPC   GL215482  16.942  10.995   6.955  0.1859 -0.0172 -0.1883
 1111YOPC   C1A15483  16.562  10.679   6.968 -0.4072  0.1002  0.0047
 1111YOPC   D2A15484  16.697  10.525   7.415  0.1925 -0.1178 -0.1025
 1111YOPC   C3A15485  16.453  10.532   7.854 -0.0151 -0.2845 -0.1109
 1111YOPC   C4A15486  16.301  10.884   8.119  0.1873 -0.0988  0.2739
 1111YOPC   C1B15487  17.091  10.858   7.367  0.1318  0.0481 -0.2380
 1111YOPC   C2B15488  16.984  10.773   7.804  0.0679 -0.2086 -0.0649
 1111YOPC   D3B15489  17.117  10.842   8.180  0.2249  0.1997 -0.0381
 1111YOPC   C4B15490  17.098  11.289   8.352  0.0193  0.3046  0.1486
 1112YOPC   NC315491  10.316  13.504   5.548  0.1523  0.0105 -0.0523
 1112YOPC   PO415492  10.329  13.240   5.772 -0.2860  0.2163  0.2627
 1112YOPC   GL115493  10.064  13.372   6.254  0.0536  0.3462 -0.1785
 1112YOPC   GL215494  10.411  13.351   6.256  0.2095 -0.1427 -0.0336
 1112YOPC   C1A15495  10.069  13.710   6.529  0.0719 -0.4536  0.1299
 1112YOPC   D2A15496   9.996  13.825   6.980 -0.1257 -0.1711 -0.2035
 1112YOPC   C3A15497  10.050  13.582   7.359  0.1188  0.0564 -0.0995
 1112YOPC   C4A15498  10.182  13.371   7.673  0.2695 -0.1434 -0.3743
 1112YOPC   C1B15499  10.454  13.504   6.762  0.1991  0.0847 -0.0542
 1112YOPC   C2B15500  10.372  13.265   7.064 -0.1891  0.0505 -0.3071
 1112YOPC   D3B15501  10.630  12.861   7.037  0.3480  0.0643  0.0636
 1112YOPC   C4B15502  10.791  12.432   6.840 -0.3426  0.2093  0.0909
 1113YOPC   NC315503  10.546   9.542   5.423 -0.2420 -0.2708  0.0810
 1113YOPC   PO415504  10.716   9.910   5.635  0.1634 -0.2054  0.0024
 1113YOPC   GL115505  10.619   9.683   5.941  0.1707 -0.1694 -0.2085
 1113YOPC   GL215506  10.696   9.885   6.155  0.1281  0.0266 -0.0034
 1113YOPC   C1A15507  10.447   9.408   6.264  0.1055 -0.1405 -0.1581
 1113YOPC   D2A15508  10.431   9.405   6.734 -0.1858 -0.0385  0.2297
 1113YOPC   C3A15509  10.147   9.195   7.004 -0.1217 -0.1070 -0.2162
 1113YOPC   C4A15510  10.021   8.866   7.335  0.1223  0.2124  0.0631
 1113YOPC   C1B15511  10.892   9.710   6.560  0.0779 -0.1247  0.1972
 1113YOPC   C2B15512  10.937   9.375   6.906 -0.1675  0.0064  0.0883
 1113YOPC   D3B15513  10.665   9.376   7.225 -0.2562 -0.3020  0.1198
 1113YOPC   C4B15514  10.373   9.166   7.431 -0.3098  0.3189 -0.3011
 1114YOPC   NC315515   6.740   4.259   5.713 -0.1340  0.0219  0.1652
 1114YOPC   PO415516   6.380   4.133   5.890  0.0547  0.2153 -0.0806
 1114YOPC   GL115517   6.602   4.343   6.194  0.2127  0.3168 -0.2010
 1114YOPC   GL215518   6.577   4.217   6.527  0.0285  0.0046  0.2635
 1114YOPC   C1A15519   6.928   4.560   6.406 -0.0788 -0.1968  0.0423
 1114YOPC   D2A15520   7.351   4.771   6.409  0.1215 -0.0694  0.1371
 1114YOPC   C3A15521   7.454   5.065   6.655 -0.1545 -0.1004 -0.2098
 1114YOPC   C4A15522   7.466   5.245   7.046 -0.1144 -0.2555  0.0482
 1114YOPC   C1B15523   6.615   4.333   6.959 -0.1833 -0.0334 -0.0425
 1114YOPC   C2B15524   6.749   4.312   7.394 -0.0642 -0.2585  0.0645
 1114YOPC   D3B15525   6.533   4.307   7.801  0.1051  0.0362 -0.0762
 1114YOPC   C4B15526   6.235   4.317   8.187 -0.2282 -0.0389 -0.1604
 1115YOPC   NC315527  15.150   2.754   5.755 -0.0620  0.3969  0.0110
 1115YOPC   PO415528  15.424   2.430   5.843 -0.0469 -0.0197  0.2173
 1115YOPC   GL115529  15.351   2.646   6.212  0.0610  0.0233 -0.1514
 1115YOPC   GL215530  15.070   2.794   6.304  0.0544  0.1070  0.2034
 1115YOPC   C1A15531  15.496   2.690   6.666  0.2924  0.0116  0.0828
 1115YOPC   D2A15532  15.614   2.695   7.160 -0.0650  0.1820 -0.0605
 1115YOPC   C3A15533  15.397   2.486   7.461  0.1779  0.1908  0.0155
 1115YOPC   C4A15534  15.024   2.375   7.543  0.0932 -0.0348  0.6794
 1115YOPC   C1B15535  14.988   2.790   6.676 -0.1875  0.1659  0.1498
 1115YOPC   C2B15536  15.115   2.691   7.114 -0.1913 -0.1808  0.0965
 1115YOPC   D3B15537  15.336   3.065   7.366 -0.1585  0.0898 -0.1894
 1115YOPC   C4B15538  15.551   2.950   7.601 -0.1474 -0.1497  0.0078
 1116YOPC   NC315539   1.017   8.279   6.039 -0.2286 -0.0522  0.0363
 1116YOPC   PO415540   1.100   7.895   6.070 -0.2568 -0.3077 -0.2781
 1116YOPC   GL115541   1.065   7.784   6.507  0.2212  0.2773 -0.1700
 1116YOPC   GL215542   0.992   8.111   6.551  0.1172  0.1418  0.1658
 1116YOPC   C1A15543   1.146   7.724   6.872  0.2244  0.2584 -0.2025
 1116YOPC   D2A15544   1.042   7.982   7.240 -0.0806  0.0400  0.2347
 1116YOPC   C3A15545   1.125   7.921   7.631  0.1121  0.1239 -0.2585
 1116YOPC   C4A15546   1.516   7.794   7.717  0.1127 -0.1169  0.1983
 1116YOPC   C1B15547   0.683   7.974   6.831 -0.0010 -0.2983 -0.1408
 1116YOPC   C2B15548   0.526   8.097   7.242  0.0440 -0.0295 -0.0531
 1116YOPC   D3B15549   0.553   8.192   7.589  0.0612  0.1999  0.1433
 1116YOPC   C4B15550   0.800   8.163   7.950 -0.1046  0.0958 -0.3077
 1117YOPC   NC315551  15.899  12.280   6.200  0.0336 -0.0891  0.4795
 1117YOPC   PO415552  15.694  12.618   6.148 -0.0488  0.0923 -0.4058
 1117YOPC   GL115553  15.597  12.875   6.462  0.0153  0.0755 -0.2629
 1117YOPC   GL215554  15.381  12.731   6.631 -0.2443  0.0227  0.0474
 1117YOPC   C1A15555  15.618  13.207   6.742 -0.0938 -0.0369 -0.0299
 1117YOPC   D2A15556  15.973  13.439   6.922 -0.0786 -0.2269 -0.4664
 1117YOPC   C3A15557  16.027  13.497   7.367  0.1544  0.1636 -0.0261
 1117YOPC   C4A15558  16.180  13.649   7.753 -0.1107 -0.2859 -0.2337
 1117YOPC   C1B15559  15.439  12.486   6.920  0.1039  0.3494 -0.3056
 1117YOPC   C2B15560  15.564  12.329   7.310 -0.0948  0.0609 -0.0622
 1117YOPC   D3B15561  15.439  12.306   7.770 -0.1114 -0.2454  0.4262
 1117YOPC   C4B15562  15.148  12.613   7.928 -0.2456  0.2124 -0.1446
 1118YOPC   NC315563  15.281  13.054   6.178 -0.0140 -0.1392  0.0480
 1118YOPC   PO415564  15.083  12.637   6.247 -0.0172 -0.3692 -0.1849
 1118YOPC   GL115565  14.872  13.008   6.547  0.1046  0.3140 -0.0558
 1118YOPC   GL215566  15.144  13.162   6.643  0.0649  0.0407 -0.0483
 1118YOPC   C1A15567  14.461  12.989   6.860  0.1169  0.4827  0.0918
 1118YOPC   D2A15568  14.162  13.028   7.085  0.0181 -0.1250 -0.0531
 1118YOPC   C3A15569  14.282  13.197   7.516  0.0667 -0.0337  0.1118
 1118YOPC   C4A15570  14.037  13.164   7.849  0.0551 -0.0526 -0.1298
 1118YOPC   C1B15571  15.142  13.011   7.040 -0.0861 -0.1530 -0.1003
 1118YOPC   C2B15572  15.183  12.710   7.340  0.1326  0.1778  0.0745
 1118YOPC   D3B15573  14.921  12.453   7.542 -0.1034 -0.1140 -0.2403
 1118YOPC   C4B15574  14.687  12.352   7.820 -0.0931  0.2189 -0.3075
 1119YOPC   NC315575  12.679   1.189   5.715  0.1116 -0.1852  0.0843
 1119YOPC   PO415576  12.335   1.178   6.073 -0.0636 -0.1133  0.0418
 1119YOPC   GL115577  12.425   1.357   6.466 -0.2264  0.2446 -0.0845
 1119YOPC   GL215578  12.297   1.172   6.684  0.0810  0.0100  0.0362
 1119YOPC   C1A15579  12.454   1.593   6.877 -0.2344 -0.0539 -0.1632
 1119YOPC   D2A15580  12.300   1.761   7.257  0.1625  0.0554 -0.0098
 1119YOPC   C3A15581  12.586   1.927   7.572  0.1018 -0.0232 -0.2432
 1119YOPC   C4A15582  12.636   2.275   7.801 -0.1525 -0.2233  0.0074
 1119YOPC   C1B15583  12.007   1.242   6.979  0.0627  0.1536  0.1276
 1119YOPC   C2B15584  11.654   1.489   7.164  0.1449  0.1644  0.2243
 1119YOPC   D3B15585  11.429   1.420   7.552 -0.0657  0.2095  0.3787
 1119YOPC   C4B15586  11.089   1.154   7.720 -0.0075 -0.1215  0.4542
 1120YOPC   NC315587   3.741   5.830   6.291  0.2466 -0.1679  0.2233
 1120YOPC   PO415588   3.518   5.483   6.305  0.0295  0.1173 -0.1721
 1120YOPC   GL115589   3.380   5.371   6.649  0.0409  0.1026 -0.0830
 1120YOPC   GL215590   3.043   5.291   6.582  0.0765 -0.2879  0.1465
 1120YOPC   C1A15591   3.560   5.262   7.019 -0.2272  0.1717  0.0513
 1120YOPC   D2A15592   3.417   5.246   7.339  0.1608  0.3900  0.1288
 1120YOPC   C3A15593   3.373   5.598   7.519 -0.2894 -0.2544 -0.4264
 1120YOPC   C4A15594   3.087   5.787   7.421  0.1746  0.0987  0.0642
 1120YOPC   C1B15595   2.534   5.162   6.664  0.0161  0.2247 -0.3851
 1120YOPC   C2B15596   2.090   5.056   6.706 -0.2444  0.2006  0.0624
 1120YOPC   D3B15597   1.977   5.013   7.199 -0.2453  0.3258 -0.0728
 1120YOPC   C4B15598   1.735   4.877   7.583 -0.1141  0.1162  0.2320
 1121YOPC   NC315599  15.467   0.622   5.901  0.0477 -0.2635 -0.3015
 1121YOPC   PO415600  15.235   0.994   5.953  0.2262  0.0606 -0.1800
 1121YOPC   GL115601  15.248   1.223   6.354 -0.2136  0.1562  0.2639
 1121YOPC   GL215602  15.307   1.542   6.393  0.2129  0.1785 -0.1814
 1121YOPC   C1A15603  15.225   1.289   6.829  0.1246 -0.1202 -0.1084
 1121YOPC   D2A15604  15.146   1.674   7.174 -0.1763  0.0835 -0.3000
 1121YOPC   C3A15605  15.222   1.494   7.603 -0.0159 -0.3353  0.0863
 1121YOPC   C4A15606  15.417   1.735   7.964  0.1438 -0.2109 -0.1285
 1121YOPC   C1B15607  15.450   1.701   6.700  0.1061 -0.0821  0.0773
 1121YOPC   C2B15608  15.700   1.825   7.101 -0.0626  0.2726  0.0660
 1121YOPC   D3B15609  16.068   1.705   7.163 -0.2410  0.1298  0.2203
 1121YOPC   C4B15610  16.260   1.777   7.530  0.0729 -0.0910  0.3017
 1122YOPC   NC315611  13.269  10.042   5.953  0.0344 -0.0314  0.0578
 1122YOPC   PO415612  12.926  10.392   5.972 -0.0622 -0.3256 -0.2724
 1122YOPC   GL115613  12.892  10.180   6.396 -0.0480 -0.1894  0.2698
 1122YOPC   GL215614  12.574  10.147   6.520 -0.0332  0.0201 -0.2214
 1122YOPC   C1A15615  13.016  10.243   6.764  0.3005  0.0910  0.0263
 1122YOPC   D2A15616  12.794  10.072   7.125  0.2511 -0.0455 -0.3058
 1122YOPC   C3A15617  12.814   9.817   7.553  0.1987  0.1413  0.0720
 1122YOPC   C4A15618  12.857   9.870   8.030  0.1330 -0.0490 -0.2796
 1122YOPC   C1B15619  12.384  10.266   6.860 -0.1335 -0.0195  0.1581
 1122YOPC   C2B15620  12.164  10.206   7.223  0.0547  0.0301 -0.0304
 1122YOPC   D3B15621  12.372  10.104   7.609 -0.1424  0.0220  0.0011
 1122YOPC   C4B15622  12.364   9.682   7.801 -0.1621 -0.5747 -0.1865
 1123YOPC   NC315623   8.645  15.582   5.991  0.2861  0.1221  0.0719
 1123YOPC   PO415624   8.922  15.946   5.919 -0.1720  0.1228 -0.1069
 1123YOPC   GL115625   8.987  15.939   6.365  0.3685 -0.0520 -0.1108
 1123YOPC   GL215626   8.792  16.178   6.565 -0.2963 -0.1318  0.1190
 1123YOPC   C1A15627   9.120  15.823   6.849  0.0984 -0.1862  0.0737
 1123YOPC   D2A15628   9.255  15.846   7.396 -0.2448 -0.0256  0.1214
 1123YOPC   C3A15629   8.986  15.721   7.695  0.0510 -0.1249 -0.1808
 1123YOPC   C4A15630   8.747  15.645   8.072  0.0594 -0.0231  0.3216
 1123YOPC   C1B15631   8.833  16.519   6.811  0.0779  0.1161  0.2674
 1123YOPC   C2B15632   8.705  16.617   7.288  0.0931  0.1202  0.1249
 1123YOPC   D3B15633   8.414  16.890   7.444 -0.2425 -0.1423 -0.0821
 1123YOPC   C4B15634   8.122  16.844   7.588  0.1905  0.1014  0.0459
 1124YOPC   NC315635  11.309   5.220   6.155 -0.1795  0.3171  0.0904
 1124YOPC   PO415636  11.520   4.871   6.260  0.3853 -0.1449  0.0945
 1124YOPC   GL115637  11.482   4.785   6.656  0.1860  0.3068  0.0185
 1124YOPC   GL215638  11.737   4.628   6.601  0.0305 -0.0311 -0.2572
 1124YOPC   C1A15639  11.313   4.634   7.006  0.0371  0.0803 -0.2400
 1124YOPC   D2A15640  11.277   4.298   7.318 -0.0917 -0.0419  0.2034
 1124YOPC   C3A15641  11.537   4.409   7.642 -0.0381 -0.0427  0.0235
 1124YOPC   C4A15642  11.963   4.470   7.711  0.0141  0.0051 -0.3225
 1124YOPC   C1B15643  11.829   4.491   6.928  0.0677  0.0264  0.0906
 1124YOPC   C2B15644  12.113   4.301   7.148 -0.0178 -0.1603 -0.0276
 1124YOPC   D3B15645  12.220   3.878   7.158  0.0448 -0.1692 -0.0244
 1124YOPC   C4B15646  12.198   3.550   7.389 -0.2343  0.2400 -0.2433
 1125YOPC   NC315647   5.652   2.442   5.656 -0.1366 -0.0986  0.0445
 1125YOPC   PO415648   5.482   2.438   6.111  0.2004  0.1150  0.1249
 1125YOPC   GL115649   5.312   2.465   6.467 -0.0508  0.0227  0.1360
 1125YOPC   GL215650   5.496   2.520   6.700 -0.0971 -0.2158  0.1733
 1125YOPC   C1A15651   4.968   2.634   6.816  0.4274  0.0988 -0.1902
 1125YOPC   D2A15652   4.967   2.719   7.241 -0.1948  0.2123  0.1062
 1125YOPC   C3A15653   4.790   2.831   7.521 -0.3138  0.1821 -0.1352
 1125YOPC   C4A15654   4.660   2.894   7.988 -0.0003  0.0506  0.0704
 1125YOPC   C1B15655   5.850   2.679   6.922  0.2696 -0.1292  0.2938
 1125YOPC   C2B15656   5.960   2.593   7.314 -0.6031  0.2142  0.0566
 1125YOPC   D3B15657   5.831   2.310   7.531 -0.0910  0.1385 -0.1332
 1125YOPC   C4B15658   5.752   2.128   7.903 -0.1424 -0.1375 -0.1665
 1126YOPC   NC315659   8.130   1.993   5.977 -0.2050  0.0282  0.1460
 1126YOPC   PO415660   8.608   1.890   5.857  0.5767 -0.0547 -0.3151
 1126YOPC   GL115661   8.538   1.872   6.269 -0.1121  0.0466  0.0007
 1126YOPC   GL215662   8.435   2.159   6.473  0.0830  0.0588  0.2917
 1126YOPC   C1A15663   8.378   1.802   6.791 -0.1682  0.2066 -0.1772
 1126YOPC   D2A15664   8.317   1.613   7.186  0.3846 -0.1096  0.2459
 1126YOPC   C3A15665   8.444   1.563   7.591 -0.1025 -0.4614  0.1180
 1126YOPC   C4A15666   8.432   1.649   7.966  0.0648 -0.2116  0.2046
 1126YOPC   C1B15667   8.162   2.252   6.850 -0.2362 -0.0811 -0.0882
 1126YOPC   C2B15668   8.096   2.564   7.169 -0.0355 -0.4302 -0.0975
 1126YOPC   D3B15669   8.276   2.503   7.625  0.1686  0.0439 -0.3158
 1126YOPC   C4B15670   8.659   2.548   7.820 -0.0198  0.0583  0.2341
 1127YOPC   NC315671   2.316   8.001   5.666  0.0655 -0.1143  0.2385
 1127YOPC   PO415672   2.020   7.958   6.050 -0.0235 -0.0781 -0.0276
 1127YOPC   GL115673   2.057   8.008   6.439  0.1595  0.2151 -0.2213
 1127YOPC   GL215674   2.310   7.806   6.509  0.0493  0.0600  0.2872
 1127YOPC   C1A15675   2.039   8.017   6.872 -0.1909  0.0209 -0.0670
 1127YOPC   D2A15676   2.287   8.182   7.273 -0.1684  0.3439  0.0913
 1127YOPC   C3A15677   2.604   8.008   7.452  0.2499  0.0407 -0.1704
 1127YOPC   C4A15678   2.863   7.987   7.835  0.0352 -0.1201  0.1098
 1127YOPC   C1B15679   2.339   7.651   6.970  0.3813 -0.1775  0.0020
 1127YOPC   C2B15680   2.104   7.587   7.229  0.2662 -0.0501  0.0936
 1127YOPC   D3B15681   2.044   7.804   7.621 -0.1868 -0.0129 -0.1613
 1127YOPC   C4B15682   1.854   7.710   8.041 -0.0838  0.0067 -0.0319
 1128YOPC   NC315683   4.247   7.740   5.913 -0.0137 -0.1835  0.0555
 1128YOPC   PO415684   4.103   8.013   6.134  0.1122 -0.3520 -0.1183
 1128YOPC   GL115685   3.850   7.793   6.370 -0.2340  0.1466  0.0554
 1128YOPC   GL215686   3.554   7.848   6.395  0.0310  0.0820 -0.1748
 1128YOPC   C1A15687   3.918   7.519   6.688  0.0367 -0.1160  0.0123
 1128YOPC   D2A15688   3.938   7.425   7.085  0.1534 -0.0398  0.0373
 1128YOPC   C3A15689   4.014   7.724   7.360 -0.1282 -0.0424 -0.0170
 1128YOPC   C4A15690   4.045   7.813   7.800 -0.1280 -0.0191 -0.0736
 1128YOPC   C1B15691   3.393   7.712   6.747  0.0057  0.0593 -0.0515
 1128YOPC   C2B15692   3.535   7.738   7.175 -0.1058 -0.2583 -0.2660
 1128YOPC   D3B15693   3.604   7.487   7.596 -0.2611  0.0622 -0.2795
 1128YOPC   C4B15694   3.686   7.502   8.040 -0.1745 -0.1301  0.1987
 1129YOPC   NC315695   3.016   3.924   5.538  0.1753  0.1576  0.1139
 1129YOPC   PO415696   3.303   3.637   5.745 -0.0453  0.0978 -0.1099
 1129YOPC   GL115697   3.296   3.442   6.218  0.1242 -0.1808  0.2175
 1129YOPC   GL215698   2.920   3.427   6.230  0.1002 -0.1682  0.2002
 1129YOPC   C1A15699   3.498   3.391   6.525 -0.1615  0.1653  0.0655
 1129YOPC   D2A15700   3.733   3.539   6.646 -0.0095 -0.0080  0.0769
 1129YOPC   C3A15701   3.757   3.486   7.019  0.1860 -0.2875 -0.2969
 1129YOPC   C4A15702   3.604   3.628   7.324  0.0263 -0.0768 -0.0273
 1129YOPC   C1B15703   2.997   3.365   6.667 -0.1154  0.1377 -0.0023
 1129YOPC   C2B15704   3.291   3.518   6.930  0.1931 -0.3089  0.0887
 1129YOPC   D3B15705   3.207   3.329   7.367 -0.0318 -0.2656  0.2103
 1129YOPC   C4B15706   3.114   2.855   7.522 -0.2384  0.0634  0.0852
 1130YOPC   NC315707   9.173   8.417   5.571 -0.0056 -0.0346 -0.0239
 1130YOPC   PO415708   9.675   8.356   5.685 -0.1342  0.0673  0.1196
 1130YOPC   GL115709   9.815   8.379   6.116 -0.1403 -0.1635  0.0156
 1130YOPC   GL215710   9.923   8.118   6.274 -0.0562 -0.1903  0.2987
 1130YOPC   C1A15711   9.998   8.600   6.526  0.2311  0.1545 -0.1397
 1130YOPC   D2A15712  10.171   8.695   6.914  0.1373 -0.1151 -0.0570
 1130YOPC   C3A15713  10.089   8.352   7.190 -0.0179  0.1707  0.1061
 1130YOPC   C4A15714  10.141   8.103   7.550  0.1082 -0.2460  0.2695
 1130YOPC   C1B15715   9.954   8.095   6.787  0.1120 -0.0110  0.0363
 1130YOPC   C2B15716   9.748   8.004   7.239 -0.0966 -0.1132 -0.0424
 1130YOPC   D3B15717   9.647   8.128   7.500 -0.0818 -0.0209  0.2420
 1130YOPC   C4B15718   9.603   7.950   7.869  0.1261  0.0081  0.0875
 1131YOPC   NC315719  16.899  16.642   6.222  0.0530 -0.0386  0.0475
 1131YOPC   PO415720  16.595  16.280   6.200 -0.5017 -0.1572 -0.0139
 1131YOPC   GL115721  16.720  16.393   6.631  0.0551  0.0154 -0.0376
 1131YOPC   GL215722  17.050  16.294   6.785  0.0226  0.1007  0.2530
 1131YOPC   C1A15723  16.685  16.665   7.027 -0.0381 -0.3150 -0.0183
 1131YOPC   D2A15724  16.850  16.747   7.422  0.1911  0.0032  0.0535
 1131YOPC   C3A15725  16.819  16.756   7.752  0.1599  0.3283 -0.1945
 1131YOPC   C4A15726  16.562  16.957   8.146  0.2148  0.0423  0.0505
 1131YOPC   C1B15727  17.132  16.292   7.254 -0.0966  0.1917  0.2218
 1131YOPC   C2B15728  17.333  16.698   7.609  0.0183  0.0339 -0.0406
 1131YOPC   D3B15729  17.368  17.100   7.867 -0.0060 -0.0803  0.1349
 1131YOPC   C4B15730  17.317  17.330   8.216  0.2588  0.1659  0.2329
 1132YOPC   NC315731  13.871   9.418   5.521  0.0493 -0.3297 -0.3111
 1132YOPC   PO415732  14.220   9.223   5.743  0.1244  0.2317 -0.1603
 1132YOPC   GL115733  14.390   9.025   6.038  0.0225  0.3711 -0.2048
 1132YOPC   GL215734  14.459   9.225   6.277 -0.2394 -0.3161 -0.0588
 1132YOPC   C1A15735  14.277   8.811   6.441  0.0030  0.2413 -0.0912
 1132YOPC   D2A15736  14.238   9.255   6.728  0.1280  0.1060 -0.0879
 1132YOPC   C3A15737  14.473   9.417   7.057 -0.0136  0.2367  0.0599
 1132YOPC   C4A15738  14.691   9.705   7.262 -0.1508  0.1798  0.0905
 1132YOPC   C1B15739  14.724   9.433   6.519  0.0919  0.3265  0.1477
 1132YOPC   C2B15740  14.723   9.782   6.757 -0.3528  0.1308 -0.3134
 1132YOPC   D3B15741  15.106  10.005   6.889  0.1546 -0.0408 -0.1758
 1132YOPC   C4B15742  15.524   9.947   7.176  0.0649 -0.0155 -0.2200
 1133YOPC   NC315743  10.005  11.180   6.060 -0.1468  0.1499 -0.0106
 1133YOPC   PO415744  10.373  11.083   5.896  0.2411 -0.0689  0.0649
 1133YOPC   GL115745  10.323  10.928   6.355  0.0138  0.3038 -0.0883
 1133YOPC   GL215746  10.416  11.160   6.407  0.0343  0.1151 -0.2155
 1133YOPC   C1A15747  10.334  10.645   6.698  0.1759 -0.5732 -0.2519
 1133YOPC   D2A15748  10.239  10.688   7.068 -0.1044  0.1339 -0.0114
 1133YOPC   C3A15749  10.413  10.724   7.525 -0.0018  0.2398  0.0263
 1133YOPC   C4A15750  10.641  10.750   7.960 -0.0518 -0.1915  0.0873
 1133YOPC   C1B15751  10.343  11.162   6.892 -0.3410  0.1620 -0.2974
 1133YOPC   C2B15752  10.255  11.161   7.318 -0.0331  0.3068  0.2530
 1133YOPC   D3B15753   9.928  10.840   7.429  0.3469 -0.1874 -0.3883
 1133YOPC   C4B15754   9.551  10.868   7.372 -0.0359  0.1882  0.0253
 1134YOPC   NC315755   6.608  14.389   6.036  0.1791  0.0071  0.2058
 1134YOPC   PO415756   6.814  14.132   5.909  0.1864 -0.0805  0.0862
 1134YOPC   GL115757   6.991  14.084   6.329 -0.0657  0.0346 -0.0335
 1134YOPC   GL215758   7.262  14.327   6.508 -0.0000  0.5025  0.0701
 1134YOPC   C1A15759   6.800  14.026   6.748 -0.0221  0.0187 -0.1381
 1134YOPC   D2A15760   6.794  13.717   6.970 -0.0538 -0.0814  0.3867
 1134YOPC   C3A15761   6.458  13.728   7.286  0.0745  0.0760 -0.1281
 1134YOPC   C4A15762   6.060  13.571   7.260  0.0750  0.0195  0.1768
 1134YOPC   C1B15763   7.401  14.364   6.901  0.0847  0.0673  0.1633
 1134YOPC   C2B15764   7.293  14.539   7.255 -0.2874 -0.2922 -0.1343
 1134YOPC   D3B15765   7.489  14.266   7.608 -0.2055 -0.0765  0.2461
 1134YOPC   C4B15766   7.538  14.232   8.007  0.0800  0.1081 -0.1277
 1135YOPC   NC315767  13.491   8.598   5.535  0.0266  0.1149 -0.2047
 1135YOPC   PO415768  13.593   8.495   5.896  0.0370 -0.1679  0.1506
 1135YOPC   GL115769  13.480   8.563   6.283  0.1739  0.1099  0.0572
 1135YOPC   GL215770  13.468   8.223   6.408 -0.2057 -0.0388 -0.1827
 1135YOPC   C1A15771  13.512   8.564   6.724  0.1496 -0.0277  0.0056
 1135YOPC   D2A15772  13.594   8.313   7.053  0.0849 -0.1231 -0.2250
 1135YOPC   C3A15773  13.640   8.357   7.477  0.0783  0.0866 -0.2399
 1135YOPC   C4A15774  13.800   8.400   7.784 -0.2486 -0.1176  0.1626
 1135YOPC   C1B15775  13.356   7.996   6.622  0.0477 -0.1907 -0.2160
 1135YOPC   C2B15776  13.270   7.654   6.743  0.1061  0.2268 -0.1076
 1135YOPC   D3B15777  13.183   7.606   7.215 -0.2651  0.0314 -0.0150
 1135YOPC   C4B15778  13.349   7.521   7.556 -0.0238  0.2325  0.0323
 1136YOPC   NC315779  17.760   1.989   5.618  0.0895  0.3248  0.1733
 1136YOPC   PO415780  18.138   2.180   5.810  0.2893  0.2892  0.1629
 1136YOPC   GL115781  17.967   2.321   6.147  0.2640  0.1178  0.0232
 1136YOPC   GL215782  18.240   2.426   6.315 -0.0603 -0.1777 -0.1519
 1136YOPC   C1A15783  17.758   2.153   6.554 -0.2061 -0.1849 -0.0446
 1136YOPC   D2A15784  17.726   1.839   6.878  0.0542 -0.1046  0.0711
 1136YOPC   C3A15785  17.958   1.616   6.924  0.3948 -0.1230  0.2041
 1136YOPC   C4A15786  18.299   1.176   7.046 -0.0113 -0.2894  0.0040
 1136YOPC   C1B15787  18.519   2.523   6.622  0.1875  0.0024 -0.0385
 1136YOPC   C2B15788  18.644   2.540   7.033 -0.0314  0.1999 -0.1610
 1136YOPC   D3B15789  18.427   2.289   7.241  0.1367  0.1252  0.0641
 1136YOPC   C4B15790  18.103   2.004   7.224  0.1132  0.1415 -0.0066
 1137YOPC   NC315791   7.001  10.131   5.409 -0.3538 -0.2057 -0.0586
 1137YOPC   PO415792   6.867  10.296   5.762  0.0238 -0.6827 -0.3032
 1137YOPC   GL115793   6.970  10.166   6.214 -0.4169 -0.1605 -0.0263
 1137YOPC   GL215794   7.072   9.886   6.296  0.3019  0.0477 -0.0477
 1137YOPC   C1A15795   6.965  10.325   6.630 -0.2971  0.1201 -0.1337
 1137YOPC   D2A15796   7.018  10.418   7.074  0.1584 -0.1682 -0.1093
 1137YOPC   C3A15797   7.049  10.073   7.360  0.2097  0.2128 -0.1986
 1137YOPC   C4A15798   6.850  10.152   7.742 -0.0788  0.0052  0.1531
 1137YOPC   C1B15799   7.259   9.874   6.712  0.1016 -0.0225 -0.3341
 1137YOPC   C2B15800   7.468   9.915   7.134 -0.2006 -0.2066 -0.0297
 1137YOPC   D3B15801   7.316   9.614   7.559 -0.1296 -0.1541  0.0953
 1137YOPC   C4B15802   6.987   9.287   7.693 -0.0154  0.1152  0.0532
 1138YOPC   NC315803  17.168   2.644   5.897 -0.2643 -0.0364  0.5152
 1138YOPC   PO415804  17.147   3.128   5.636 -0.0429  0.0097  0.0140
 1138YOPC   GL115805  17.067   3.176   6.053  0.1251 -0.0800 -0.2433
 1138YOPC   GL215806  16.861   3.518   6.226 -0.0574 -0.1737 -0.0573
 1138YOPC   C1A15807  16.935   3.058   6.512  0.0055  0.1179  0.0543
 1138YOPC   D2A15808  16.708   3.092   6.871 -0.0999  0.0206 -0.0765
 1138YOPC   C3A15809  16.817   2.759   7.156  0.2142  0.2084 -0.0369
 1138YOPC   C4A15810  16.775   2.433   7.469  0.0061  0.0355 -0.1126
 1138YOPC   C1B15811  16.745   3.564   6.611  0.1757 -0.3314 -0.0879
 1138YOPC   C2B15812  16.796   3.560   7.043 -0.2133  0.1556  0.0751
 1138YOPC   D3B15813  17.059   3.552   7.359 -0.1410 -0.0171  0.1238
 1138YOPC   C4B15814  17.079   3.680   7.779 -0.2690  0.0233 -0.2854
 1139YOPC   NC315815   7.116   2.196   5.880  0.0807 -0.0951  0.0309
 1139YOPC   PO415816   7.619   2.093   5.981  0.1655 -0.1339 -0.1700
 1139YOPC   GL115817   7.722   1.868   6.340  0.2531 -0.2395  0.1674
 1139YOPC   GL215818   8.034   1.699   6.384 -0.0069  0.4214  0.0281
 1139YOPC   C1A15819   7.397   1.786   6.602 -0.0733 -0.1551  0.0821
 1139YOPC   D2A15820   7.360   1.805   7.052  0.0926 -0.1373  0.2545
 1139YOPC   C3A15821   7.718   1.672   7.347  0.2411 -0.1762 -0.1335
 1139YOPC   C4A15822   7.964   1.640   7.687 -0.0193  0.0419  0.0356
 1139YOPC   C1B15823   7.884   1.368   6.257  0.1425 -0.0956  0.0102
 1139YOPC   C2B15824   7.660   1.253   6.612  0.1373  0.4103 -0.0792
 1139YOPC   D3B15825   7.872   1.494   6.871  0.2197 -0.1024  0.0618
 1139YOPC   C4B15826   7.815   1.964   7.004 -0.1882 -0.1670 -0.0187
 1140YOPC   NC315827   9.274   0.214   5.319 -0.1515 -0.2971 -0.3013
 1140YOPC   PO415828   9.338   0.561   5.602 -0.0693  0.0762 -0.0208
 1140YOPC   GL115829   9.342   0.712   5.964 -0.0045 -0.0807 -0.0416
 1140YOPC   GL215830   9.131   0.781   6.046 -0.0433  0.0401  0.1261
 1140YOPC   C1A15831   9.492   0.553   6.428 -0.0386 -0.3546 -0.0676
 1140YOPC   D2A15832   9.928   0.480   6.488  0.1787 -0.2420 -0.2547
 1140YOPC   C3A15833   9.990   0.466   6.852  0.2529  0.0662  0.0529
 1140YOPC   C4A15834  10.170   0.075   7.004  0.0749 -0.0749 -0.0598
 1140YOPC   C1B15835   8.964   0.802   6.457 -0.1238  0.0817  0.2750
 1140YOPC   C2B15836   8.855   0.975   6.808  0.0335 -0.1186 -0.3013
 1140YOPC   D3B15837   9.139   1.182   7.030 -0.0007 -0.0564  0.0948
 1140YOPC   C4B15838   9.174   1.151   7.399 -0.0399  0.2331 -0.2229
 1141YOPC   NC315839   2.319  15.414   6.107 -0.1092  0.0371  0.2041
 1141YOPC   PO415840   2.759  15.503   6.004 -0.0519 -0.1835  0.0163
 1141YOPC   GL115841   3.030  15.721   6.328 -0.1288  0.3343  0.0820
 1141YOPC   GL215842   3.386  15.670   6.439 -0.0170  0.0085  0.0034
 1141YOPC   C1A15843   3.145  16.076   6.588 -0.2376 -0.1353  0.0361
 1141YOPC   D2A15844   3.155  16.142   6.945  0.2351  0.2780  0.0581
 1141YOPC   C3A15845   2.802  16.183   7.144 -0.1543 -0.1094  0.2344
 1141YOPC   C4A15846   2.486  15.995   7.402 -0.0303  0.1447  0.1915
 1141YOPC   C1B15847   3.511  15.789   6.821 -0.1194  0.1733  0.0586
 1141YOPC   C2B15848   3.607  15.972   7.148 -0.1349 -0.2377 -0.0863
 1141YOPC   D3B15849   3.395  15.936   7.394 -0.0172 -0.1617  0.1902
 1141YOPC   C4B15850   3.066  16.155   7.713 -0.0825 -0.0371  0.1448
 1142YOPC   NC315851  10.719  11.525   5.879 -0.0897 -0.0386 -0.2632
 1142YOPC   PO415852  10.444  11.684   6.237 -0.3126  0.1642 -0.1134
 1142YOPC   GL115853  10.316  11.629   6.625 -0.3774 -0.0011 -0.1818
 1142YOPC   GL215854  10.113  11.476   6.586  0.2104  0.1422 -0.2364
 1142YOPC   C1A15855  10.306  12.010   6.905  0.0950  0.1704  0.3234
 1142YOPC   D2A15856  10.404  12.306   7.205 -0.2739  0.1515 -0.1785
 1142YOPC   C3A15857  10.647  12.581   7.450 -0.0468  0.0444  0.0477
 1142YOPC   C4A15858  10.563  12.998   7.517  0.2050  0.2100  0.1934
 1142YOPC   C1B15859   9.874  11.798   6.786  0.0381  0.0624 -0.1341
 1142YOPC   C2B15860   9.992  11.824   7.245 -0.3078 -0.0077 -0.0938
 1142YOPC   D3B15861   9.988  12.155   7.565 -0.1443 -0.0154  0.0652
 1142YOPC   C4B15862  10.189  12.312   7.982 -0.0327  0.1513 -0.2309
 1143ERGO   ROH15863   6.046  11.865  10.296 -0.0092  0.2837  0.1153
 1143ERGO    R115864   5.927  11.866  10.040  0.1285  0.0923  0.0484
 1143ERGO    R215865   5.710  12.025   9.976  0.0343 -0.1000 -0.1307
 1143ERGO    R315866   5.872  12.109   9.774  0.0805 -0.0502 -0.0729
 1143ERGO    R415867   5.672  11.939   9.644  0.1078 -0.0104 -0.1626
 1143ERGO    R515868   5.889  11.919   9.629  0.1093 -0.0107 -0.1197
 1143ERGO    C115869   5.801  11.967   9.261  0.1940  0.0885 -0.1270
 1143ERGO    C215870   5.677  12.065   8.921  0.0331 -0.1233 -0.0250
 1144ERGO   ROH15871  11.973   0.615   6.749  0.4149  0.0467 -0.1644
 1144ERGO    R115872  12.062   0.628   7.018  0.3150 -0.0054 -0.1283
 1144ERGO    R215873  12.274   0.788   7.097  0.2431  0.0295 -0.0068
 1144ERGO    R315874  12.092   0.885   7.274  0.1536 -0.0702 -0.0432
 1144ERGO    R415875  12.332   0.836   7.434  0.1584  0.0787  0.0011
 1144ERGO    R515876  12.132   0.760   7.474  0.1940 -0.0391 -0.0307
 1144ERGO    C115877  12.195   0.954   7.797  0.0251  0.0138 -0.0284
 1144ERGO    C215878  12.435   1.058   8.009 -0.1561 -0.2556 -0.1918
 1145ERGO   ROH15879  13.541  13.493   6.356 -0.0026 -0.0302  0.0114
 1145ERGO    R115880  13.479  13.531   6.630  0.0302 -0.0353  0.0199
 1145ERGO    R215881  13.225  13.494   6.731  0.0319  0.0077  0.0416
 1145ERGO    R315882  13.352  13.327   6.903  0.0160 -0.0282  0.0184
 1145ERGO    R415883  13.114  13.417   7.049  0.0760  0.0496  0.0670
 1145ERGO    R515884  13.321  13.428   7.118  0.0937 -0.0137  0.0226
 1145ERGO    C115885  13.169  13.216   7.396  0.0869  0.0404  0.0599
 1145ERGO    C215886  13.098  13.110   7.618 -0.2145  0.0385 -0.0265
 1146ERGO   ROH15887   2.140  10.786   6.466  0.2850 -0.1297  0.0431
 1146ERGO    R115888   2.285  10.791   6.710  0.1392  0.0195  0.1287
 1146ERGO    R215889   2.227  10.968   6.913 -0.1160  0.0100  0.0676
 1146ERGO    R315890   2.210  10.742   7.063 -0.0320  0.0203  0.0936
 1146ERGO    R415891   2.333  10.939   7.241 -0.0926  0.0852  0.0669
 1146ERGO    R515892   2.410  10.741   7.193 -0.0254  0.1055  0.0859
 1146ERGO    C115893   2.378  10.709   7.572  0.0000  0.1385  0.0909
 1146ERGO    C215894   2.545  10.529   7.904 -0.1752  0.0045 -0.0274
 1147ERGO   ROH15895   7.862  10.695   9.692  0.0109  0.2641  0.0703
 1147ERGO    R115896   7.757  10.766   9.439 -0.1733  0.0211  0.0757
 1147ERGO    R215897   7.914  10.868   9.236 -0.4140  0.3809  0.0674
 1147ERGO    R315898   7.807  10.663   9.093  0.0416  0.1239  0.0731
 1147ERGO    R415899   7.897  10.856   8.891 -0.5156  0.4121  0.0703
 1147ERGO    R515900   7.697  10.770   8.909 -0.3092 -0.1043  0.1360
 1147ERGO    C115901   7.786  10.656   8.556 -0.1471  0.1888  0.0773
 1147ERGO    C215902   7.798  10.506   8.160  0.1151 -0.0417  0.0071
 1148ERGO   ROH15903   6.461  10.449   6.588  0.1254 -0.1500  0.0778
 1148ERGO    R115904   6.370  10.410   6.853  0.1492 -0.2435  0.0732
 1148ERGO    R215905   6.532  10.310   7.053  0.2526 -0.0466  0.0935
 1148ERGO    R315906   6.454  10.536   7.184 -0.0207 -0.1256  0.0728
 1148ERGO    R415907   6.576  10.368   7.391  0.1501  0.0271  0.0938
 1148ERGO    R515908   6.378  10.458   7.397  0.0459 -0.1999  0.0681
 1148ERGO    C115909   6.530  10.614   7.710 -0.1660 -0.0041  0.0746
 1148ERGO    C215910   6.759  10.634   7.970  0.2630 -0.2686 -0.2621
 1149ERGO   ROH15911  10.719   6.839   6.566  0.0646 -0.0231  0.0560
 1149ERGO    R115912  10.758   7.049   6.752 -0.0300 -0.0400  0.0951
 1149ERGO    R215913  10.691   7.025   7.019  0.0255 -0.1379  0.0990
 1149ERGO    R315914  10.949   7.098   7.058 -0.0113  0.0082  0.0767
 1149ERGO    R415915  10.801   7.236   7.269 -0.1194  0.1845 -0.1025
 1149ERGO    R515916  10.937   7.328   7.126 -0.1226  0.0833 -0.1764
 1149ERGO    C115917  11.108   7.428   7.451 -0.2385  0.5093 -0.2409
 1149ERGO    C215918  11.395   7.441   7.710 -0.0541 -0.3408  0.4418
 1150ERGO   ROH15919  10.888  14.354   6.388  0.1861  0.1356 -0.0063
 1150ERGO    R115920  10.834  14.254   6.647  0.1405  0.0410 -0.0524
 1150ERGO    R215921  11.033  14.163   6.816  0.1345  0.1928  0.0335
 1150ERGO    R315922  10.923  14.343   6.989 -0.1191  0.0628  0.0127
 1150ERGO    R415923  11.131  14.207   7.145 -0.0349  0.2524  0.0777
 1150ERGO    R515924  10.922  14.229   7.200 -0.0845  0.0314 -0.0012
 1150ERGO    C115925  11.086  14.401   7.498 -0.3715  0.1652  0.0838
 1150ERGO    C215926  11.149  14.531   7.789  0.0306 -0.0777 -0.0877
 1151ERGO   ROH15927   3.987   8.636   6.472  0.0189  0.1227 -0.0052
 1151ERGO    R115928   3.917   8.736   6.728 -0.1355 -0.0013  0.0032
 1151ERGO    R215929   3.906   8.575   6.953  0.0801 -0.0448 -0.0118
 1151ERGO    R315930   4.076   8.762   7.054 -0.1833  0.1874  0.0119
 1151ERGO    R415931   3.983   8.613   7.288  0.0104  0.0417 -0.0057
 1151ERGO    R515932   3.976   8.828   7.261 -0.2881  0.0353  0.0096
 1151ERGO    C115933   4.188   8.810   7.577 -0.2775  0.3101  0.0200
 1151ERGO    C215934   4.285   8.753   8.007  0.3051  0.0646 -0.1042
 1152ERGO   ROH15935   1.029  10.921   6.508 -0.0604  0.0942  0.1072
 1152ERGO    R115936   0.849  10.881   6.723 -0.0101  0.0289  0.1378
 1152ERGO    R215937   0.784  10.630   6.817 -0.0103 -0.0026  0.0596
 1152ERGO    R315938   0.864  10.733   7.055  0.0614 -0.0998  0.0776
 1152ERGO    R415939   0.720  10.486   7.125 -0.1056 -0.0129  0.0352
 1152ERGO    R515940   0.682  10.686   7.204  0.0313 -0.0016  0.0704
 1152ERGO    C115941   0.758  10.499   7.528 -0.0937 -0.1100  0.0378
 1152ERGO    C215942   0.774  10.392   7.821  0.1037 -0.3391 -0.1557
 1153ERGO   ROH15943   8.830   9.098   6.358  0.1527  0.0250  0.0038
 1153ERGO    R115944   8.733   9.090   6.624  0.0556 -0.0537 -0.0353
 1153ERGO    R215945   8.467   9.047   6.683  0.0581 -0.1637 -0.1457
 1153ERGO    R315946   8.567   8.847   6.838  0.0672 -0.1485 -0.1284
 1153ERGO    R415947   8.372   8.984   7.010  0.2013  0.0057 -0.0681
 1153ERGO    R515948   8.582   8.943   7.057  0.2230 -0.0599 -0.1672
 1153ERGO    C115949   8.411   8.759   7.345  0.2931  0.1186 -0.0067
 1153ERGO    C215950   8.121   8.651   7.505 -0.1495  0.0201  0.2209
 1154ERGO   ROH15951   4.776  15.128  10.163 -0.0293 -0.2074 -0.1505
 1154ERGO    R115952   4.694  15.036   9.908 -0.0706 -0.0495 -0.1969
 1154ERGO    R215953   4.509  15.172   9.753 -0.1337  0.0272 -0.0684
 1154ERGO    R315954   4.706  15.159   9.566 -0.1679  0.1896 -0.1147
 1154ERGO    R415955   4.456  15.165   9.412 -0.2126 -0.2460 -0.0524
 1154ERGO    R515956   4.616  15.017   9.395 -0.0154 -0.0337 -0.0080
 1154ERGO    C115957   4.610  15.149   9.037 -0.2907 -0.2527 -0.0865
 1154ERGO    C215958   4.507  15.027   8.684 -0.0396 -0.0137 -0.0875
 1155ERGO   ROH15959   5.283   4.954   6.326 -0.0114 -0.1012  0.0194
 1155ERGO    R115960   5.177   5.026   6.579 -0.1847 -0.0343 -0.0690
 1155ERGO    R215961   4.934   4.932   6.670 -0.1669 -0.1627 -0.1284
 1155ERGO    R315962   5.081   4.853   6.885 -0.2015  0.0646 -0.0205
 1155ERGO    R415963   4.813   4.902   6.993 -0.2647 -0.0442 -0.1548
 1155ERGO    R515964   5.000   4.988   7.065 -0.3541  0.1181 -0.1342
 1155ERGO    C115965   4.881   4.811   7.382 -0.3541  0.2382 -0.0687
 1155ERGO    C215966   4.748   4.842   7.672  0.1372  0.1141 -0.0369
 1156ERGO   ROH15967  11.594  10.867   6.615  0.0322  0.0478  0.0349
 1156ERGO    R115968  11.518  10.819   6.884  0.0724  0.0315  0.0436
 1156ERGO    R215969  11.693  10.847   7.095  0.0738  0.1311  0.0301
 1156ERGO    R315970  11.500  11.012   7.192  0.0009  0.0467  0.0300
 1156ERGO    R415971  11.716  11.025   7.390  0.0088  0.1675  0.0133
 1156ERGO    R515972  11.506  10.978   7.429  0.0340  0.0700  0.0323
 1156ERGO    C115973  11.548  11.285   7.652 -0.0974  0.1096  0.0032
 1156ERGO    C215974  11.695  11.520   7.749 -0.0270  0.0078  0.4191
 1157ERGO   ROH15975   8.464  11.740   6.362 -0.0790 -0.1188  0.0511
 1157ERGO    R115976   8.410  11.695   6.637  0.1089  0.0448  0.1167
 1157ERGO    R215977   8.529  11.842   6.838  0.0041  0.3855 -0.0679
 1157ERGO    R315978   8.272  11.887   6.913 -0.0261  0.1004  0.0138
 1157ERGO    R415979   8.422  11.878   7.164  0.1205  0.5013 -0.0407
 1157ERGO    R515980   8.245  11.760   7.114  0.2454  0.2179  0.1337
 1157ERGO    C115981   8.117  11.940   7.425  0.1600  0.3010  0.0518
 1157ERGO    C215982   7.954  12.022   7.687  0.3754  0.0540 -0.1689
 1158ERGO   ROH15983   0.482   0.152   9.991  0.4376 -0.1321 -0.0623
 1158ERGO    R115984   0.552   0.072   9.728  0.1725 -0.1190 -0.1405
 1158ERGO    R215985   0.372  -0.045   9.555 -0.0653  0.0992 -0.0471
 1158ERGO    R315986   0.449   0.157   9.390  0.0003  0.0792 -0.0409
 1158ERGO    R415987   0.291  -0.021   9.219  0.0077  0.0961 -0.0650
 1158ERGO    R515988   0.493   0.049   9.180  0.0267  0.0624 -0.0268
 1158ERGO    C115989   0.316   0.182   8.870  0.1117  0.0753 -0.0698
 1158ERGO    C215990   0.354   0.144   8.587 -0.1242  0.1540  0.0413
 1159ERGO   ROH15991  16.012   8.112   6.377  0.0022 -0.0807 -0.0872
 1159ERGO    R115992  15.978   8.133   6.658  0.0215 -0.0987 -0.0833
 1159ERGO    R215993  16.149   8.279   6.818  0.0013 -0.0653 -0.0926
 1159ERGO    R315994  15.918   8.400   6.898 -0.0192 -0.1210 -0.0679
 1159ERGO    R415995  16.057   8.330   7.147  0.2002  0.2330 -0.0792
 1159ERGO    R515996  15.852   8.277   7.093  0.1913  0.0445  0.1149
 1159ERGO    C115997  15.787   8.472   7.414  0.2966  0.3546 -0.0483
 1159ERGO    C215998  15.752   8.671   7.585 -0.1723 -0.1146 -0.0105
 1160ERGO   ROH15999   9.256  11.525   9.938 -0.0565  0.0035  0.1303
 1160ERGO    R116000   9.162  11.561   9.673 -0.0570 -0.1002  0.1165
 1160ERGO    R216001   9.191  11.800   9.536 -0.1458 -0.1250  0.0608
 1160ERGO    R316002   9.308  11.641   9.349 -0.0735 -0.1224  0.1026
 1160ERGO    R416003   9.179  11.854   9.195  0.0004 -0.1031  0.0580
 1160ERGO    R516004   9.153  11.640   9.167  0.0009 -0.1035  0.0359
 1160ERGO    C116005   9.282  11.737   8.821  0.1536 -0.0878  0.0956
 1160ERGO    C216006   9.229  11.672   8.579 -0.1494  0.1141 -0.0230
 1161ERGO   ROH16007  11.474   2.829   6.785 -0.0086  0.0181  0.0015
 1161ERGO    R116008  11.537   2.697   7.027 -0.0453  0.1163  0.0645
 1161ERGO    R216009  11.796   2.676   7.122 -0.0450  0.0236  0.0327
 1161ERGO    R316010  11.689   2.788   7.346  0.0557  0.2056 -0.0067
 1161ERGO    R416011  11.926   2.646   7.441 -0.1528 -0.1262  0.0639
 1161ERGO    R516012  11.723   2.624   7.517 -0.2111  0.1677  0.0211
 1161ERGO    C116013  11.901   2.733   7.836 -0.1211 -0.0426  0.0452
 1161ERGO    C216014  11.826   2.880   8.257  0.0435  0.0318 -0.0416
 1162ERGO   ROH16015  11.423   5.333   6.630 -0.0856  0.2465 -0.0368
 1162ERGO    R116016  11.358   5.465   6.872  0.0278  0.2231  0.0074
 1162ERGO    R216017  11.185   5.681   6.882  0.0332  0.2231  0.1094
 1162ERGO    R316018  11.056   5.527   7.065  0.1177  0.2058  0.1551
 1162ERGO    R416019  10.989   5.803   7.139 -0.0952  0.1905  0.0274
 1162ERGO    R516020  11.073   5.651   7.270 -0.0026  0.3073  0.1055
 1162ERGO    C116021  10.753   5.730   7.460 -0.0904  0.1551  0.0226
 1162ERGO    C216022  10.641   5.587   7.671 -0.0954  0.2186 -0.0887
 1163ERGO   ROH16023   9.318  12.169   6.438  0.3225 -0.1058  0.2716
 1163ERGO    R116024   9.370  12.266   6.698  0.1472 -0.0130  0.2732
 1163ERGO    R216025   9.267  12.505   6.792 -0.0289 -0.0480  0.1669
 1163ERGO    R316026   9.175  12.348   6.994 -0.0365 -0.0488  0.1637
 1163ERGO    R416027   9.101  12.622   7.071  0.0354 -0.0375  0.2016
 1163ERGO    R516028   9.213  12.478   7.192  0.0207 -0.0762  0.1724
 1163ERGO    C116029   8.917  12.543   7.424  0.0657 -0.0321  0.2188
 1163ERGO    C216030   8.729  12.694   7.584 -0.1964 -0.1440  0.3867
 1164ERGO   ROH16031  11.099  12.809   6.553  0.2111  0.0779  0.0535
 1164ERGO    R116032  11.211  12.744   6.805  0.1357  0.0987  0.0918
 1164ERGO    R216033  11.213  12.922   7.016 -0.1874  0.0127  0.1665
 1164ERGO    R316034  11.093  12.717   7.148 -0.0346 -0.1782  0.0154
 1164ERGO    R416035  11.209  12.883   7.360 -0.4414 -0.0475  0.1588
 1164ERGO    R516036  11.240  12.669   7.331 -0.1258 -0.0105  0.1410
 1164ERGO    C116037  11.093  12.668   7.683 -0.4459 -0.2618  0.0126
 1164ERGO    C216038  11.040  12.907   8.019  0.0235  0.0279 -0.0051
 1165ERGO   ROH16039  15.256   0.720   6.405 -0.2309 -0.0984 -0.1280
 1165ERGO    R116040  15.137   0.818   6.642 -0.0810 -0.1012 -0.0507
 1165ERGO    R216041  14.894   0.949   6.644 -0.0276 -0.0044  0.0914
 1165ERGO    R316042  14.829   0.760   6.827 -0.0188 -0.0165  0.0821
 1165ERGO    R416043  14.694   1.002   6.920 -0.0401 -0.0259  0.0866
 1165ERGO    R516044  14.829   0.876   7.036 -0.0329 -0.0216  0.0867
 1165ERGO    C116045  14.516   0.855   7.253 -0.0393 -0.0498  0.0750
 1165ERGO    C216046  14.198   0.782   7.326 -0.0080  0.1916  0.0167
 1166ERGO   ROH16047  17.478   5.567  10.067  0.2450  0.1561 -0.1745
 1166ERGO    R116048  17.545   5.582   9.793  0.0572 -0.0612 -0.2340
 1166ERGO    R216049  17.558   5.359   9.631 -0.1541 -0.1767 -0.0892
 1166ERGO    R316050  17.384   5.500   9.477 -0.2012 -0.2105 -0.0688
 1166ERGO    R416051  17.543   5.344   9.286 -0.1713 -0.1670 -0.0897
 1166ERGO    R516052  17.511   5.559   9.283 -0.2250 -0.1700 -0.0761
 1166ERGO    C116053  17.370   5.468   8.940 -0.2256 -0.1931 -0.0709
 1166ERGO    C216054  17.484   5.412   8.629 -0.0825 -0.0770 -0.1929
 1167ERGO   ROH16055   3.160   7.324  10.203 -0.1088 -0.0224 -0.0167
 1167ERGO    R116056   3.222   7.469   9.968 -0.0773  0.0337  0.0255
 1167ERGO    R216057   3.362   7.357   9.757  0.0187  0.1063  0.0475
 1167ERGO    R316058   3.148   7.440   9.613  0.0375  0.0697 -0.0011
 1167ERGO    R416059   3.361   7.407   9.415  0.0239 -0.0961  0.0166
 1167ERGO    R516060   3.240   7.585   9.447  0.0663 -0.0511 -0.0891
 1167ERGO    C116061   3.158   7.515   9.081  0.0445 -0.2483 -0.0470
 1167ERGO    C216062   3.247   7.562   8.774 -0.0550 -0.2023 -0.2634
 1168ERGO   ROH16063   9.908   8.977   6.070  0.0497 -0.0485 -0.1220
 1168ERGO    R116064   9.866   9.220   6.210  0.2968  0.0518 -0.2198
 1168ERGO    R216065   9.732   9.232   6.451  0.0084  0.3218 -0.3947
 1168ERGO    R316066   9.958   9.358   6.533  0.1311 -0.0522 -0.1244
 1168ERGO    R416067   9.761   9.416   6.742 -0.0638  0.3221 -0.3858
 1168ERGO    R516068   9.880   9.562   6.632  0.3402  0.1075 -0.2660
 1168ERGO    C116069   9.990   9.642   6.988  0.0091 -0.0289 -0.1268
 1168ERGO    C216070  10.057   9.575   7.321 -0.0580  0.1119  0.1723
 1169ERGO   ROH16071   8.573   7.585   6.154  0.1105 -0.1383  0.0967
 1169ERGO    R116072   8.503   7.650   6.420 -0.0644  0.0395  0.0104
 1169ERGO    R216073   8.624   7.533   6.639 -0.4063 -0.0331  0.1724
 1169ERGO    R316074   8.670   7.792   6.711 -0.1644 -0.0592  0.1161
 1169ERGO    R416075   8.592   7.658   6.960 -0.2966  0.0730  0.1420
 1169ERGO    R516076   8.503   7.838   6.875 -0.1235  0.1378  0.1008
 1169ERGO    C116077   8.617   7.973   7.214 -0.0058  0.1103  0.0715
 1169ERGO    C216078   8.783   8.188   7.550  0.0446 -0.1054 -0.2274
 1170ERGO   ROH16079   8.063  14.384   9.915 -0.1284 -0.1395  0.0766
 1170ERGO    R116080   7.941  14.353   9.662 -0.1238 -0.0772  0.0660
 1170ERGO    R216081   7.878  14.568   9.499 -0.0661 -0.0394  0.0895
 1170ERGO    R316082   8.025  14.430   9.316 -0.0882 -0.0503  0.0812
 1170ERGO    R416083   7.819  14.567   9.159 -0.0327  0.0318  0.0839
 1170ERGO    R516084   7.864  14.354   9.156 -0.0927  0.0212  0.0534
 1170ERGO    C116085   7.922  14.437   8.789 -0.0340  0.0631  0.0728
 1170ERGO    C216086   7.851  14.674   8.494 -0.1062 -0.4134 -0.1627
 1171ERGO   ROH16087   2.110   2.762   6.631  0.0586 -0.1329  0.0788
 1171ERGO    R116088   1.878   2.646   6.746  0.0372 -0.1462  0.0213
 1171ERGO    R216089   1.877   2.392   6.853  0.0786 -0.0723  0.1936
 1171ERGO    R316090   1.782   2.519   7.073 -0.1057  0.0386  0.0533
 1171ERGO    R416091   1.725   2.236   7.121  0.2456  0.0041  0.3354
 1171ERGO    R516092   1.582   2.400   7.129  0.0338 -0.1607  0.1491
 1171ERGO    C116093   1.547   2.266   7.484  0.1698  0.1528  0.2863
 1171ERGO    C216094   1.363   2.155   7.759  0.0309 -0.2171 -0.1592
 1172ERGO   ROH16095  10.166   8.996  10.063 -0.2505 -0.1315 -0.0697
 1172ERGO    R116096  10.076   9.051   9.800 -0.1779  0.0686 -0.0537
 1172ERGO    R216097  10.154   9.276   9.660  0.2210 -0.0501 -0.0293
 1172ERGO    R316098  10.227   9.094   9.472 -0.1269 -0.1639 -0.0632
 1172ERGO    R416099  10.104   9.313   9.320  0.5383  0.2535 -0.0494
 1172ERGO    R516100  10.051   9.102   9.311 -0.0155  0.3809 -0.1827
 1172ERGO    C116101  10.144   9.163   8.946  0.3964  0.3235 -0.0930
 1172ERGO    C216102  10.174   9.269   8.647  0.1614  0.1201 -0.0609
 1173ERGO   ROH16103   6.697  17.029   6.314  0.1020 -0.0845  0.1563
 1173ERGO    R116104   6.777  17.017   6.586  0.1628  0.0136  0.1428
 1173ERGO    R216105   6.918  17.221   6.708  0.0139  0.1471  0.0923
 1173ERGO    R316106   6.715  17.210   6.888  0.0564 -0.0038  0.1330
 1173ERGO    R416107   6.954  17.268   7.049  0.0156  0.4292  0.0558
 1173ERGO    R516108   6.812  17.105   7.081  0.2358  0.2547  0.1906
 1173ERGO    C116109   6.783  17.285   7.416  0.0564  0.4517  0.0728
 1173ERGO    C216110   6.774  17.466   7.723 -0.2166 -0.3566 -0.5659
 1174ERGO   ROH16111   1.699   7.136   6.414  0.0386 -0.3393  0.0152
 1174ERGO    R116112   1.502   7.113   6.616  0.0722 -0.2221  0.0618
 1174ERGO    R216113   1.564   7.108   6.885  0.1109  0.0182  0.0590
 1174ERGO    R316114   1.386   7.314   6.896  0.0600 -0.0162 -0.0884
 1174ERGO    R416115   1.395   7.209   7.170  0.0829  0.1786 -0.0131
 1174ERGO    R516116   1.217   7.239   7.048  0.0767  0.0491 -0.0370
 1174ERGO    C116117   1.131   7.461   7.346  0.0188  0.2397 -0.1934
 1174ERGO    C216118   0.952   7.479   7.568 -0.0112 -0.0366  0.1861
 1175ERGO   ROH16119  16.797   7.684   9.910 -0.2608  0.2548 -0.1141
 1175ERGO    R116120  16.732   7.700   9.635 -0.0744  0.3441 -0.1539
 1175ERGO    R216121  16.901   7.815   9.449  0.2079  0.1005 -0.0555
 1175ERGO    R316122  16.874   7.576   9.323 -0.0624  0.1340 -0.0670
 1175ERGO    R416123  16.912   7.769   9.106  0.1814  0.1034 -0.0569
 1175ERGO    R516124  16.749   7.626   9.125  0.0095  0.2904 -0.0754
 1175ERGO    C116125  16.893   7.517   8.789 -0.0879  0.1366 -0.0686
 1175ERGO    C216126  16.852   7.573   8.579  0.1164  0.1327 -0.0342
 1176ERGO   ROH16127   5.124  10.199   9.892 -0.3230  0.1373 -0.0074
 1176ERGO    R116128   5.138  10.082   9.634 -0.1294  0.1582 -0.0054
 1176ERGO    R216129   4.988  10.174   9.421 -0.0738  0.0798 -0.0653
 1176ERGO    R316130   5.231  10.191   9.300 -0.0266  0.2219  0.0404
 1176ERGO    R416131   5.037  10.233   9.084  0.0223  0.0178 -0.0649
 1176ERGO    R516132   5.198  10.087   9.086  0.1368  0.1289  0.0512
 1176ERGO    C116133   5.294  10.284   8.774  0.1226  0.1152  0.0345
 1176ERGO    C216134   5.239  10.195   8.402  0.0471 -0.0233 -0.1673
 1177ERGO   ROH16135   0.087   6.621   6.420  0.0461 -0.0554  0.0655
 1177ERGO    R116136   0.053   6.453   6.645  0.0532 -0.1678 -0.0161
 1177ERGO    R216137   0.266   6.357   6.792  0.0499 -0.0849  0.0435
 1177ERGO    R316138   0.131   6.468   7.000 -0.1203 -0.2565  0.0268
 1177ERGO    R416139   0.270   6.237   7.117  0.4122  0.0853  0.1077
 1177ERGO    R516140   0.056   6.281   7.129  0.3149 -0.3559  0.1514
 1177ERGO    C116141   0.144   6.272   7.500  0.4635  0.0233  0.1296
 1177ERGO    C216142   0.050   6.089   7.798  0.3428  0.0489 -0.4136
 1178ERGO   ROH16143   7.604   7.803   6.353 -0.1177  0.1645  0.0961
 1178ERGO    R116144   7.597   7.937   6.602 -0.2654  0.2043  0.0718
 1178ERGO    R216145   7.405   7.886   6.794 -0.0712 -0.1594  0.1827
 1178ERGO    R316146   7.621   7.844   6.953  0.1098  0.3135  0.0792
 1178ERGO    R416147   7.393   7.864   7.138  0.1172 -0.3779  0.1773
 1178ERGO    R516148   7.578   7.979   7.147 -0.1717  0.1052  0.1663
 1178ERGO    C116149   7.589   7.811   7.489  0.3968 -0.0611  0.0772
 1178ERGO    C216150   7.398   7.661   7.695  0.2051 -0.2057  0.0676
 1179ERGO   ROH16151  11.789   7.486   6.549 -0.1549 -0.2585  0.1832
 1179ERGO    R116152  11.606   7.498   6.765 -0.0219 -0.1855  0.2932
 1179ERGO    R216153  11.685   7.550   7.024  0.1096  0.1481  0.1883
 1179ERGO    R316154  11.499   7.747   7.007 -0.0641 -0.0197  0.1078
 1179ERGO    R416155  11.510   7.681   7.292  0.2072  0.2916  0.1836
 1179ERGO    R516156  11.332   7.685   7.167  0.1041  0.0100  0.3037
 1179ERGO    C116157  11.233   7.941   7.432  0.1012  0.2176  0.1054
 1179ERGO    C216158  11.029   8.039   7.708  0.2318 -0.1554  0.0564
 1180ERGO   ROH16159  12.534   6.192   6.394 -0.0173 -0.2901 -0.0489
 1180ERGO    R116160  12.491   6.076   6.649  0.1145 -0.2025  0.0147
 1180ERGO    R216161  12.691   6.053   6.838  0.1293  0.1871  0.0544
 1180ERGO    R316162  12.513   6.184   6.996 -0.0741  0.0353 -0.0448
 1180ERGO    R416163  12.707   6.072   7.183 -0.1473  0.1024  0.0746
 1180ERGO    R516164  12.491   6.046   7.190 -0.1400 -0.0323 -0.0988
 1180ERGO    C116165  12.550   6.206   7.531 -0.4995 -0.0895 -0.0068
 1180ERGO    C216166  12.652   6.314   7.816 -0.1238 -0.0566  0.0385
 1181ERGO   ROH16167   2.663  13.891   6.712  0.1391  0.2977 -0.0388
 1181ERGO    R116168   2.592  13.767   6.957  0.1433  0.1556 -0.1073
 1181ERGO    R216169   2.747  13.791   7.186  0.0977  0.1059 -0.0666
 1181ERGO    R316170   2.513  13.877   7.295  0.0465 -0.0304 -0.0695
 1181ERGO    R416171   2.647  13.731   7.511  0.0540 -0.0771 -0.1133
 1181ERGO    R516172   2.445  13.697   7.438  0.0833 -0.1172 -0.1645
 1181ERGO    C116173   2.369  13.777   7.803 -0.0194 -0.3118 -0.1432
 1181ERGO    C216174   2.330  13.621   8.148  0.1559 -0.1966  0.1800
 1182ERGO   ROH16175   5.160   6.782   6.591  0.0946  0.2237 -0.0460
 1182ERGO    R116176   5.154   6.828   6.870  0.0917  0.0707 -0.0190
 1182ERGO    R216177   4.918   6.848   7.012  0.0786  0.2753 -0.0586
 1182ERGO    R316178   5.031   6.653   7.164 -0.1867  0.0443 -0.1488
 1182ERGO    R416179   4.866   6.808   7.351  0.1448  0.2764 -0.0487
 1182ERGO    R516180   5.078   6.762   7.373  0.0769 -0.0858 -0.1397
 1182ERGO    C116181   4.942   6.603   7.692 -0.0658  0.0602 -0.1276
 1182ERGO    C216182   4.873   6.661   8.031 -0.0258  0.2376  0.0166
 1183ERGO   ROH16183   3.120  10.163   6.400 -0.0605  0.1619 -0.1390
 1183ERGO    R116184   3.205  10.131   6.668 -0.0507  0.1269 -0.1460
 1183ERGO    R216185   3.050  10.208   6.884  0.0099  0.2183 -0.1329
 1183ERGO    R316186   3.090   9.951   6.963 -0.1188  0.1987 -0.1286
 1183ERGO    R416187   2.903  10.061   7.160 -0.0755  0.2892 -0.1405
 1183ERGO    R516188   3.092   9.962   7.202 -0.1263  0.1978 -0.1294
 1183ERGO    C116189   2.854   9.734   7.395 -0.2461  0.3121 -0.1408
 1183ERGO    C216190   2.861   9.485   7.560 -0.0303 -0.0026 -0.0418
 1184ERGO   ROH16191  16.227   0.881   6.382  0.1724  0.0101 -0.0511
 1184ERGO    R116192  16.339   1.073   6.557 -0.0612  0.1142 -0.0095
 1184ERGO    R216193  16.207   1.166   6.781 -0.1072 -0.2313  0.1202
 1184ERGO    R316194  16.435   1.088   6.908  0.1029  0.0803 -0.0542
 1184ERGO    R416195  16.287   1.240   7.109 -0.0220 -0.2690  0.1078
 1184ERGO    R516196  16.493   1.274   7.046 -0.1161  0.1025  0.0009
 1184ERGO    C116197  16.547   1.211   7.419  0.2249  0.0016 -0.0632
 1184ERGO    C216198  16.560   1.368   7.732 -0.0872 -0.1465  0.1490
 1185ERGO   ROH16199  16.027   0.169   6.452 -0.0962  0.2699 -0.2868
 1185ERGO    R116200  16.123   0.281   6.693 -0.0313  0.0754 -0.2193
 1185ERGO    R216201  16.164   0.552   6.725  0.1034  0.0405 -0.0529
 1185ERGO    R316202  16.002   0.519   6.941  0.0931 -0.0159 -0.0700
 1185ERGO    R416203  16.145   0.770   6.993  0.0347  0.0037 -0.0284
 1185ERGO    R516204  16.132   0.597   7.126  0.0587 -0.0113 -0.0504
 1185ERGO    C116205  15.981   0.865   7.352 -0.0150 -0.0707 -0.0301
 1185ERGO    C216206  16.041   1.207   7.481  0.0827 -0.0537  0.0036
 1186ERGO   ROH16207  12.329   8.726  10.074  0.0939  0.0245 -0.0596
 1186ERGO    R116208  12.401   8.641   9.814  0.0827 -0.0394 -0.0431
 1186ERGO    R216209  12.217   8.618   9.609  0.0526 -0.1903 -0.0066
 1186ERGO    R316210  12.391   8.781   9.478 -0.0377 -0.1618 -0.0898
 1186ERGO    R416211  12.297   8.593   9.274  0.0765 -0.3148  0.0086
 1186ERGO    R516212  12.505   8.637   9.325  0.0468 -0.1722 -0.0119
 1186ERGO    C116213  12.507   8.732   8.956  0.0056 -0.3607 -0.0606
 1186ERGO    C216214  12.554   8.646   8.664 -0.0951 -0.2588 -0.0444
 1187ERGO   ROH16215   2.371  17.943   9.970 -0.0237  0.0226 -0.0841
 1187ERGO    R116216   2.333  18.041   9.707  0.0816  0.0549 -0.0893
 1187ERGO    R216217   2.489  17.960   9.494  0.0061 -0.1168 -0.0897
 1187ERGO    R316218   2.248  17.901   9.382 -0.0587  0.1259 -0.0825
 1187ERGO    R416219   2.424  17.959   9.154  0.0210 -0.1836 -0.0914
 1187ERGO    R516220   2.230  18.051   9.196  0.1312  0.0657 -0.1454
 1187ERGO    C116221   2.160  17.903   8.852 -0.0312  0.0053 -0.0856
 1187ERGO    C216222   2.141  17.885   8.514  0.0738 -0.0724  0.3239
 1188ERGO   ROH16223  15.507   9.569   6.681  0.0783 -0.2290 -0.0487
 1188ERGO    R116224  15.361   9.457   6.897 -0.0097 -0.0424 -0.0110
 1188ERGO    R216225  15.453   9.464   7.158  0.0584 -0.1414 -0.0379
 1188ERGO    R316226  15.211   9.579   7.205  0.2044  0.1538  0.0205
 1188ERGO    R416227  15.292   9.466   7.463 -0.0608 -0.3575 -0.0966
 1188ERGO    R516228  15.104   9.430   7.359 -0.0813  0.0732 -0.2397
 1188ERGO    C116229  14.971   9.574   7.686  0.0068 -0.2062 -0.0759
 1188ERGO    C216230  15.023   9.506   7.976 -0.0702 -0.0257  0.2947
 1189ERGO   ROH16231   8.777   1.126   6.100  0.0867 -0.0920 -0.0095
 1189ERGO    R116232   8.635   1.277   6.292  0.1981  0.0118 -0.0083
 1189ERGO    R216233   8.377   1.217   6.368  0.1268  0.2453 -0.0621
 1189ERGO    R316234   8.484   1.216   6.618  0.0844  0.1014 -0.0432
 1189ERGO    R416235   8.196   1.183   6.661  0.0264  0.4739 -0.0953
 1189ERGO    R516236   8.324   1.334   6.752  0.2096  0.3094 -0.0704
 1189ERGO    C116237   8.192   1.163   7.066 -0.0718  0.4720 -0.0969
 1189ERGO    C216238   8.106   1.204   7.442  0.1650  0.0248  0.1921
 1190ERGO   ROH16239  17.625  16.289   6.467  0.1896 -0.2168  0.0126
 1190ERGO    R116240  17.739  16.354   6.718  0.2879 -0.1809 -0.0405
 1190ERGO    R216241  17.589  16.373   6.950  0.3223  0.1748 -0.0403
 1190ERGO    R316242  17.770  16.193   7.043  0.1033  0.0074  0.0723
 1190ERGO    R416243  17.650  16.309   7.284  0.1616  0.2204 -0.0014
 1190ERGO    R516244  17.862  16.297   7.238  0.1633 -0.0266  0.0611
 1190ERGO    C116245  17.856  16.103   7.566 -0.1377  0.0898  0.1269
 1190ERGO    C216246  17.780  15.937   7.861 -0.0377  0.0735 -0.2304
 1191ERGO   ROH16247  15.004  12.419   6.761 -0.1026 -0.2803  0.0896
 1191ERGO    R116248  14.865  12.422   7.007 -0.0772 -0.1763  0.1041
 1191ERGO    R216249  14.764  12.655   7.118  0.0991 -0.0978  0.1138
 1191ERGO    R316250  14.531  12.515   7.121 -0.0005  0.0673  0.1325
 1191ERGO    R416251  14.493  12.725   7.321  0.1598  0.0890  0.1306
 1191ERGO    R516252  14.466  12.511   7.351  0.0108  0.1121  0.1328
 1191ERGO    C116253  14.117  12.635   7.441  0.1017  0.3529  0.1581
 1191ERGO    C216254  13.880  12.827   7.557 -0.0777 -0.0409 -0.2190
 1192ERGO   ROH16255  12.414  10.068  10.004 -0.2951 -0.0070 -0.1091
 1192ERGO    R116256  12.336  10.137   9.741 -0.1094  0.0730 -0.1464
 1192ERGO    R216257  12.509  10.254   9.559  0.0616  0.0057 -0.0382
 1192ERGO    R316258  12.434  10.045   9.403  0.0338  0.0633 -0.1007
 1192ERGO    R416259  12.577  10.226   9.222  0.1407  0.0385 -0.0244
 1192ERGO    R516260  12.377  10.145   9.193  0.1271  0.1156 -0.0959
 1192ERGO    C116261  12.547  10.013   8.878  0.1607  0.1119 -0.0749
 1192ERGO    C216262  12.683   9.906   8.550  0.1418 -0.0552 -0.1910
 1193ERGO   ROH16263   9.594   7.702   9.738 -0.0455  0.0629  0.1086
 1193ERGO    R116264   9.574   7.607   9.472  0.0011  0.0464  0.1117
 1193ERGO    R216265   9.425   7.735   9.277  0.1169  0.0891  0.0535
 1193ERGO    R316266   9.659   7.730   9.140  0.1584 -0.0197  0.1255
 1193ERGO    R416267   9.452   7.750   8.933  0.2203 -0.0452  0.0546
 1193ERGO    R516268   9.611   7.601   8.944  0.1829 -0.0824  0.1579
 1193ERGO    C116269   9.688   7.754   8.604  0.3193 -0.2254  0.1227
 1193ERGO    C216270   9.688   7.763   8.307  0.1171 -0.0632  0.0621
 1194ERGO   ROH16271   3.104  16.186  10.077  0.1144  0.1032 -0.1323
 1194ERGO    R116272   3.071  16.312   9.826  0.2238  0.1101 -0.1432
 1194ERGO    R216273   3.259  16.295   9.624  0.1998 -0.0880 -0.1465
 1194ERGO    R316274   3.047  16.207   9.478  0.1108  0.0981 -0.1330
 1194ERGO    R416275   3.255  16.266   9.280  0.1726 -0.1258 -0.1437
 1194ERGO    R516276   3.051  16.343   9.281  0.2424  0.0739 -0.1506
 1194ERGO    C116277   3.054  16.167   8.942  0.0731  0.0268 -0.1293
 1194ERGO    C216278   2.917  16.342   8.515  0.0652  0.0307  0.0993
 1195ERGO   ROH16279  15.788   3.577   6.193 -0.1419 -0.1312  0.0418
 1195ERGO    R116280  15.814   3.695   6.449 -0.0521 -0.0227 -0.0142
 1195ERGO    R216281  15.604   3.712   6.628  0.0009  0.0671  0.0532
 1195ERGO    R316282  15.778   3.587   6.795  0.0493  0.1227  0.0410
 1195ERGO    R416283  15.577   3.706   6.972  0.0473  0.0746  0.0551
 1195ERGO    R516284  15.793   3.732   6.984  0.0352  0.1297  0.0302
 1195ERGO    C116285  15.726   3.585   7.330  0.1198  0.1311  0.0448
 1195ERGO    C216286  15.640   3.467   7.554  0.1508 -0.1040  0.1392
 1196ERGO   ROH16287   1.318   4.580   6.197  0.1093 -0.1214  0.0527
 1196ERGO    R116288   1.349   4.448   6.445  0.0531 -0.1003  0.0710
 1196ERGO    R216289   1.476   4.566   6.661  0.0197 -0.0883  0.0852
 1196ERGO    R316290   1.244   4.506   6.789 -0.0094 -0.0611  0.0455
 1196ERGO    R416291   1.429   4.586   7.002 -0.0489 -0.0496  0.0737
 1196ERGO    R516292   1.315   4.401   6.993 -0.0573 -0.0432  0.0707
 1196ERGO    C116293   1.184   4.542   7.322 -0.1162 -0.0015  0.0296
 1196ERGO    C216294   1.278   4.739   7.592  0.0759  0.1207 -0.1123
 1197ERGO   ROH16295  15.057  16.108   6.625  0.3997  0.1752  0.1082
 1197ERGO    R116296  14.949  15.903   6.787  0.1044  0.4146  0.2253
 1197ERGO    R216297  15.088  15.671   6.846 -0.3813  0.0419 -0.0122
 1197ERGO    R316298  15.034  15.743   7.103  0.1584  0.1538  0.0813
 1197ERGO    R416299  15.069  15.452   7.113 -0.5157  0.0552 -0.0102
 1197ERGO    R516300  14.898  15.565   7.187 -0.1519  0.4620  0.2554
 1197ERGO    C116301  15.008  15.392   7.509 -0.0872  0.1681  0.0789
 1197ERGO    C216302  15.049  15.229   7.845  0.0254  0.2873  0.2741
 1198ERGO   ROH16303  15.562  15.515   6.959  0.0626 -0.1937 -0.0466
 1198ERGO    R116304  15.596  15.574   7.233  0.0086 -0.0518 -0.0712
 1198ERGO    R216305  15.387  15.653   7.396 -0.0833 -0.2840 -0.0858
 1198ERGO    R316306  15.470  15.444   7.549  0.2174 -0.1178 -0.0106
 1198ERGO    R416307  15.364  15.639   7.740 -0.2738 -0.2721 -0.0955
 1198ERGO    R516308  15.561  15.547   7.745 -0.0897  0.0913  0.0365
 1198ERGO    C116309  15.429  15.436   8.085 -0.1024 -0.1090 -0.0306
 1198ERGO    C216310  15.537  15.369   8.452  0.0300 -0.0741 -0.2356
 1199ERGO   ROH16311  10.796  11.412   6.664  0.1322  0.0682  0.0603
 1199ERGO    R116312  10.766  11.457   6.942  0.0847  0.2126  0.0321
 1199ERGO    R216313  10.683  11.700   7.045 -0.3348  0.1466 -0.1321
 1199ERGO    R316314  10.495  11.548   7.167 -0.0554 -0.1057 -0.0028
 1199ERGO    R416315  10.543  11.769   7.353 -0.3385  0.0590 -0.1139
 1199ERGO    R516316  10.552  11.556   7.399  0.0152  0.0861 -0.0242
 1199ERGO    C116317  10.284  11.665   7.648 -0.0783 -0.2287  0.0181
 1199ERGO    C216318  10.248  11.809   7.923 -0.2664 -0.1797 -0.1446
 1200ERGO   ROH16319   6.720  16.079   6.431  0.0706 -0.1779 -0.2049
 1200ERGO    R116320   6.685  16.110   6.710  0.0458  0.0023 -0.2261
 1200ERGO    R216321   6.579  15.912   6.869 -0.0335  0.1278 -0.1143
 1200ERGO    R316322   6.808  15.948   7.011 -0.0383  0.1470 -0.1135
 1200ERGO    R416323   6.637  15.786   7.186 -0.0666  0.2313 -0.0678
 1200ERGO    R516324   6.734  15.974   7.238 -0.0462  0.2347 -0.1279
 1200ERGO    C116325   6.886  15.747   7.504 -0.0905  0.3095 -0.0398
 1200ERGO    C216326   7.047  15.670   7.900 -0.0512  0.0294 -0.1017
 1201ERGO   ROH16327  12.857   4.580  10.392 -0.0132 -0.1606 -0.0059
 1201ERGO    R116328  12.826   4.462  10.137  0.0324 -0.1313 -0.0248
 1201ERGO    R216329  12.642   4.553   9.952  0.0390 -0.1343 -0.0327
 1201ERGO    R316330  12.860   4.568   9.790  0.0545 -0.0803 -0.0070
 1201ERGO    R416331  12.634   4.531   9.607  0.0681  0.0256 -0.0442
 1201ERGO    R516332  12.816   4.411   9.615  0.0556  0.0047 -0.0839
 1201ERGO    C116333  12.835   4.534   9.255  0.0997  0.1694 -0.0267
 1201ERGO    C216334  12.813   4.609   8.893 -0.0864 -0.3853  0.1089
 1202ERGO   ROH16335  16.394  17.754  10.220 -0.1129  0.0641  0.0920
 1202ERGO    R116336  16.421  17.657   9.955  0.0732  0.0077  0.1320
 1202ERGO    R216337  16.204  17.602   9.793  0.1926  0.0473 -0.0300
 1202ERGO    R316338  16.330  17.771   9.622  0.3818 -0.0288  0.0290
 1202ERGO    R416339  16.199  17.575   9.449  0.1141  0.1820 -0.0417
 1202ERGO    R516340  16.410  17.629   9.446  0.1929 -0.0675 -0.0380
 1202ERGO    C116341  16.315  17.717   9.087  0.2458  0.1890  0.0069
 1202ERGO    C216342  16.362  17.741   8.747  0.2251 -0.1564 -0.2010
 1203ERGO   ROH16343  15.149   4.964   6.195  0.1491  0.0183 -0.1749
 1203ERGO    R116344  15.131   4.973   6.477 -0.0074 -0.0723 -0.1811
 1203ERGO    R216345  15.340   4.901   6.643 -0.1128 -0.1642 -0.0870
 1203ERGO    R316346  15.300   5.149   6.748 -0.1267 -0.1921 -0.0265
 1203ERGO    R416347  15.382   4.983   6.976 -0.1188 -0.2474 -0.0656
 1203ERGO    R516348  15.202   5.107   6.963 -0.1266 -0.2526 -0.0368
 1203ERGO    C116349  15.368   5.263   7.269 -0.1355 -0.3220  0.0035
 1203ERGO    C216350  15.372   5.325   7.567 -0.1215 -0.1900 -0.3408
 1204ERGO   ROH16351  14.611   5.151   6.262 -0.1525  0.0500 -0.0557
 1204ERGO    R116352  14.508   5.234   6.512 -0.2168 -0.0686 -0.0417
 1204ERGO    R216353  14.358   5.068   6.674  0.0418 -0.2632  0.0049
 1204ERGO    R316354  14.545   5.135   6.860 -0.0070  0.0099 -0.0400
 1204ERGO    R416355  14.301   5.087   7.014  0.0321 -0.0818 -0.0056
 1204ERGO    R516356  14.425   5.266   7.021 -0.1089  0.0234 -0.1256
 1204ERGO    C116357  14.442   5.160   7.387 -0.0190  0.2802 -0.0539
 1204ERGO    C216358  14.480   5.251   7.796  0.0851 -0.0426  0.0495
 1205ERGO   ROH16359   0.846   5.454   6.118  0.0988 -0.2647  0.0072
 1205ERGO    R116360   0.846   5.358   6.385  0.1418 -0.2173  0.0244
 1205ERGO    R216361   0.769   5.514   6.599  0.1638 -0.1832  0.0072
 1205ERGO    R316362   0.599   5.307   6.647  0.1819 -0.1841  0.0684
 1205ERGO    R416363   0.601   5.462   6.897  0.0259 -0.0070 -0.0385
 1205ERGO    R516364   0.640   5.249   6.876  0.0802 -0.0146  0.1319
 1205ERGO    C116365   0.343   5.239   7.115 -0.0376  0.0948 -0.0077
 1205ERGO    C216366   0.066   5.316   7.223  0.2333  0.1006 -0.0491
 1206ERGO   ROH16367   7.610  16.615   6.453 -0.0252  0.1686 -0.1270
 1206ERGO    R116368   7.714  16.594   6.716  0.0437 -0.1093 -0.1736
 1206ERGO    R216369   7.707  16.803   6.896  0.5064 -0.1461 -0.1006
 1206ERGO    R316370   7.583  16.621   7.054  0.2239  0.0278 -0.1139
 1206ERGO    R416371   7.741  16.785   7.239  0.3385 -0.1225 -0.0818
 1206ERGO    R516372   7.745  16.568   7.222  0.0911 -0.1325 -0.0350
 1206ERGO    C116373   7.644  16.603   7.588 -0.0244  0.0545 -0.0834
 1206ERGO    C216374   7.496  16.546   8.012  0.2597 -0.0199  0.0774
 1207ERGO   ROH16375   1.960  16.106   9.905  0.0491 -0.0499 -0.0589
 1207ERGO    R116376   2.066  16.063   9.646 -0.0159 -0.3697 -0.0360
 1207ERGO    R216377   1.953  15.886   9.467 -0.4819 -0.0836 -0.0363
 1207ERGO    R316378   1.951  16.104   9.304  0.1506 -0.0779 -0.0616
 1207ERGO    R416379   1.901  15.876   9.125 -0.5252  0.0238 -0.0336
 1207ERGO    R516380   2.056  16.028   9.102 -0.0671 -0.4188 -0.0567
 1207ERGO    C116381   1.868  16.075   8.773  0.0434  0.0919 -0.0558
 1207ERGO    C216382   1.772  15.903   8.512 -0.0054 -0.2036  0.0548
 1208ERGO   ROH16383   9.340  10.972   6.502 -0.0126  0.0175  0.0704
 1208ERGO    R116384   9.399  11.051   6.767 -0.0319 -0.1188  0.1158
 1208ERGO    R216385   9.345  11.305   6.862  0.3420 -0.0343  0.1122
 1208ERGO    R316386   9.212  11.169   7.056 -0.0086  0.1621  0.0209
 1208ERGO    R416387   9.227  11.445   7.155  0.2351  0.1703 -0.0253
 1208ERGO    R516388   9.292  11.266   7.261 -0.0793  0.1081  0.0764
 1208ERGO    C116389   9.035  11.399   7.509 -0.1561  0.4738 -0.1911
 1208ERGO    C216390   8.787  11.677   7.553 -0.2241  0.1332 -0.3627
 1209ERGO   ROH16391  17.938  13.901   6.977  0.0250 -0.1075 -0.0625
 1209ERGO    R116392  17.976  13.958   7.252 -0.0361 -0.0712 -0.0610
 1209ERGO    R216393  18.212  13.901   7.384 -0.0184  0.0628 -0.0304
 1209ERGO    R316394  18.201  14.165   7.450 -0.1683  0.0614 -0.0482
 1209ERGO    R416395  18.400  14.051   7.633 -0.1259  0.1827 -0.0212
 1209ERGO    R516396  18.224  14.168   7.688 -0.1943  0.0906 -0.0470
 1209ERGO    C116397  18.498  14.386   7.840 -0.3292  0.2510 -0.0325
 1209ERGO    C216398  18.727  14.489   8.041  0.0699  0.1608 -0.0879
 1210ERGO   ROH16399   0.823  12.286   6.508 -0.0964  0.0687  0.0175
 1210ERGO    R116400   0.762  12.307   6.783  0.0133  0.0856  0.0411
 1210ERGO    R216401   0.830  12.111   6.966 -0.0532  0.0235  0.0009
 1210ERGO    R316402   0.950  12.318   7.095  0.1308 -0.0664 -0.0227
 1210ERGO    R416403   0.899  12.118   7.305 -0.2059  0.0687  0.0313
 1210ERGO    R516404   0.838  12.328   7.307  0.0393  0.1451 -0.0783
 1210ERGO    C116405   1.051  12.317   7.623 -0.1220  0.0104  0.0268
 1210ERGO    C216406   1.025  12.556   7.906  0.0594  0.0946  0.0039
 1211ERGO   ROH16407   7.377  10.784   6.520 -0.1166 -0.0456 -0.0876
 1211ERGO    R116408   7.446  10.762   6.794  0.0312 -0.0165 -0.1223
 1211ERGO    R216409   7.527  10.979   6.945 -0.1253  0.0443 -0.1295
 1211ERGO    R316410   7.325  10.899   7.108  0.0314 -0.1900 -0.0444
 1211ERGO    R416411   7.470  11.101   7.263 -0.0674 -0.0956 -0.0642
 1211ERGO    R516412   7.422  10.899   7.327  0.1519 -0.1632 -0.0944
 1211ERGO    C116413   7.248  11.097   7.602  0.1136 -0.3969  0.0537
 1211ERGO    C216414   7.049  11.098   7.988 -0.0496  0.2002 -0.0378
 1212ERGO   ROH16415   8.831   8.986  10.227 -0.0179  0.0359  0.2123
 1212ERGO    R116416   8.762   8.897   9.967 -0.2162  0.0968  0.2444
 1212ERGO    R216417   8.526   8.969   9.843 -0.1177  0.4626  0.2816
 1212ERGO    R316418   8.693   9.050   9.645 -0.0254  0.1447  0.2215
 1212ERGO    R416419   8.481   8.900   9.507 -0.1825  0.2176  0.3375
 1212ERGO    R516420   8.696   8.866   9.491 -0.1988 -0.0018  0.3742
 1212ERGO    C116421   8.612   8.936   9.126 -0.1336 -0.2234  0.3134
 1212ERGO    C216422   8.593   8.984   8.835 -0.0309  0.4029 -0.0179
 1213ERGO   ROH16423   1.993   5.834  10.209  0.0573  0.0321  0.0280
 1213ERGO    R116424   2.093   5.909   9.955  0.1840 -0.0712  0.0484
 1213ERGO    R216425   2.174   5.724   9.766 -0.1986 -0.1645 -0.0203
 1213ERGO    R316426   1.998   5.858   9.608  0.0487  0.2441  0.0335
 1213ERGO    R416427   2.206   5.761   9.424 -0.3245 -0.4623 -0.0689
 1213ERGO    R516428   2.137   5.967   9.445  0.2607 -0.2316 -0.1316
 1213ERGO    C116429   2.060   5.909   9.076 -0.1657 -0.2522 -0.0467
 1213ERGO    C216430   2.064   5.921   8.767  0.1012  0.0911 -0.2740
 1214ERGO   ROH16431   2.494  11.180  10.100 -0.0698 -0.1893 -0.0038
 1214ERGO    R116432   2.598  11.193   9.837  0.0393 -0.1451  0.0410
 1214ERGO    R216433   2.618  10.971   9.674 -0.1286 -0.0742 -0.0760
 1214ERGO    R316434   2.476  11.125   9.501  0.0908  0.1696 -0.0455
 1214ERGO    R416435   2.654  10.967   9.331 -0.0951 -0.0229 -0.0732
 1214ERGO    R516436   2.633  11.184   9.331  0.1925  0.0114 -0.0108
 1214ERGO    C116437   2.542  11.109   8.968  0.1303  0.2358 -0.0430
 1214ERGO    C216438   2.559  11.041   8.735 -0.1265 -0.3300  0.1359
 1215ERGO   ROH16439  11.448   8.861   9.823  0.0586 -0.0280 -0.0347
 1215ERGO    R116440  11.386   8.954   9.563  0.0342  0.1005  0.0161
 1215ERGO    R216441  11.549   9.132   9.426  0.0915  0.0614  0.0349
 1215ERGO    R316442  11.541   8.940   9.234 -0.0686  0.1359 -0.0348
 1215ERGO    R416443  11.590   9.189   9.088 -0.0447  0.1798  0.0375
 1215ERGO    R516444  11.432   9.045   9.049 -0.1182  0.2506  0.0559
 1215ERGO    C116445  11.607   9.042   8.710 -0.2743  0.3185 -0.0263
 1215ERGO    C216446  11.804   8.910   8.384  0.0025  0.2573  0.0028
 1216ERGO   ROH16447   3.156   0.380   6.155 -0.1840  0.1338  0.0445
 1216ERGO    R116448   3.076   0.288   6.410 -0.5813  0.3503  0.0026
 1216ERGO    R216449   3.252   0.264   6.621 -0.6749 -0.4257 -0.0017
 1216ERGO    R316450   3.071   0.420   6.749 -0.0883  0.2689  0.0547
 1216ERGO    R416451   3.239   0.311   6.963 -0.6647 -0.8161  0.0601
 1216ERGO    R516452   3.022   0.301   6.951 -0.7658  0.1820 -0.1216
 1216ERGO    C116453   3.061   0.486   7.283 -0.1081 -0.3914  0.1491
 1216ERGO    C216454   3.067   0.693   7.577  0.0194 -0.3046  0.3345
 1217ERGO   ROH16455   9.292  15.738  10.230  0.0511 -0.1123  0.0294
 1217ERGO    R116456   9.281  15.909  10.004 -0.0244 -0.1258  0.0230
 1217ERGO    R216457   9.493  15.938   9.830  0.0111  0.0637  0.1000
 1217ERGO    R316458   9.307  15.872   9.643  0.1382 -0.1083  0.0309
 1217ERGO    R416459   9.527  15.993   9.490 -0.1453  0.6532  0.1689
 1217ERGO    R516460   9.317  16.052   9.484 -0.3009  0.1678  0.2906
 1217ERGO    C116461   9.372  15.964   9.117 -0.1171  0.8350  0.1442
 1217ERGO    C216462   9.442  16.012   8.751  0.0563  0.1628  0.3334
 1218ERGO   ROH16463   7.901   2.354   6.340  0.0373  0.3167  0.0811
 1218ERGO    R116464   7.704   2.464   6.511  0.0030  0.2219  0.1041
 1218ERGO    R216465   7.600   2.326   6.727 -0.0205  0.1120  0.0257
 1218ERGO    R316466   7.678   2.546   6.865 -0.0553  0.0527  0.1394
 1218ERGO    R416467   7.525   2.387   7.058 -0.1276 -0.0143  0.0249
 1218ERGO    R516468   7.491   2.596   7.007 -0.0986  0.0068  0.0967
 1218ERGO    C116469   7.554   2.630   7.381 -0.2227 -0.1433  0.1313
 1218ERGO    C216470   7.384   2.699   7.712  0.1300  0.0826 -0.6635
 1219ERGO   ROH16471   1.753  16.567   9.941  0.3213  0.2675  0.0637
 1219ERGO    R116472   1.803  16.497   9.671  0.1306  0.1318  0.0612
 1219ERGO    R216473   1.630  16.339   9.524 -0.0129  0.1191  0.2389
 1219ERGO    R316474   1.638  16.548   9.351 -0.0556  0.0408  0.1406
 1219ERGO    R416475   1.590  16.314   9.182 -0.1086 -0.0403  0.2612
 1219ERGO    R516476   1.748  16.461   9.157 -0.1101 -0.0531  0.1494
 1219ERGO    C116477   1.574  16.495   8.820 -0.2045 -0.2065  0.1820
 1219ERGO    C216478   1.530  16.539   8.398  0.0528 -0.0537  0.1821
 1220ERGO   ROH16479   1.256  14.528   6.788  0.0104  0.0393 -0.0701
 1220ERGO    R116480   1.190  14.643   7.039 -0.0005  0.0158 -0.0621
 1220ERGO    R216481   1.166  14.493   7.270  0.0346 -0.0005 -0.0681
 1220ERGO    R316482   1.348  14.671   7.366  0.0076  0.0272 -0.0674
 1220ERGO    R416483   1.206  14.575   7.603  0.0114  0.0237 -0.0709
 1220ERGO    R516484   1.234  14.782   7.544 -0.0122  0.0224 -0.0788
 1220ERGO    C116485   1.400  14.790   7.887 -0.0275  0.0636 -0.0720
 1220ERGO    C216486   1.484  14.828   8.186 -0.1484  0.2504  0.1468
 1221ERGO   ROH16487  16.798  13.764   6.664  0.0361 -0.0098 -0.0953
 1221ERGO    R116488  16.773  13.846   6.933  0.0296  0.1403 -0.1403
 1221ERGO    R216489  16.899  13.716   7.141 -0.3554 -0.0447 -0.0084
 1221ERGO    R316490  16.996  13.964   7.196  0.1095 -0.2084 -0.0482
 1221ERGO    R416491  17.021  13.816   7.448 -0.4252 -0.1402  0.0505
 1221ERGO    R516492  16.922  14.008   7.419 -0.0061  0.0570 -0.1383
 1221ERGO    C116493  17.183  14.108   7.678 -0.0294 -0.3494  0.0474
 1221ERGO    C216494  17.331  14.118   8.037  0.2992 -0.0665  0.0964
 1222ERGO   ROH16495   3.092   4.713   6.507 -0.0693  0.1323  0.0622
 1222ERGO    R116496   2.916   4.805   6.709 -0.0720  0.1895  0.0336
 1222ERGO    R216497   2.974   4.783   6.978 -0.1520  0.1083  0.0436
 1222ERGO    R316498   2.926   5.051   6.977 -0.0089  0.1353  0.0817
 1222ERGO    R416499   2.926   4.977   7.260  0.1851  0.1385  0.0857
 1222ERGO    R516500   2.769   5.084   7.154  0.1530  0.2227  0.2133
 1222ERGO    C116501   2.852   5.341   7.423  0.5157  0.1814  0.1459
 1222ERGO    C216502   2.979   5.349   7.682  0.0610  0.0850 -0.3933
 1223ERGO   ROH16503   1.059   4.761   9.929  0.1050 -0.1969  0.2021
 1223ERGO    R116504   1.189   4.830   9.687  0.0022 -0.1858  0.1510
 1223ERGO    R216505   1.243   4.646   9.488 -0.1260 -0.1628  0.1041
 1223ERGO    R316506   1.108   4.823   9.332 -0.1634 -0.1186  0.1837
 1223ERGO    R416507   1.298   4.694   9.151 -0.1880 -0.0781  0.1048
 1223ERGO    R516508   1.274   4.908   9.182 -0.1846 -0.0777  0.1724
 1223ERGO    C116509   1.204   4.888   8.808 -0.2592  0.0127  0.1798
 1223ERGO    C216510   1.272   4.886   8.534  0.0726  0.1036  0.0748
 1224ERGO   ROH16511   3.880  15.560  10.272 -0.0391 -0.0081 -0.1046
 1224ERGO    R116512   3.933  15.451  10.016  0.0501 -0.0125 -0.0844
 1224ERGO    R216513   3.732  15.365   9.846  0.1168 -0.1533 -0.0924
 1224ERGO    R316514   3.852  15.535   9.672  0.0350 -0.1067 -0.1042
 1224ERGO    R416515   3.700  15.351   9.503  0.1057 -0.1760 -0.0908
 1224ERGO    R516516   3.912  15.397   9.486  0.0848 -0.0859 -0.1034
 1224ERGO    C116517   3.794  15.502   9.138  0.0225 -0.1456 -0.1008
 1224ERGO    C216518   3.590  15.361   8.837 -0.1144 -0.0756 -0.3598
 1225ERGO   ROH16519   2.515   7.259   7.318 -0.1581  0.0509  0.1659
 1225ERGO    R116520   2.394   7.103   7.521 -0.1181  0.0923  0.2213
 1225ERGO    R216521   2.426   6.830   7.538 -0.2655  0.0721  0.1602
 1225ERGO    R316522   2.507   6.887   7.791 -0.0699 -0.0120  0.1191
 1225ERGO    R416523   2.483   6.595   7.785 -0.2596 -0.0002  0.0910
 1225ERGO    R516524   2.389   6.730   7.928 -0.0862  0.0423  0.1704
 1225ERGO    C116525   2.591   6.512   8.167 -0.0725 -0.1213  0.0121
 1225ERGO    C216526   2.602   6.215   8.276  0.2232 -0.1056 -0.0727
 1226ERGO   ROH16527   4.989  12.850   5.954 -0.2766 -0.2241 -0.0526
 1226ERGO    R116528   4.952  12.712   6.199 -0.1455 -0.0607  0.0607
 1226ERGO    R216529   5.158  12.578   6.327 -0.0974 -0.0457 -0.0034
 1226ERGO    R316530   5.086  12.735   6.537  0.1038  0.1065 -0.0455
 1226ERGO    R416531   5.247  12.522   6.656 -0.2002 -0.1003  0.0159
 1226ERGO    R516532   5.047  12.581   6.716 -0.1276  0.1968 -0.0134
 1226ERGO    C116533   5.232  12.637   7.044 -0.0712  0.0106 -0.0124
 1226ERGO    C216534   5.284  12.630   7.434  0.1636 -0.2843 -0.0983
 1227ERGO   ROH16535  13.601   1.928   6.199  0.1699  0.0116  0.0325
 1227ERGO    R116536  13.730   1.942   6.450  0.1206  0.1382  0.0528
 1227ERGO    R216537  13.670   2.135   6.639 -0.0460  0.1248  0.0189
 1227ERGO    R316538  13.633   1.919   6.800  0.0777  0.1189  0.0392
 1227ERGO    R416539  13.704   2.138   6.983  0.2621  0.0997 -0.0088
 1227ERGO    R516540  13.800   1.943   6.970  0.2323  0.0918 -0.1079
 1227ERGO    C116541  13.688   1.938   7.335  0.5576  0.0794 -0.0058
 1227ERGO    C216542  13.611   1.871   7.767  0.0928  0.2223  0.0711
 1228ERGO   ROH16543  10.493   2.434   6.811 -0.2000  0.0364  0.0141
 1228ERGO    R116544  10.500   2.383   7.089 -0.1054 -0.0925 -0.0111
 1228ERGO    R216545  10.630   2.164   7.198  0.1513 -0.0040 -0.1369
 1228ERGO    R316546  10.756   2.354   7.346 -0.0353  0.0633 -0.0616
 1228ERGO    R416547  10.758   2.115   7.515  0.3283 -0.0484 -0.2137
 1228ERGO    R516548  10.684   2.311   7.571  0.0958 -0.1740 -0.0605
 1228ERGO    C116549  10.951   2.264   7.839  0.2561 -0.0112 -0.1877
 1228ERGO    C216550  11.170   2.216   8.084  0.2031 -0.0742 -0.0283
 1229ERGO   ROH16551  13.199   0.721   6.261  0.0074 -0.0613  0.0536
 1229ERGO    R116552  13.345   0.858   6.461  0.0252 -0.0171  0.0107
 1229ERGO    R216553  13.224   1.023   6.646  0.0373 -0.0028  0.0076
 1229ERGO    R316554  13.355   0.864   6.825  0.0825  0.0356  0.0083
 1229ERGO    R416555  13.238   1.079   6.987 -0.0912 -0.0710  0.0243
 1229ERGO    R516556  13.448   1.018   6.984 -0.0537  0.0553  0.0688
 1229ERGO    C116557  13.368   0.963   7.353 -0.1236 -0.0747  0.0347
 1229ERGO    C216558  13.302   0.984   7.669 -0.1949 -0.0270 -0.0536
 1230ERGO   ROH16559   6.014  15.158   6.514 -0.0691  0.2515  0.1328
 1230ERGO    R116560   6.084  15.269   6.765 -0.2816  0.1348  0.2476
 1230ERGO    R216561   5.909  15.277   6.978 -0.3613 -0.2658  0.2148
 1230ERGO    R316562   6.111  15.151   7.108 -0.2334 -0.1236  0.1548
 1230ERGO    R416563   5.991  15.328   7.309 -0.3693 -0.3144  0.2235
 1230ERGO    R516564   6.202  15.318   7.253 -0.3723 -0.0998  0.2049
 1230ERGO    C116565   6.229  15.238   7.625 -0.2539 -0.2093  0.1723
 1230ERGO    C216566   6.255  15.192   7.949  0.1393 -0.0889 -0.1471
 1231ERGO   ROH16567  17.790   3.845  10.027  0.2785  0.0553  0.0791
 1231ERGO    R116568  17.886   3.752   9.778  0.0787 -0.1263  0.0671
 1231ERGO    R216569  17.744   3.573   9.621 -0.2010  0.0081  0.1568
 1231ERGO    R316570  17.776   3.765   9.431 -0.0264 -0.0729  0.1026
 1231ERGO    R416571  17.729   3.518   9.280 -0.2632 -0.0669  0.1715
 1231ERGO    R516572  17.896   3.655   9.256 -0.1354 -0.2319  0.1278
 1231ERGO    C116573  17.750   3.666   8.904 -0.1357 -0.1867  0.1293
 1231ERGO    C216574  17.869   3.689   8.614 -0.1258  0.0325 -0.3828
 1232ERGO   ROH16575  15.491  17.342   6.548  0.2162 -0.2636  0.0792
 1232ERGO    R116576  15.454  17.499   6.780  0.0959 -0.0316 -0.0912
 1232ERGO    R216577  15.211  17.518   6.910  0.0448  0.0302 -0.1816
 1232ERGO    R316578  15.357  17.441   7.126  0.0071  0.2926 -0.0607
 1232ERGO    R416579  15.108  17.548   7.239 -0.2051 -0.0105 -0.2555
 1232ERGO    R516580  15.311  17.609   7.292 -0.3237  0.2775 -0.1387
 1232ERGO    C116581  15.185  17.493   7.633 -0.3861  0.2119 -0.1851
 1232ERGO    C216582  15.146  17.619   7.930  0.2282 -0.0035 -0.1047
 1233ERGO   ROH16583   8.657   5.212   6.344  0.2035 -0.0004 -0.0445
 1233ERGO    R116584   8.606   5.201   6.622  0.1030 -0.0391 -0.0629
 1233ERGO    R216585   8.450   5.004   6.736  0.1239 -0.1068 -0.1326
 1233ERGO    R316586   8.670   4.966   6.893  0.0840 -0.0403 -0.0626
 1233ERGO    R416587   8.452   4.832   7.037  0.1239 -0.2290 -0.2025
 1233ERGO    R516588   8.586   4.984   7.117 -0.0037 -0.1867 -0.0891
 1233ERGO    C116589   8.658   4.698   7.358  0.0864 -0.2376 -0.1776
 1233ERGO    C216590   8.808   4.557   7.682 -0.0748  0.1139 -0.0051
 1234ERGO   ROH16591   2.044   5.710   6.571  0.0419  0.0130 -0.0648
 1234ERGO    R116592   2.224   5.643   6.779 -0.1075 -0.0450  0.0463
 1234ERGO    R216593   2.145   5.620   7.043 -0.3144 -0.1990 -0.0306
 1234ERGO    R316594   2.259   5.374   7.022 -0.2313 -0.1596 -0.0603
 1234ERGO    R416595   2.249   5.426   7.310 -0.2019 -0.1737 -0.0543
 1234ERGO    R516596   2.425   5.370   7.194 -0.1996 -0.1076 -0.0871
 1234ERGO    C116597   2.417   5.083   7.445 -0.0585 -0.1219 -0.0960
 1234ERGO    C216598   2.287   4.810   7.596  0.2126  0.0973  0.1602
 1235ERGO   ROH16599   0.295   1.036   6.456 -0.0369 -0.1754 -0.0667
 1235ERGO    R116600   0.281   0.803   6.615  0.0984 -0.1230  0.0247
 1235ERGO    R216601   0.481   0.730   6.790  0.1373  0.0660  0.0614
 1235ERGO    R316602   0.277   0.725   6.970  0.1337  0.0141  0.0557
 1235ERGO    R416603   0.504   0.605   7.112  0.1778  0.1235  0.0808
 1235ERGO    R516604   0.306   0.518   7.087  0.2117  0.0423  0.0879
 1235ERGO    C116605   0.326   0.527   7.468  0.1979  0.1083  0.0868
 1235ERGO    C216606   0.281   0.627   7.831  0.0657  0.1135 -0.1131
 1236ERGO   ROH16607  16.116   6.298   7.715 -0.0330  0.1151 -0.1015
 1236ERGO    R116608  15.949   6.128   7.868  0.0863  0.1235  0.0403
 1236ERGO    R216609  15.773   5.949   7.751 -0.1537  0.2639  0.1857
 1236ERGO    R316610  15.904   5.769   7.908 -0.0312  0.1244 -0.0702
 1236ERGO    R416611  15.668   5.625   7.811 -0.2709  0.3056  0.2097
 1236ERGO    R516612  15.729   5.648   8.018  0.0478  0.1915  0.1375
 1236ERGO    C116613  15.730   5.268   7.993 -0.2243  0.1989 -0.0165
 1236ERGO    C216614  15.664   5.020   7.854 -0.1078  0.1657  0.0373
 1237ERGO   ROH16615  13.277   5.455  10.343 -0.2051  0.0158 -0.1824
 1237ERGO    R116616  13.244   5.363  10.078 -0.3011  0.1575 -0.2212
 1237ERGO    R216617  13.047   5.460   9.909 -0.1161  0.5353 -0.2303
 1237ERGO    R316618  13.257   5.508   9.744 -0.0004  0.2549 -0.1701
 1237ERGO    R416619  13.028   5.480   9.565  0.0638  0.2683 -0.2585
 1237ERGO    R516620  13.216   5.371   9.553 -0.0031  0.1255 -0.0796
 1237ERGO    C116621  13.215   5.537   9.210  0.2771 -0.1503 -0.2186
 1237ERGO    C216622  13.170   5.636   8.927  0.0733  0.1293 -0.4082
 1238ERGO   ROH16623  17.617  12.496   6.498  0.2910 -0.2263 -0.1228
 1238ERGO    R116624  17.759  12.505   6.743  0.2321 -0.0390 -0.0939
 1238ERGO    R216625  17.846  12.743   6.856  0.0449  0.0651 -0.1593
 1238ERGO    R316626  17.709  12.652   7.072  0.0579  0.0481 -0.1585
 1238ERGO    R416627  17.892  12.853   7.180  0.1284 -0.0311 -0.1382
 1238ERGO    R516628  17.871  12.647   7.248  0.0846 -0.0408 -0.1870
 1238ERGO    C116629  17.790  12.832   7.572  0.1892 -0.1031 -0.1252
 1238ERGO    C216630  17.524  12.809   7.897  0.0074 -0.0620  0.1210
 1239ERGO   ROH16631  11.022   0.228   9.920  0.0032 -0.1665 -0.1714
 1239ERGO    R116632  11.121   0.336   9.678  0.0039 -0.1596 -0.1690
 1239ERGO    R216633  11.234   0.179   9.481 -0.0490 -0.1633 -0.2019
 1239ERGO    R316634  11.048   0.300   9.323 -0.0405 -0.1032 -0.1648
 1239ERGO    R416635  11.235   0.174   9.135 -0.0730 -0.0823 -0.2026
 1239ERGO    R516636  11.173   0.383   9.137 -0.0440 -0.0779 -0.1522
 1239ERGO    C116637  11.060   0.284   8.786 -0.0789  0.0212 -0.1681
 1239ERGO    C216638  10.984   0.244   8.538 -0.2859  0.0755 -0.2420
 1240ERGO   ROH16639  17.380   6.861  10.231 -0.2439  0.0853  0.0016
 1240ERGO    R116640  17.517   6.940   9.995 -0.2444  0.2601  0.0593
 1240ERGO    R216641  17.602   6.759   9.805 -0.0201  0.3785  0.0478
 1240ERGO    R316642  17.460   6.918   9.637 -0.1146  0.2829  0.0361
 1240ERGO    R416643  17.609   6.739   9.460  0.0040  0.3634  0.0488
 1240ERGO    R516644  17.606   6.956   9.452 -0.1304  0.3641  0.0383
 1240ERGO    C116645  17.479   6.876   9.101 -0.0706  0.2650  0.0382
 1240ERGO    C216646  17.500   6.751   8.766  0.0259  0.2364 -0.1817
 1241ERGO   ROH16647   5.999  15.597  10.045  0.2025  0.0060 -0.0418
 1241ERGO    R116648   5.867  15.627   9.796  0.1349 -0.0856 -0.0177
 1241ERGO    R216649   5.889  15.856   9.643 -0.0138 -0.0877 -0.0459
 1241ERGO    R316650   5.965  15.680   9.450  0.0369 -0.0690 -0.0429
 1241ERGO    R416651   5.819  15.889   9.306 -0.1195 -0.1725 -0.0328
 1241ERGO    R516652   5.780  15.675   9.298  0.0010 -0.1951  0.0050
 1241ERGO    C116653   5.850  15.744   8.929 -0.1336 -0.2043 -0.0223
 1241ERGO    C216654   5.716  15.788   8.605  0.0432 -0.1564 -0.0746
 1242ERGO   ROH16655  12.925   8.251   6.325  0.1690  0.1295  0.0711
 1242ERGO    R116656  12.849   8.253   6.597  0.1094 -0.0043  0.0562
 1242ERGO    R216657  12.918   8.050   6.773  0.3285  0.0549  0.0400
 1242ERGO    R316658  13.019   8.256   6.919  0.0418  0.1642  0.0914
 1242ERGO    R416659  12.997   8.034   7.109  0.3859  0.0683  0.0276
 1242ERGO    R516660  12.914   8.234   7.133  0.0916 -0.0557  0.0961
 1242ERGO    C116661  13.137   8.217   7.442  0.1503  0.1785  0.0686
 1242ERGO    C216662  13.271   8.051   7.655 -0.0514 -0.0178  0.0793
 1243ERGO   ROH16663  17.108  10.308   6.243  0.3801 -0.1744 -0.1339
 1243ERGO    R116664  17.204  10.408   6.489  0.2363  0.0161 -0.1537
 1243ERGO    R216665  17.035  10.482   6.695  0.1258 -0.1305 -0.1933
 1243ERGO    R316666  17.187  10.308   6.839  0.3280  0.0970 -0.1253
 1243ERGO    R416667  17.087  10.501   7.037 -0.1960 -0.1388 -0.1403
 1243ERGO    R516668  17.295  10.446   7.003 -0.0567  0.2512  0.0131
 1243ERGO    C116669  17.260  10.349   7.370 -0.1935  0.0699 -0.0456
 1243ERGO    C216670  17.354  10.408   7.646  0.0393 -0.0015  0.2059
 1244ERGO   ROH16671   9.825   1.039  10.219  0.0844  0.2204 -0.1051
 1244ERGO    R116672   9.981   1.029   9.983  0.1123  0.0938 -0.0814
 1244ERGO    R216673   9.970   0.817   9.806  0.0995  0.0234  0.0106
 1244ERGO    R316674   9.918   1.013   9.625  0.1582 -0.0481 -0.0855
 1244ERGO    R416675   9.917   0.765   9.469 -0.0750 -0.1590  0.0648
 1244ERGO    R516676  10.034   0.943   9.427  0.0353 -0.2566 -0.0937
 1244ERGO    C116677   9.836   0.917   9.102 -0.1215 -0.3325  0.0061
 1244ERGO    C216678   9.729   0.939   8.716 -0.0816  0.1048  0.0674
 1245ERGO   ROH16679  11.291   0.619  10.049  0.1567 -0.1204 -0.0137
 1245ERGO    R116680  11.382   0.722   9.801  0.1414 -0.1741 -0.0423
 1245ERGO    R216681  11.500   0.563   9.608  0.0145 -0.2413 -0.0702
 1245ERGO    R316682  11.307   0.669   9.449  0.0201 -0.1533 -0.0185
 1245ERGO    R416683  11.531   0.617   9.268 -0.0391 -0.1925 -0.0674
 1245ERGO    R516684  11.426   0.806   9.293  0.0288 -0.1670 -0.0184
 1245ERGO    C116685  11.368   0.748   8.921 -0.0650 -0.0815 -0.0173
 1245ERGO    C216686  11.198   0.761   8.580 -0.1628  0.0364 -0.0262
 1246ERGO   ROH16687   1.309  12.280   6.488  0.0072 -0.5154 -0.0733
 1246ERGO    R116688   1.236  12.196   6.748 -0.0348 -0.2409  0.0063
 1246ERGO    R216689   1.381  12.008   6.890 -0.1649 -0.2322  0.1507
 1246ERGO    R316690   1.386  12.203   7.080 -0.0012 -0.0734 -0.0109
 1246ERGO    R416691   1.513  11.970   7.207 -0.1850 -0.0757  0.1792
 1246ERGO    R516692   1.345  12.085   7.285 -0.0911  0.1289  0.0909
 1246ERGO    C116693   1.595  12.130   7.570 -0.0431  0.1645  0.0441
 1246ERGO    C216694   1.789  12.033   7.772  0.0690 -0.0193 -0.1186
 1247ERGO   ROH16695   1.836  12.927   6.852  0.1589  0.2727 -0.0665
 1247ERGO    R116696   2.087  12.871   6.968  0.0350 -0.1554  0.0101
 1247ERGO    R216697   2.200  13.030   7.164  0.3464 -0.2106 -0.1252
 1247ERGO    R316698   2.214  12.797   7.302 -0.1574 -0.1275  0.0927
 1247ERGO    R416699   2.257  13.005   7.504  0.4457 -0.0038 -0.1244
 1247ERGO    R516700   2.386  12.834   7.464  0.0244 -0.3735 -0.0282
 1247ERGO    C116701   2.303  12.771   7.831  0.0305  0.1945  0.0807
 1247ERGO    C216702   2.172  12.535   8.097 -0.2148 -0.3960  0.0992
 1248ERGO   ROH16703   5.884  16.800   9.835  0.2125 -0.0258 -0.0444
 1248ERGO    R116704   5.874  16.688   9.576  0.1206 -0.0233 -0.0416
 1248ERGO    R216705   5.644  16.688   9.423  0.0852  0.0376  0.0148
 1248ERGO    R316706   5.804  16.807   9.239  0.0716 -0.0060 -0.0263
 1248ERGO    R416707   5.630  16.630   9.083  0.0958 -0.0891  0.0349
 1248ERGO    R516708   5.848  16.634   9.078  0.0972 -0.0607  0.0365
 1248ERGO    C116709   5.773  16.708   8.711  0.0893 -0.2039  0.0080
 1248ERGO    C216710   5.527  16.598   8.493 -0.0238 -0.3259  0.2192
 1249ERGO   ROH16711  17.082   4.077   6.235  0.2121  0.0512 -0.0449
 1249ERGO    R116712  17.042   3.953   6.486  0.0783  0.0532 -0.0646
 1249ERGO    R216713  17.251   3.889   6.656  0.0044 -0.1251 -0.0392
 1249ERGO    R316714  17.108   4.035   6.835  0.0870 -0.0349 -0.0454
 1249ERGO    R416715  17.319   3.909   6.994 -0.1117 -0.3243 -0.0022
 1249ERGO    R516716  17.105   3.900   7.033 -0.1403 -0.1074 -0.0948
 1249ERGO    C116717  17.224   4.058   7.359 -0.1019 -0.3556  0.0135
 1249ERGO    C216718  17.405   4.197   7.648  0.1429  0.1079  0.2289
 1250ERGO   ROH16719   9.051   0.329   6.392  0.0660  0.5472 -0.0703
 1250ERGO    R116720   9.033   0.300   6.673 -0.0258  0.2525 -0.1038
 1250ERGO    R216721   9.153   0.475   6.849 -0.1089  0.0859  0.1198
 1250ERGO    R316722   8.902   0.495   6.951 -0.1452 -0.0529  0.0609
 1250ERGO    R416723   9.077   0.588   7.166 -0.2358 -0.0097  0.1247
 1250ERGO    R516724   8.926   0.432   7.181 -0.1684 -0.0874  0.0568
 1250ERGO    C116725   8.797   0.673   7.447 -0.3437 -0.1957  0.0722
 1250ERGO    C216726   8.861   0.627   7.791 -0.2276 -0.3372  0.1505
 1251ERGO   ROH16727  13.876   8.130   6.086  0.0619 -0.1128  0.0819
 1251ERGO    R116728  14.018   8.176   6.327  0.0525 -0.2048  0.1051
 1251ERGO    R216729  13.970   8.395   6.488  0.1941 -0.1537  0.0772
 1251ERGO    R316730  13.936   8.206   6.680  0.0083 -0.1116  0.0876
 1251ERGO    R416731  14.047   8.437   6.823  0.2193 -0.2016  0.0776
 1251ERGO    R516732  14.125   8.234   6.825  0.0303 -0.2771  0.0939
 1251ERGO    C116733  14.059   8.284   7.198  0.0596 -0.1900  0.0876
 1251ERGO    C216734  14.206   8.332   7.473  0.1019 -0.0597 -0.1414
 1252ERGO   ROH16735  16.112  10.404   6.881  0.1998 -0.1997 -0.0789
 1252ERGO    R116736  16.272  10.250   7.058  0.0715 -0.1453  0.0872
 1252ERGO    R216737  16.276  10.293   7.331 -0.2427 -0.1593  0.0966
 1252ERGO    R316738  16.215  10.029   7.341 -0.1473 -0.1848  0.0152
 1252ERGO    R416739  16.349  10.085   7.596 -0.1566 -0.2123  0.0312
 1252ERGO    R516740  16.403   9.929   7.452 -0.1047 -0.1501 -0.0213
 1252ERGO    C116741  16.335   9.714   7.760 -0.0167 -0.2671 -0.0833
 1252ERGO    C216742  16.160   9.540   7.869 -0.0008 -0.0536 -0.0486
 1253ERGO   ROH16743   7.379  12.374   6.425 -0.0811  0.1463 -0.0405
 1253ERGO    R116744   7.178  12.448   6.610 -0.0319  0.1665  0.0055
 1253ERGO    R216745   7.226  12.470   6.881  0.0094  0.0727  0.0076
 1253ERGO    R316746   7.124  12.720   6.846  0.0954  0.1195  0.0893
 1253ERGO    R416747   7.095  12.667   7.134 -0.0915 -0.0377  0.0421
 1253ERGO    R516748   6.937  12.729   6.997  0.0074  0.0816 -0.0177
 1253ERGO    C116749   6.923  13.016   7.248 -0.0695 -0.0580  0.1389
 1253ERGO    C216750   6.854  13.365   7.308  0.1238  0.1201 -0.0342
 1254ERGO   ROH16751   8.150  16.663  10.154 -0.2933 -0.0322 -0.0891
 1254ERGO    R116752   8.252  16.665   9.889 -0.0741 -0.0605 -0.0077
 1254ERGO    R216753   8.161  16.492   9.693 -0.0292  0.0244 -0.1119
 1254ERGO    R316754   8.120  16.723   9.556  0.2337  0.0751 -0.1082
 1254ERGO    R416755   8.227  16.536   9.357  0.0102 -0.0362 -0.1117
 1254ERGO    R516756   8.303  16.735   9.403  0.2390 -0.1290 -0.1127
 1254ERGO    C116757   8.227  16.779   9.032  0.2798 -0.0237 -0.1080
 1254ERGO    C216758   8.226  16.715   8.629 -0.1359 -0.0482 -0.2033
 1255ERGO   ROH16759   7.363  12.038   9.914  0.0302 -0.0670 -0.0317
 1255ERGO    R116760   7.376  11.959   9.642 -0.1363 -0.1352 -0.0209
 1255ERGO    R216761   7.156  11.963   9.476 -0.1606  0.1880  0.0108
 1255ERGO    R316762   7.318  12.114   9.318  0.0623 -0.0930 -0.0368
 1255ERGO    R416763   7.118  12.005   9.135 -0.1350  0.1917  0.0084
 1255ERGO    R516764   7.334  11.991   9.114 -0.1565 -0.1546 -0.0176
 1255ERGO    C116765   7.248  12.171   8.789  0.0891 -0.0700 -0.0376
 1255ERGO    C216766   6.997  12.232   8.613  0.1125  0.1794 -0.0149
 1256ERGO   ROH16767  12.317   5.348   7.992 -0.1858 -0.1222  0.2066
 1256ERGO    R116768  12.561   5.458   8.083 -0.1988 -0.0776  0.1867
 1256ERGO    R216769  12.630   5.468   8.350 -0.1729 -0.0799  0.1780
 1256ERGO    R316770  12.854   5.339   8.264 -0.1537 -0.0279  0.1478
 1256ERGO    R416771  12.941   5.488   8.501 -0.0920  0.2084 -0.0166
 1256ERGO    R516772  13.031   5.495   8.303 -0.2126  0.1024 -0.0788
 1256ERGO    C116773  13.331   5.378   8.508 -0.0269  0.4251 -0.1584
 1256ERGO    C216774  13.575   5.291   8.504 -0.0018  0.2583  0.0783
 1257ERGO   ROH16775   7.100  14.460   9.861 -0.1417 -0.1359 -0.1122
 1257ERGO    R116776   6.930  14.361   9.657 -0.1340 -0.0170 -0.1781
 1257ERGO    R216777   6.795  14.527   9.482 -0.0012  0.0813 -0.1918
 1257ERGO    R316778   6.918  14.374   9.294 -0.0221  0.0503 -0.1795
 1257ERGO    R416779   6.765  14.571   9.140 -0.1103 -0.0337 -0.1975
 1257ERGO    R516780   6.757  14.355   9.118 -0.0681 -0.0416 -0.1268
 1257ERGO    C116781   6.863  14.453   8.765 -0.1934 -0.1298 -0.1892
 1257ERGO    C216782   6.704  14.464   8.374 -0.0069 -0.0542  0.0839
 1258ERGO   ROH16783   8.464  15.312   9.871  0.1721 -0.2460 -0.0914
 1258ERGO    R116784   8.440  15.425   9.613  0.0782 -0.1698 -0.0501
 1258ERGO    R216785   8.659  15.498   9.460  0.0205  0.0475 -0.0352
 1258ERGO    R316786   8.542  15.337   9.275  0.1304  0.0266 -0.0865
 1258ERGO    R416787   8.749  15.482   9.127  0.2500 -0.0295  0.0292
 1258ERGO    R516788   8.538  15.468   9.075  0.2853 -0.0131 -0.1158
 1258ERGO    C116789   8.693  15.321   8.759  0.4866 -0.0938  0.0185
 1258ERGO    C216790   8.852  15.357   8.483 -0.1149 -0.2278 -0.2906
 1259ERGO   ROH16791   6.887  11.106   9.850  0.2540  0.1928  0.0789
 1259ERGO    R116792   6.781  11.141   9.590  0.1972  0.1837  0.1000
 1259ERGO    R216793   6.938  11.218   9.375  0.1795  0.0381  0.0313
 1259ERGO    R316794   6.833  10.994   9.261  0.0178  0.0653  0.1240
 1259ERGO    R416795   6.922  11.158   9.035  0.0193 -0.0412  0.0521
 1259ERGO    R516796   6.723  11.073   9.064 -0.0134  0.0721  0.1463
 1259ERGO    C116797   6.815  10.912   8.730 -0.2258 -0.0619  0.1513
 1259ERGO    C216798   6.830  10.957   8.425 -0.0240 -0.3296 -0.0636
 1260ERGO   ROH16799  15.173  10.989   6.591 -0.3656 -0.1508 -0.1643
 1260ERGO    R116800  15.213  10.919   6.862 -0.1217 -0.1189 -0.1894
 1260ERGO    R216801  15.178  11.100   7.069  0.0907 -0.0842 -0.1761
 1260ERGO    R316802  15.011  10.908   7.165  0.1539 -0.0527 -0.0009
 1260ERGO    R416803  15.063  11.082   7.394  0.0183  0.2175 -0.1828
 1260ERGO    R516804  15.089  10.866   7.387  0.1152  0.2242  0.0636
 1260ERGO    C116805  14.839  10.892   7.674  0.0355  0.4226 -0.0224
 1260ERGO    C216806  14.650  10.917   8.008  0.1027 -0.1423 -0.0660
 1261ERGO   ROH16807   3.147   1.733   6.244  0.1210 -0.0628  0.0853
 1261ERGO    R116808   3.063   1.570   6.461 -0.1886  0.2078  0.1774
 1261ERGO    R216809   3.239   1.414   6.607 -0.4952 -0.1727  0.1564
 1261ERGO    R316810   3.132   1.549   6.817 -0.0906  0.1691  0.1565
 1261ERGO    R416811   3.324   1.363   6.938 -0.5331 -0.3233  0.1438
 1261ERGO    R516812   3.114   1.384   6.990 -0.4793  0.2459  0.1987
 1261ERGO    C116813   3.274   1.460   7.328 -0.1753 -0.0901  0.1365
 1261ERGO    C216814   3.420   1.410   7.645 -0.1644 -0.1241 -0.1220
 1262ERGO   ROH16815  13.776   6.618   6.257  0.2198 -0.0073  0.0188
 1262ERGO    R116816  13.915   6.708   6.487 -0.0278  0.1251  0.1209
 1262ERGO    R216817  13.786   6.774   6.722 -0.2499 -0.1516  0.0832
 1262ERGO    R316818  13.960   6.595   6.830 -0.0277  0.0690  0.1023
 1262ERGO    R416819  13.829   6.721   7.061 -0.2935 -0.1660  0.0864
 1262ERGO    R516820  14.044   6.704   7.026 -0.2525  0.1490  0.1575
 1262ERGO    C116821  14.017   6.521   7.359 -0.1104  0.0326  0.1061
 1262ERGO    C216822  14.044   6.536   7.672  0.1396  0.0860  0.0872
 1263ERGO   ROH16823   4.057  12.546   6.509  0.0184 -0.1686 -0.0309
 1263ERGO    R116824   4.055  12.588   6.789  0.1418 -0.1727 -0.0280
 1263ERGO    R216825   3.834  12.688   6.922  0.2643  0.0181  0.0454
 1263ERGO    R316826   3.865  12.464   7.073  0.1187 -0.0166  0.0241
 1263ERGO    R416827   3.734  12.655   7.252  0.2506  0.0437  0.0433
 1263ERGO    R516828   3.918  12.546   7.292  0.1750 -0.0788  0.0300
 1263ERGO    C116829   3.705  12.426   7.585  0.1058  0.0260  0.0222
 1263ERGO    C216830   3.731  12.424   7.996  0.0426 -0.2794 -0.0434
 1264ERGO   ROH16831   3.457  11.747   6.523 -0.3462 -0.0007  0.1491
 1264ERGO    R116832   3.512  11.576   6.741 -0.2012 -0.0327  0.0895
 1264ERGO    R216833   3.724  11.618   6.914 -0.0666 -0.0745 -0.0586
 1264ERGO    R316834   3.530  11.606   7.104  0.0701 -0.0759  0.0816
 1264ERGO    R416835   3.782  11.580   7.252  0.1664 -0.3824 -0.1293
 1264ERGO    R516836   3.611  11.444   7.261  0.0713 -0.2603 -0.1062
 1264ERGO    C116837   3.633  11.546   7.628  0.4304 -0.5630 -0.0390
 1264ERGO    C216838   3.512  11.645   7.923 -0.0652  0.1249  0.0080
 1265ERGO   ROH16839   1.918   0.397   6.295 -0.0291  0.0846 -0.0380
 1265ERGO    R116840   1.943   0.373   6.576 -0.1074 -0.0249 -0.0396
 1265ERGO    R216841   2.159   0.474   6.715 -0.1617 -0.0478  0.0641
 1265ERGO    R316842   1.966   0.600   6.860 -0.2239 -0.1348  0.0585
 1265ERGO    R416843   2.192   0.569   7.045 -0.2095 -0.0006  0.0559
 1265ERGO    R516844   1.986   0.505   7.079 -0.1733 -0.1037  0.0653
 1265ERGO    C116845   2.032   0.744   7.374 -0.2958 -0.0548  0.0457
 1265ERGO    C216846   2.065   0.820   7.661  0.0447 -0.3260 -0.0069
 1266ERGO   ROH16847   4.964  14.970   6.647 -0.0086  0.1024 -0.0471
 1266ERGO    R116848   5.077  15.031   6.899  0.0956 -0.1445 -0.0285
 1266ERGO    R216849   4.945  15.183   7.088  0.3464  0.0575  0.0062
 1266ERGO    R316850   4.995  14.969   7.248 -0.0333 -0.0773 -0.0492
 1266ERGO    R416851   4.932  15.187   7.434  0.6218  0.0515  0.0169
 1266ERGO    R516852   5.110  15.061   7.437  0.3292 -0.3671 -0.1279
 1266ERGO    C116853   4.972  14.988   7.785  0.4259 -0.0785 -0.0288
 1266ERGO    C216854   4.712  14.770   7.926 -0.1753 -0.0472  0.1127
 1267ERGO   ROH16855   6.409   8.176   9.995  0.0829  0.0819 -0.0504
 1267ERGO    R116856   6.429   8.027   9.755  0.1101  0.0953 -0.0573
 1267ERGO    R216857   6.221   8.007   9.574  0.0428 -0.0961  0.0324
 1267ERGO    R316858   6.408   8.097   9.399 -0.1131  0.0738 -0.0482
 1267ERGO    R416859   6.210   7.960   9.232 -0.0307 -0.1441  0.0418
 1267ERGO    R516860   6.424   7.923   9.235  0.0054  0.0751 -0.0333
 1267ERGO    C116861   6.379   8.017   8.868 -0.2199 -0.0126 -0.0283
 1267ERGO    C216862   6.279   7.889   8.579  0.0326 -0.0126 -0.3157
 1268ERGO   ROH16863  12.632  16.392   6.625 -0.0657 -0.0006  0.0117
 1268ERGO    R116864  12.514  16.522   6.847 -0.0496  0.0095  0.0136
 1268ERGO    R216865  12.485  16.399   7.093 -0.1597 -0.0272 -0.0210
 1268ERGO    R316866  12.618  16.619   7.182 -0.0747 -0.1086  0.0577
 1268ERGO    R416867  12.477  16.516   7.418  0.0025 -0.2334  0.0598
 1268ERGO    R516868  12.467  16.719   7.339  0.0087 -0.1770  0.1882
 1268ERGO    C116869  12.596  16.791   7.691  0.1768 -0.4299  0.1808
 1268ERGO    C216870  12.769  16.718   7.966 -0.0789 -0.1291  0.1922
 1269ERGO   ROH16871  17.814   8.443   6.826  0.1267 -0.0780  0.0437
 1269ERGO    R116872  17.687   8.295   7.031 -0.1075 -0.0767 -0.0962
 1269ERGO    R216873  17.756   8.322   7.297 -0.0900 -0.4067 -0.0647
 1269ERGO    R316874  17.490   8.371   7.328 -0.0276 -0.0468 -0.0499
 1269ERGO    R416875  17.590   8.325   7.600 -0.1202 -0.5023 -0.0800
 1269ERGO    R516876  17.423   8.223   7.504 -0.2660 -0.1522 -0.2220
 1269ERGO    C116877  17.243   8.373   7.805 -0.0792 -0.2200 -0.0749
 1269ERGO    C216878  17.016   8.497   7.880 -0.1068 -0.0871  0.0165
 1270ERGO   ROH16879  15.835   3.438  10.072 -0.1391  0.1452 -0.0096
 1270ERGO    R116880  15.830   3.266   9.848 -0.0463  0.1022  0.0211
 1270ERGO    R216881  15.623   3.265   9.665 -0.0955 -0.1089  0.0729
 1270ERGO    R316882  15.825   3.303   9.486 -0.1715  0.0379  0.0166
 1270ERGO    R416883  15.584   3.277   9.322 -0.2219  0.0758  0.0922
 1270ERGO    R516884  15.768   3.162   9.301 -0.2048  0.1305 -0.0419
 1270ERGO    C116885  15.750   3.319   8.954 -0.3669  0.3211  0.0505
 1270ERGO    C216886  15.669   3.325   8.635 -0.0541  0.0918  0.0078
 1271ERGO   ROH16887   8.908  13.380   6.192 -0.2750 -0.2694  0.1674
 1271ERGO    R116888   9.035  13.496   6.417 -0.4143 -0.1482  0.1900
 1271ERGO    R216889   8.933  13.472   6.674 -0.3991 -0.3094  0.2043
 1271ERGO    R316890   9.181  13.376   6.728 -0.2835 -0.0332  0.1661
 1271ERGO    R416891   9.089  13.490   6.982 -0.2414  0.0364  0.1070
 1271ERGO    R516892   9.276  13.536   6.879 -0.3500  0.1379  0.0030
 1271ERGO    C116893   9.413  13.409   7.212 -0.0410  0.4970  0.0146
 1271ERGO    C216894   9.421  13.406   7.535  0.0213  0.0971  0.1769
 1272ERGO   ROH16895   7.298   4.292   6.578  0.2975  0.2131  0.0219
 1272ERGO    R116896   7.212   4.393   6.828 -0.0264  0.0632 -0.0254
 1272ERGO    R216897   7.309   4.628   6.936  0.0425 -0.1388  0.3624
 1272ERGO    R316898   7.046   4.693   6.950  0.0773  0.1231 -0.0276
 1272ERGO    R416899   7.172   4.845   7.167 -0.0926 -0.0673  0.2175
 1272ERGO    R516900   7.002   4.710   7.185 -0.2658  0.0952 -0.0826
 1272ERGO    C116901   6.845   5.033   7.314 -0.1385  0.2202 -0.2330
 1272ERGO    C216902   6.608   5.293   7.492 -0.2990  0.0140  0.2403
 1273ERGO   ROH16903   4.843  16.976  10.263  0.0552  0.0510 -0.1833
 1273ERGO    R116904   4.893  17.117  10.023  0.2005 -0.0682 -0.2252
 1273ERGO    R216905   5.025  17.003   9.808 -0.0162 -0.3081 -0.2401
 1273ERGO    R316906   4.803  17.082   9.672  0.0562 -0.0125 -0.1936
 1273ERGO    R416907   4.997  17.009   9.464 -0.1495 -0.4604 -0.2325
 1273ERGO    R516908   4.889  17.198   9.481  0.1745 -0.2663 -0.2958
 1273ERGO    C116909   4.773  17.085   9.135 -0.1591 -0.2714 -0.1843
 1273ERGO    C216910   4.841  16.975   8.830  0.0177  0.2713  0.4320
 1274ERGO   ROH16911   6.298  12.442   6.373 -0.3095  0.1024  0.0475
 1274ERGO    R116912   6.159  12.410   6.617 -0.1765 -0.0345  0.1064
 1274ERGO    R216913   6.037  12.173   6.688 -0.1197 -0.0794  0.0490
 1274ERGO    R316914   6.188  12.199   6.912 -0.0026 -0.1857 -0.0160
 1274ERGO    R416915   5.993  11.989   6.977 -0.2492  0.0787  0.1321
 1274ERGO    R516916   6.032  12.170   7.092  0.0223  0.0766  0.0528
 1274ERGO    C116917   6.109  11.906   7.356 -0.2146  0.0710  0.1195
 1274ERGO    C216918   6.062  11.765   7.614 -0.1844  0.0186  0.1064
 1275ERGO   ROH16919   8.116   3.267   6.404 -0.0932  0.1824 -0.0904
 1275ERGO    R116920   8.112   3.414   6.646 -0.1190  0.0858 -0.0302
 1275ERGO    R216921   7.897   3.410   6.819 -0.0064 -0.2525  0.1172
 1275ERGO    R316922   8.086   3.338   7.001  0.2100 -0.0900 -0.0402
 1275ERGO    R416923   7.860   3.433   7.162  0.2639 -0.2844  0.1492
 1275ERGO    R516924   8.067   3.502   7.174  0.2161 -0.1076 -0.0258
 1275ERGO    C116925   8.016   3.380   7.532  0.6245 -0.1504  0.0200
 1275ERGO    C216926   7.897   3.441   7.853 -0.2231 -0.0969  0.1208
 1276ERGO   ROH16927  11.286  10.008   6.415  0.0396  0.1213  0.0629
 1276ERGO    R116928  11.314   9.984   6.695  0.0474  0.0417  0.0564
 1276ERGO    R216929  11.139  10.104   6.872  0.0625  0.0099  0.0977
 1276ERGO    R316930  11.116   9.851   6.970  0.0439 -0.0163  0.0249
 1276ERGO    R416931  10.981  10.021   7.169 -0.1426 -0.0953 -0.0388
 1276ERGO    R516932  11.141   9.877   7.207 -0.1416 -0.0662  0.0493
 1276ERGO    C116933  10.868   9.736   7.433 -0.2796 -0.1810 -0.1866
 1276ERGO    C216934  10.813   9.801   7.729 -0.2129 -0.1855 -0.0046
 1277ERGO   ROH16935   8.151  14.003   6.371  0.0536 -0.2877 -0.0269
 1277ERGO    R116936   8.061  14.045   6.636  0.0721 -0.1664 -0.0391
 1277ERGO    R216937   7.796  14.013   6.709  0.0823 -0.1588 -0.0013
 1277ERGO    R316938   7.901  13.845   6.895  0.1159 -0.0559  0.0744
 1277ERGO    R416939   7.708  14.008   7.043 -0.2784 -0.3522 -0.0946
 1277ERGO    R516940   7.918  13.978   7.093 -0.2848 -0.0717  0.1272
 1277ERGO    C116941   7.755  13.847   7.412 -0.4570 -0.3683 -0.0778
 1277ERGO    C216942   7.683  13.806   7.761  0.2458 -0.0031 -0.0433
 1278ERGO   ROH16943  13.899  17.700  10.131 -0.0682  0.0655 -0.1138
 1278ERGO    R116944  13.998  17.649   9.870  0.1110  0.1138 -0.0565
 1278ERGO    R216945  13.836  17.571   9.661  0.2882 -0.0934 -0.1248
 1278ERGO    R316946  13.948  17.786   9.537  0.1336 -0.0013 -0.1067
 1278ERGO    R416947  13.846  17.618   9.319  0.1594  0.0029 -0.1159
 1278ERGO    R516948  14.049  17.694   9.340  0.1227  0.1067 -0.1609
 1278ERGO    C116949  13.957  17.846   9.003 -0.0610  0.1454 -0.0938
 1278ERGO    C216950  13.894  17.789   8.728 -0.1601 -0.2649 -0.2521
 1279ERGO   ROH16951   0.383   4.324   5.970  0.3578 -0.1086  0.1002
 1279ERGO    R116952   0.387   4.220   6.233  0.1628  0.0931  0.1872
 1279ERGO    R216953   0.260   4.345   6.445 -0.1543  0.1640 -0.0313
 1279ERGO    R316954   0.141   4.102   6.475 -0.0054  0.0972  0.0182
 1279ERGO    R416955   0.243   4.169   6.742  0.2294  0.0577 -0.0680
 1279ERGO    R516956   0.282   3.986   6.630  0.2050  0.1150 -0.1610
 1279ERGO    C116957   0.121   3.839   6.943  0.5926 -0.0669 -0.0430
 1279ERGO    C216958   0.112   3.718   7.278  0.0787  0.1333  0.0871
 1280ERGO   ROH16959  15.835  12.344   6.682 -0.0498  0.2550 -0.0987
 1280ERGO    R116960  15.958  12.328   6.936 -0.2455  0.0759 -0.0124
 1280ERGO    R216961  16.172  12.488   7.008  0.0352 -0.3278  0.0799
 1280ERGO    R316962  16.012  12.552   7.218  0.0167  0.0530 -0.0424
 1280ERGO    R416963  16.284  12.560   7.327 -0.0238 -0.2634  0.0867
 1280ERGO    R516964  16.116  12.447   7.406 -0.2304  0.0334  0.0860
 1280ERGO    C116965  16.199  12.663   7.710 -0.0756  0.1317 -0.0242
 1280ERGO    C216966  16.203  12.844   8.012  0.2098 -0.0201 -0.1986
 1281ERGO   ROH16967  12.724   6.688   6.415  0.3753  0.0451 -0.0238
 1281ERGO    R116968  12.638   6.569   6.657  0.2561 -0.0240 -0.0994
 1281ERGO    R216969  12.812   6.508   6.863  0.1538 -0.0733 -0.0273
 1281ERGO    R316970  12.639   6.657   7.010  0.0730 -0.1200 -0.0737
 1281ERGO    R416971  12.849   6.579   7.199  0.2022  0.1865 -0.0849
 1281ERGO    R516972  12.635   6.549   7.224  0.2337  0.0193  0.0024
 1281ERGO    C116973  12.708   6.760   7.533  0.1546  0.2938 -0.1621
 1281ERGO    C216974  12.740   6.969   7.818 -0.0062  0.3220 -0.1879
 1282ERGO   ROH16975   7.021  12.953   9.831  0.1954  0.2312 -0.0800
 1282ERGO    R116976   7.150  13.061   9.604  0.2016  0.0624 -0.1584
 1282ERGO    R216977   7.213  12.910   9.382 -0.0964 -0.0318 -0.1812
 1282ERGO    R316978   7.073  13.102   9.251  0.0570  0.1241 -0.1209
 1282ERGO    R416979   7.205  12.949   9.038 -0.0674  0.0780 -0.1698
 1282ERGO    R516980   7.214  13.164   9.068  0.1085  0.0648 -0.1035
 1282ERGO    C116981   7.068  13.152   8.715  0.0935  0.2882 -0.1066
 1282ERGO    C216982   7.128  13.245   8.433  0.0979 -0.0805  0.1316
 1283ERGO   ROH16983   9.791   4.380   6.783 -0.0545 -0.1662  0.0398
 1283ERGO    R116984   9.780   4.237   7.027 -0.0234 -0.0693  0.0985
 1283ERGO    R216985   9.905   4.324   7.257 -0.0596  0.0618  0.0672
 1283ERGO    R316986   9.656   4.297   7.364 -0.0559  0.0327  0.0692
 1283ERGO    R416987   9.836   4.314   7.595 -0.0267 -0.1906  0.0687
 1283ERGO    R516988   9.689   4.157   7.556 -0.0666 -0.1286 -0.0427
 1283ERGO    C116989   9.562   4.283   7.893 -0.0039 -0.3649  0.0714
 1283ERGO    C216990   9.520   4.275   8.232 -0.2899 -0.0798  0.2404
 1284ERGO   ROH16991  15.219   6.759   6.138 -0.0920 -0.1375 -0.0755
 1284ERGO    R116992  15.175   6.713   6.414 -0.0405 -0.0684 -0.0552
 1284ERGO    R216993  15.297   6.507   6.551 -0.0021 -0.0251 -0.0216
 1284ERGO    R316994  15.377   6.707   6.716  0.0136  0.0248 -0.0894
 1284ERGO    R416995  15.392   6.464   6.880  0.0859  0.0677 -0.0345
 1284ERGO    R516996  15.285   6.648   6.930  0.0751  0.0649 -0.0523
 1284ERGO    C116997  15.523   6.627   7.228  0.1518  0.1686 -0.1056
 1284ERGO    C216998  15.884   6.563   7.402 -0.1273  0.1119  0.0567
 1285ERGO   ROH16999   6.718   6.210   6.408 -0.0066 -0.0713 -0.1255
 1285ERGO    R117000   6.830   6.082   6.635 -0.0763 -0.0722 -0.0913
 1285ERGO    R217001   7.044   6.187   6.774  0.0539 -0.2071 -0.1868
 1285ERGO    R317002   6.877   6.163   6.987  0.0745  0.0476 -0.1379
 1285ERGO    R417003   7.143   6.199   7.105  0.1523 -0.2433 -0.2144
 1285ERGO    R517004   7.003   6.038   7.148 -0.0350 -0.0664 -0.1394
 1285ERGO    C117005   7.043   6.183   7.498  0.2290 -0.0252 -0.1846
 1285ERGO    C217006   7.253   6.176   7.721  0.4080  0.1127  0.4746
 1286ERGO   ROH17007  11.060  13.332   9.964 -0.0990 -0.0182 -0.0307
 1286ERGO    R117008  11.068  13.186   9.722 -0.0020  0.0833 -0.0857
 1286ERGO    R217009  10.897  13.238   9.511  0.0008  0.0798 -0.0677
 1286ERGO    R317010  11.129  13.260   9.371 -0.0033  0.2433 -0.0577
 1286ERGO    R417011  10.937  13.148   9.180  0.1642 -0.3380  0.0556
 1286ERGO    R517012  11.132  13.066   9.230  0.3041  0.0258  0.2133
 1286ERGO    C117013  11.177  13.116   8.855  0.2555 -0.4277  0.1367
 1286ERGO    C217014  11.199  13.054   8.538  0.1106  0.0135 -0.0001
 1287ERGO   ROH17015   8.242   0.142   6.270 -0.0396 -0.0413 -0.0499
 1287ERGO    R117016   8.101   0.239   6.495  0.0242 -0.0468 -0.0076
 1287ERGO    R217017   7.976   0.071   6.677  0.0565 -0.0503  0.0105
 1287ERGO    R317018   8.127   0.208   6.857  0.1117 -0.0753 -0.0162
 1287ERGO    R417019   7.897   0.116   7.011  0.0694  0.0578 -0.0001
 1287ERGO    R517020   7.969   0.320   6.996  0.1573  0.0240 -0.0436
 1287ERGO    C117021   7.993   0.270   7.373  0.1288  0.0974 -0.0314
 1287ERGO    C217022   8.045   0.367   7.702 -0.3052  0.0389  0.0049
 1288ERGO   ROH17023  10.321  12.178   9.898  0.3473 -0.1578  0.0813
 1288ERGO    R117024  10.211  12.190   9.637  0.2728  0.0072  0.1196
 1288ERGO    R217025  10.294  12.376   9.449  0.4251 -0.0594  0.1205
 1288ERGO    R317026  10.333  12.154   9.296  0.1183 -0.0866  0.0730
 1288ERGO    R417027  10.242  12.358   9.108  0.0728 -0.0204  0.1678
 1288ERGO    R517028  10.157  12.160   9.135 -0.0401  0.0389  0.2472
 1288ERGO    C117029  10.249  12.140   8.766 -0.4203 -0.0232  0.1505
 1288ERGO    C217030  10.193  11.935   8.499  0.0767 -0.0854  0.0911
 1289ERGO   ROH17031   3.597   5.581  10.054 -0.0847 -0.2047 -0.0336
 1289ERGO    R117032   3.481   5.623   9.800 -0.0970 -0.1506 -0.0199
 1289ERGO    R217033   3.556   5.831   9.633 -0.1565 -0.0696  0.0494
 1289ERGO    R317034   3.596   5.631   9.454 -0.0975  0.0015 -0.0169
 1289ERGO    R417035   3.522   5.862   9.291 -0.1977  0.0232  0.0621
 1289ERGO    R517036   3.428   5.666   9.287 -0.1240 -0.0097  0.0093
 1289ERGO    C117037   3.539   5.691   8.923 -0.1663  0.1440  0.0072
 1289ERGO    C217038   3.516   5.807   8.678  0.0233 -0.0608 -0.1779
 1290ERGO   ROH17039   7.778  12.046   9.941  0.2679 -0.0794 -0.0432
 1290ERGO    R117040   7.879  12.012   9.679  0.2012  0.0254 -0.0836
 1290ERGO    R217041   7.746  11.865   9.486  0.2554 -0.0797 -0.0440
 1290ERGO    R317042   7.771  12.093   9.341  0.0023 -0.0457 -0.0380
 1290ERGO    R417043   7.783  11.877   9.143  0.0746 -0.0160 -0.0618
 1290ERGO    R517044   7.929  12.037   9.169 -0.0391  0.0964 -0.1217
 1290ERGO    C117045   7.827  12.099   8.807 -0.2682  0.0529 -0.0665
 1290ERGO    C217046   7.670  12.263   8.546 -0.1237  0.1625  0.0540
 1291ERGO   ROH17047   5.312   2.960   6.611  0.1209 -0.1988 -0.2139
 1291ERGO    R117048   5.457   2.987   6.852  0.1638 -0.2193 -0.2361
 1291ERGO    R217049   5.336   3.045   7.094  0.2335  0.0541 -0.2563
 1291ERGO    R317050   5.467   2.821   7.176 -0.0078 -0.0480 -0.1426
 1291ERGO    R417051   5.453   2.991   7.415  0.2903  0.1410 -0.2628
 1291ERGO    R517052   5.633   2.902   7.329  0.1491 -0.1409 -0.2657
 1291ERGO    C117053   5.644   2.749   7.679  0.0969  0.0957 -0.1599
 1291ERGO    C217054   5.632   2.586   8.024 -0.2637 -0.2933  0.2215
 1292ERGO   ROH17055  15.979   3.849   9.996 -0.0845 -0.1520  0.1556
 1292ERGO    R117056  15.931   3.707   9.756 -0.0903 -0.0754  0.1112
 1292ERGO    R217057  15.742   3.787   9.570 -0.0062  0.0546  0.0815
 1292ERGO    R317058  15.953   3.775   9.399  0.0318 -0.0047  0.1321
 1292ERGO    R417059  15.719   3.802   9.226  0.0606 -0.1981  0.0638
 1292ERGO    R517060  15.873   3.648   9.213  0.1085 -0.1617  0.2047
 1292ERGO    C117061  15.904   3.799   8.865  0.1351 -0.4009  0.1009
 1292ERGO    C217062  15.869   3.796   8.559 -0.0342 -0.0903 -0.1503
 1293ERGO   ROH17063   9.854   4.805   6.623  0.0340  0.0212  0.0688
 1293ERGO    R117064   9.692   4.869   6.846  0.0716 -0.0025  0.1028
 1293ERGO    R217065   9.646   4.691   7.053  0.1262 -0.0162  0.1038
 1293ERGO    R317066   9.737   4.896   7.206  0.1392 -0.0152  0.0949
 1293ERGO    R417067   9.602   4.717   7.395  0.0460  0.0532  0.0886
 1293ERGO    R517068   9.565   4.930   7.368  0.1078  0.0570  0.0451
 1293ERGO    C117069   9.661   4.925   7.737  0.0115  0.0947  0.0716
 1293ERGO    C217070   9.818   4.716   7.913  0.1040 -0.1381 -0.0786
 1294ERGO   ROH17071   4.071  14.797   6.697 -0.1610  0.2709  0.0450
 1294ERGO    R117072   4.014  14.859   6.967 -0.0886  0.1542  0.0885
 1294ERGO    R217073   3.910  14.674   7.144 -0.2466  0.1359 -0.0230
 1294ERGO    R317074   4.125  14.746   7.294 -0.1725 -0.1532  0.0140
 1294ERGO    R417075   3.953  14.594   7.477 -0.6480  0.4556  0.1151
 1294ERGO    R517076   4.033  14.794   7.510 -0.2143  0.3335 -0.0985
 1294ERGO    C117077   4.180  14.614   7.812 -0.8122  0.3704  0.2302
 1294ERGO    C217078   4.296  14.618   8.206 -0.2276  0.1088  0.1724
 1295ERGO   ROH17079   9.175  13.999   9.705  0.0462 -0.1105 -0.0275
 1295ERGO    R117080   9.138  14.078   9.436 -0.1608 -0.1046  0.0024
 1295ERGO    R217081   9.349  14.141   9.268 -0.3002  0.0556 -0.1084
 1295ERGO    R317082   9.235  13.953   9.108 -0.2649 -0.0008 -0.0703
 1295ERGO    R417083   9.354  14.146   8.923 -0.1153 -0.1191 -0.1116
 1295ERGO    R517084   9.147  14.078   8.923 -0.1384 -0.0677 -0.1824
 1295ERGO    C117085   9.249  13.973   8.571  0.0257 -0.2737 -0.0776
 1295ERGO    C217086   9.270  14.011   8.226 -0.0270  0.0898 -0.0800
 1296ERGO   ROH17087  13.146  11.996   6.371  0.2108  0.1800  0.2129
 1296ERGO    R117088  13.082  11.845   6.602  0.1889 -0.0103  0.0850
 1296ERGO    R217089  13.233  11.630   6.686  0.2708  0.0159  0.0088
 1296ERGO    R317090  13.242  11.768   6.920  0.0891 -0.1335  0.1055
 1296ERGO    R417091  13.312  11.492   6.993  0.4900 -0.0903 -0.0927
 1296ERGO    R517092  13.154  11.614   7.082  0.3182 -0.3754  0.0065
 1296ERGO    C117093  13.365  11.542   7.392  0.4470 -0.2923 -0.0610
 1296ERGO    C217094  13.368  11.372   7.712 -0.2241 -0.0716  0.0607
 1297ERGO   ROH17095  10.988  16.708   6.609  0.0208 -0.0949 -0.0635
 1297ERGO    R117096  11.244  16.714   6.730 -0.1108 -0.0905  0.2238
 1297ERGO    R217097  11.440  16.894   6.655  0.1382 -0.4018  0.0945
 1297ERGO    R317098  11.441  16.954   6.920 -0.1269  0.1101 -0.0103
 1297ERGO    R417099  11.720  16.983   6.838 -0.0018 -0.2768  0.2511
 1297ERGO    R517100  11.646  16.861   7.002 -0.2912  0.0966  0.4084
 1297ERGO    C117101  11.883  17.091   7.192 -0.3322  0.2764  0.2439
 1297ERGO    C217102  12.102  17.066   7.395  0.0838  0.1188  0.0855
 1298ERGO   ROH17103  17.794   5.517   6.238  0.0012 -0.2187  0.0323
 1298ERGO    R117104  17.671   5.401   6.465  0.0100 -0.1426  0.0769
 1298ERGO    R217105  17.773   5.430   6.720  0.0255 -0.0641  0.0647
 1298ERGO    R317106  17.523   5.521   6.776  0.0319 -0.0375  0.0465
 1298ERGO    R417107  17.658   5.511   7.036  0.0008 -0.0767  0.0582
 1298ERGO    R517108  17.468   5.418   6.985 -0.0041 -0.0471  0.0305
 1298ERGO    C117109  17.356   5.643   7.272 -0.0080 -0.0589  0.0373
 1298ERGO    C217110  17.238   5.616   7.671 -0.1516 -0.1814  0.1692
 1299ERGO   ROH17111  14.315  12.735  10.258 -0.2996  0.2178  0.0810
 1299ERGO    R117112  14.305  12.835   9.994 -0.0222  0.1467  0.0424
 1299ERGO    R217113  14.517  12.814   9.819  0.0403 -0.2017  0.1668
 1299ERGO    R317114  14.331  12.698   9.657 -0.0328  0.0026  0.0968
 1299ERGO    R417115  14.534  12.806   9.474  0.2334 -0.3078  0.1761
 1299ERGO    R517116  14.319  12.844   9.467  0.2741 -0.0167  0.0480
 1299ERGO    C117117  14.370  12.692   9.121  0.2770 -0.1776  0.1158
 1299ERGO    C217118  14.484  12.738   8.718 -0.0349 -0.0636  0.0235
 1300ERGO   ROH17119  13.826   3.025   6.574 -0.1553  0.1168  0.0782
 1300ERGO    R117120  13.970   3.038   6.817 -0.0897  0.0319  0.0439
 1300ERGO    R217121  13.846   3.050   7.063 -0.0232  0.0184  0.0761
 1300ERGO    R317122  14.002   2.834   7.116 -0.0664 -0.0333 -0.0020
 1300ERGO    R417123  13.958   2.959   7.377  0.0525 -0.0498  0.0302
 1300ERGO    R517124  14.150   2.908   7.289  0.0114 -0.0940 -0.0398
 1300ERGO    C117125  14.170   2.704   7.610  0.0559 -0.1380 -0.0698
 1300ERGO    C217126  14.450   2.655   7.978 -0.2202  0.3283 -0.0340
 1301ERGO   ROH17127   4.192   4.968   9.867  0.1023 -0.0110 -0.1502
 1301ERGO    R117128   4.209   5.054   9.598  0.0916  0.0314 -0.1374
 1301ERGO    R217129   4.330   4.903   9.401  0.1050  0.0731 -0.1613
 1301ERGO    R317130   4.092   4.936   9.274  0.1008  0.0686 -0.1543
 1301ERGO    R417131   4.266   4.811   9.074  0.1060  0.0987 -0.1686
 1301ERGO    R517132   4.151   4.995   9.050  0.0932  0.0931 -0.1498
 1301ERGO    C117133   4.005   4.789   8.764  0.1025  0.1094 -0.1664
 1301ERGO    C217134   4.078   4.652   8.424  0.0430  0.1429  0.1254
 1302ERGO   ROH17135   9.676  14.045   6.043 -0.0159 -0.1240 -0.0516
 1302ERGO    R117136   9.677  14.124   6.315  0.0107 -0.0094 -0.0829
 1302ERGO    R217137   9.452  14.107   6.476  0.0417 -0.0177 -0.0262
 1302ERGO    R317138   9.619  13.965   6.637  0.1251  0.1018 -0.0092
 1302ERGO    R417139   9.376  14.000   6.795  0.0253 -0.2380 -0.1040
 1302ERGO    R517140   9.578  14.051   6.856 -0.0647 -0.0395  0.0062
 1302ERGO    C117141   9.488  13.804   7.132  0.0939 -0.2542 -0.1332
 1302ERGO    C217142   9.156  13.840   7.313 -0.1088 -0.2219  0.0824
 1303ERGO   ROH17143   9.269  10.932  10.013  0.0862 -0.1299  0.0586
 1303ERGO    R117144   9.162  10.955   9.752 -0.1087 -0.2608  0.1230
 1303ERGO    R217145   9.277  11.116   9.557 -0.5259  0.0342  0.0955
 1303ERGO    R317146   9.275  10.885   9.413 -0.1483  0.0610  0.0424
 1303ERGO    R417147   9.321  11.094   9.215 -0.2438  0.1408  0.1241
 1303ERGO    R517148   9.166  10.942   9.209 -0.0574 -0.0348 -0.0254
 1303ERGO    C117149   9.346  10.864   8.881  0.2749  0.2281  0.0908
 1303ERGO    C217150   9.366  10.830   8.589  0.1045  0.3312  0.2135
 1304ERGO   ROH17151   6.930   3.048   6.382 -0.1145 -0.3172 -0.1684
 1304ERGO    R117152   6.959   3.059   6.663 -0.2296 -0.4398 -0.1524
 1304ERGO    R217153   6.995   3.297   6.800  0.1067 -0.5356 -0.0802
 1304ERGO    R317154   6.779   3.210   6.941 -0.1112 -0.2085 -0.1966
 1304ERGO    R417155   6.870   3.449   7.084  0.2221 -0.3633 -0.1183
 1304ERGO    R517156   6.836   3.252   7.170 -0.1440 -0.3345 -0.1592
 1304ERGO    C117157   6.594   3.456   7.382  0.0848  0.0440 -0.2497
 1304ERGO    C217158   6.310   3.485   7.729 -0.0497 -0.2278 -0.1674
 1305ERGO   ROH17159   6.623  10.084  10.173  0.0623 -0.1020  0.1210
 1305ERGO    R117160   6.522  10.057   9.910 -0.0435  0.0454  0.1446
 1305ERGO    R217161   6.588  10.233   9.707  0.0733  0.0193  0.1564
 1305ERGO    R317162   6.662  10.005   9.578 -0.1903 -0.0346  0.0951
 1305ERGO    R417163   6.574  10.187   9.365  0.0458  0.1336  0.1420
 1305ERGO    R517164   6.503   9.984   9.400 -0.2025  0.2079  0.0754
 1305ERGO    C117165   6.635   9.947   9.044 -0.2177  0.1495  0.0760
 1305ERGO    C217166   6.539   9.818   8.709  0.2244 -0.3008  0.1310
 1306ERGO   ROH17167   6.357   2.059  10.310 -0.1847 -0.0698 -0.0210
 1306ERGO    R117168   6.511   2.152  10.091  0.0356 -0.2215  0.0613
 1306ERGO    R217169   6.582   1.989   9.879 -0.2545 -0.2413 -0.0459
 1306ERGO    R317170   6.466   2.186   9.732  0.1311  0.1030  0.0770
 1306ERGO    R417171   6.553   1.989   9.535 -0.2838  0.0393 -0.0422
 1306ERGO    R517172   6.600   2.201   9.535  0.1527 -0.0464  0.0834
 1306ERGO    C117173   6.428   2.174   9.196  0.0611  0.5259  0.0753
 1306ERGO    C217174   6.412   2.091   8.940  0.1190  0.0399  0.1055
 1307ERGO   ROH17175  11.352   9.940   9.894 -0.1758  0.1564  0.0280
 1307ERGO    R117176  11.342   9.817   9.639  0.2292 -0.0960  0.1232
 1307ERGO    R217177  11.225   9.939   9.420 -0.1873 -0.6416  0.0166
 1307ERGO    R317178  11.467   9.890   9.305  0.0014  0.0609  0.0715
 1307ERGO    R417179  11.276   9.888   9.082  0.0476 -0.5394  0.0345
 1307ERGO    R517180  11.419   9.731   9.132  0.5147 -0.1149  0.0810
 1307ERGO    C117181  11.532   9.813   8.777  0.3614  0.1796  0.0963
 1307ERGO    C217182  11.668   9.850   8.445 -0.0156  0.1559 -0.1661
 1308ERGO   ROH17183   4.664   9.362   6.621  0.0173 -0.1000  0.1522
 1308ERGO    R117184   4.828   9.364   6.852  0.1395 -0.1088  0.0668
 1308ERGO    R217185   4.842   9.581   7.023  0.2660 -0.0960  0.0438
 1308ERGO    R317186   4.779   9.395   7.211  0.3323 -0.0710  0.0906
 1308ERGO    R417187   4.893   9.619   7.362 -0.0224  0.1321  0.0654
 1308ERGO    R517188   4.956   9.410   7.371  0.2010  0.2038  0.2152
 1308ERGO    C117189   4.864   9.467   7.737 -0.1281  0.2883  0.1218
 1308ERGO    C217190   4.899   9.668   8.002 -0.2835 -0.1735 -0.0579
 1309ERGO   ROH17191  10.027  13.772   9.972  0.1033  0.3237  0.0553
 1309ERGO    R117192  10.134  13.863   9.727  0.2337  0.0866  0.0215
 1309ERGO    R217193  10.273  13.698   9.554 -0.1396 -0.2155  0.0034
 1309ERGO    R317194  10.090  13.786   9.374 -0.0076  0.1428  0.0366
 1309ERGO    R417195  10.328  13.726   9.214 -0.1451 -0.3638 -0.0109
 1309ERGO    R517196  10.217  13.914   9.217  0.2305 -0.1268 -0.0035
 1309ERGO    C117197  10.187  13.826   8.847 -0.0243 -0.1137  0.0119
 1309ERGO    C217198  10.095  13.919   8.433 -0.2357  0.3231  0.2185
 1310ERGO   ROH17199  14.636  16.856   6.817 -0.0857 -0.0211  0.0048
 1310ERGO    R117200  14.624  16.787   7.092 -0.0582 -0.3134 -0.0649
 1310ERGO    R217201  14.460  16.918   7.271  0.2685 -0.2192  0.1689
 1310ERGO    R317202  14.371  16.667   7.323 -0.1521 -0.1295 -0.0687
 1310ERGO    R417203  14.300  16.821   7.562  0.2774 -0.2576  0.1617
 1310ERGO    R517204  14.413  16.636   7.557 -0.0524 -0.4695 -0.1233
 1310ERGO    C117205  14.122  16.529   7.780 -0.1121 -0.1959 -0.0655
 1310ERGO    C217206  13.960  16.269   7.884 -0.1305 -0.0544 -0.1551
 1311ERGO   ROH17207  12.093  17.876   6.511  0.1406 -0.0310 -0.0137
 1311ERGO    R117208  12.135  17.932   6.785  0.0474  0.0805 -0.0219
 1311ERGO    R217209  12.004  18.137   6.917 -0.0882  0.0558 -0.1207
 1311ERGO    R317210  11.934  17.937   7.088 -0.0261  0.0765 -0.0698
 1311ERGO    R417211  11.913  18.182   7.248 -0.1110  0.1167 -0.1348
 1311ERGO    R517212  12.026  18.003   7.298 -0.0512  0.1656 -0.0842
 1311ERGO    C117213  11.794  18.021   7.600 -0.0659  0.1715 -0.0952
 1311ERGO    C217214  11.672  18.074   7.971  0.3209  0.0620  0.1854
 1312ERGO   ROH17215   7.098   8.981   6.578  0.1505 -0.2608  0.1284
 1312ERGO    R117216   7.127   8.982   6.860  0.0105 -0.2061  0.1431
 1312ERGO    R217217   6.915   9.030   7.031 -0.0851 -0.2253  0.0294
 1312ERGO    R317218   6.992   8.793   7.140 -0.0851 -0.1889  0.1099
 1312ERGO    R417219   6.833   8.922   7.349 -0.1406 -0.1434  0.0432
 1312ERGO    R517220   7.035   8.845   7.370 -0.1360 -0.1199  0.1055
 1312ERGO    C117221   6.858   8.638   7.637 -0.1728 -0.0616  0.1269
 1312ERGO    C217222   6.697   8.569   7.935  0.0663  0.0961 -0.0360
 1313ERGO   ROH17223   7.069  17.942  10.000 -0.2098 -0.0901  0.0807
 1313ERGO    R117224   7.193  17.961   9.747 -0.0904 -0.1231  0.1369
 1313ERGO    R217225   7.172  17.763   9.555 -0.1897 -0.0472  0.0718
 1313ERGO    R317226   7.085  17.968   9.399  0.0543  0.0783  0.0938
 1313ERGO    R417227   7.192  17.771   9.210 -0.2001 -0.0376  0.0700
 1313ERGO    R517228   7.247  17.982   9.223  0.0627 -0.1044  0.0858
 1313ERGO    C117229   7.122  17.969   8.863  0.0229  0.0858  0.0899
 1313ERGO    C217230   7.119  17.900   8.593  0.0834 -0.2079 -0.1744
 1314ERGO   ROH17231   4.468  13.583  10.296  0.3236  0.0753  0.1453
 1314ERGO    R117232   4.394  13.635  10.028 -0.0060 -0.1854  0.1807
 1314ERGO    R217233   4.542  13.800   9.862 -0.5249  0.1267  0.0200
 1314ERGO    R317234   4.541  13.582   9.699 -0.1184  0.0660  0.0854
 1314ERGO    R417235   4.545  13.811   9.516 -0.1959  0.0289  0.0153
 1314ERGO    R517236   4.403  13.647   9.514 -0.0172 -0.1401 -0.0745
 1314ERGO    C117237   4.546  13.613   9.163  0.3772 -0.0851  0.0738
 1314ERGO    C217238   4.489  13.659   8.888 -0.1643 -0.0973  0.1128
 1315ERGO   ROH17239  14.690   3.545   6.265  0.2146  0.0307 -0.0106
 1315ERGO    R117240  14.588   3.702   6.478  0.2416  0.1657 -0.0983
 1315ERGO    R217241  14.504   3.592   6.717 -0.0266  0.2866 -0.1436
 1315ERGO    R317242  14.680   3.769   6.823  0.0876  0.1200 -0.0450
 1315ERGO    R417243  14.562   3.633   7.055  0.0468 -0.0011 -0.1168
 1315ERGO    R517244  14.571   3.848   7.022  0.1528  0.0296  0.0365
 1315ERGO    C117245  14.761   3.824   7.352  0.1967 -0.3252 -0.0086
 1315ERGO    C217246  14.811   3.961   7.696  0.0407  0.1548  0.1130
 1316ERGO   ROH17247   6.474   0.877   6.422  0.1352 -0.0210 -0.0362
 1316ERGO    R117248   6.369   0.854   6.684  0.1781 -0.0852 -0.0254
 1316ERGO    R217249   6.464   0.670   6.867  0.3196 -0.0153 -0.0342
 1316ERGO    R317250   6.495   0.890   7.024  0.1877  0.0071 -0.0371
 1316ERGO    R417251   6.387   0.686   7.204 -0.2245  0.1024 -0.1540
 1316ERGO    R517252   6.306   0.885   7.171 -0.0649  0.1448 -0.3389
 1316ERGO    C117253   6.371   0.901   7.546 -0.6652  0.1920 -0.2265
 1316ERGO    C217254   6.447   0.850   7.933  0.0756  0.1485 -0.1665
 1317ERGO   ROH17255   9.501   3.460   6.605  0.0205  0.2422  0.3093
 1317ERGO    R117256   9.353   3.519   6.839 -0.0122  0.1918  0.3022
 1317ERGO    R217257   9.221   3.325   6.985 -0.0826  0.1661  0.2113
 1317ERGO    R317258   9.366   3.428   7.191 -0.0975  0.0646  0.2722
 1317ERGO    R417259   9.201   3.219   7.314  0.0032 -0.0928  0.1355
 1317ERGO    R517260   9.215   3.428   7.377 -0.0709 -0.1367  0.2934
 1317ERGO    C117261   9.325   3.255   7.698  0.0392 -0.3388  0.1486
 1317ERGO    C217262   9.231   3.405   8.023  0.0689  0.3120 -0.0973
 1318ERGO   ROH17263  13.443   5.884   6.536  0.0101  0.0539 -0.1316
 1318ERGO    R117264  13.428   5.751   6.785 -0.0047  0.1090 -0.1016
 1318ERGO    R217265  13.637   5.748   6.965  0.0038  0.1115 -0.1028
 1318ERGO    R317266  13.450   5.845   7.137  0.0231  0.1832 -0.1244
 1318ERGO    R417267  13.648   5.713   7.309 -0.2025 -0.1497 -0.1204
 1318ERGO    R517268  13.433   5.677   7.307 -0.2384  0.0782 -0.2533
 1318ERGO    C117269  13.478   5.785   7.670 -0.3046 -0.2345 -0.1508
 1318ERGO    C217270  13.425   5.585   8.017  0.1502  0.1846 -0.0919
 1319ERGO   ROH17271   3.604   3.005   6.208  0.0555  0.4153 -0.0295
 1319ERGO    R117272   3.742   2.928   6.443  0.0630  0.2856 -0.0757
 1319ERGO    R217273   3.977   3.049   6.523  0.0215  0.2969  0.0251
 1319ERGO    R317274   3.841   3.087   6.755 -0.0029  0.0890  0.0473
 1319ERGO    R417275   4.118   3.041   6.838  0.0628  0.3815  0.0096
 1319ERGO    R517276   3.942   2.934   6.909  0.1865  0.1635  0.0020
 1319ERGO    C117277   4.072   3.072   7.240  0.0639  0.2357  0.0214
 1319ERGO    C217278   4.258   2.882   7.642  0.0519 -0.1384  0.3808
 1320ERGO   ROH17279   0.608  17.691   6.605  0.1492 -0.1182  0.1191
 1320ERGO    R117280   0.528  17.731   6.874  0.1958 -0.1344  0.1354
 1320ERGO    R217281   0.263  17.741   6.950  0.2055  0.1042  0.1441
 1320ERGO    R317282   0.339  17.546   7.124  0.0158 -0.0365  0.0724
 1320ERGO    R417283   0.060  17.602   7.193  0.0384  0.1301  0.0208
 1320ERGO    R517284   0.230  17.603   7.329  0.0006 -0.0591  0.0695
 1320ERGO    C117285   0.012  17.338   7.497 -0.2370  0.0130 -0.1183
 1320ERGO    C217286  -0.086  17.194   7.798  0.0089 -0.1939 -0.0355
 1321ERGO   ROH17287   6.748   2.281   6.587 -0.0993  0.2864  0.0602
 1321ERGO    R117288   6.574   2.200   6.795 -0.1385  0.1760 -0.0138
 1321ERGO    R217289   6.658   2.172   7.056 -0.1662 -0.0429 -0.0216
 1321ERGO    R317290   6.451   2.340   7.107 -0.1237 -0.0226  0.0816
 1321ERGO    R417291   6.581   2.300   7.367 -0.1141 -0.1766  0.0463
 1321ERGO    R517292   6.369   2.270   7.321 -0.1208 -0.1064  0.0519
 1321ERGO    C117293   6.341   2.533   7.597 -0.0439 -0.2354  0.1827
 1321ERGO    C217294   6.123   2.752   7.745 -0.0060 -0.3527  0.0859
 1322ERGO   ROH17295  11.729   6.557   6.342  0.0344  0.2456 -0.1547
 1322ERGO    R117296  11.586   6.550   6.587 -0.0448  0.1558 -0.2001
 1322ERGO    R217297  11.685   6.425   6.813 -0.1078  0.0799 -0.1989
 1322ERGO    R317298  11.639   6.668   6.927 -0.1515  0.0453 -0.1484
 1322ERGO    R417299  11.692   6.491   7.153  0.0741  0.0752 -0.2028
 1322ERGO    R517300  11.519   6.620   7.127  0.0062 -0.0135 -0.0785
 1322ERGO    C117301  11.653   6.757   7.456  0.1391  0.0400 -0.1577
 1322ERGO    C217302  11.768   6.862   7.737 -0.2253  0.1936  0.0583
 1323ERGO   ROH17303   3.988   0.790   6.458 -0.4039 -0.0806  0.0352
 1323ERGO    R117304   4.171   0.851   6.665 -0.2236 -0.3346 -0.0441
 1323ERGO    R217305   4.162   1.088   6.807  0.2545 -0.2507 -0.1279
 1323ERGO    R317306   4.152   0.921   7.021  0.0081 -0.1612 -0.0661
 1323ERGO    R417307   4.283   1.164   7.122  0.1578 -0.2450 -0.0918
 1323ERGO    R517308   4.359   0.960   7.136 -0.0217 -0.2979  0.0255
 1323ERGO    C117309   4.344   1.052   7.506 -0.1299 -0.1576 -0.0127
 1323ERGO    C217310   4.451   1.031   7.881  0.0243  0.2049 -0.0362
 1324ERGO   ROH17311   5.673  17.046   6.684  0.2335  0.2313  0.0485
 1324ERGO    R117312   5.540  17.246   6.833  0.0619  0.1217  0.0455
 1324ERGO    R217313   5.292  17.206   6.949  0.0439 -0.0520 -0.0452
 1324ERGO    R317314   5.420  17.285   7.175 -0.0764 -0.0225  0.0132
 1324ERGO    R417315   5.138  17.350   7.222 -0.1036 -0.0803 -0.1120
 1324ERGO    R517316   5.308  17.486   7.239 -0.1433 -0.0474 -0.0360
 1324ERGO    C117317   5.169  17.509   7.594 -0.3025 -0.0690 -0.0959
 1324ERGO    C217318   4.864  17.746   7.764  0.1052  0.2369  0.0973
 1325ERGO   ROH17319   9.319   2.362   6.711 -0.3315  0.0356 -0.0567
 1325ERGO    R117320   9.157   2.320   6.940 -0.1227 -0.0267  0.0860
 1325ERGO    R217321   9.224   2.140   7.138  0.0581 -0.0987 -0.0192
 1325ERGO    R317322   9.193   2.357   7.300  0.2254 -0.1370  0.0621
 1325ERGO    R417323   9.151   2.126   7.476 -0.1222 -0.1436 -0.0602
 1325ERGO    R517324   9.016   2.295   7.449  0.0903  0.0124 -0.0500
 1325ERGO    C117325   9.080   2.321   7.824 -0.0701 -0.2057 -0.0077
 1325ERGO    C217326   9.096   2.393   8.166  0.0235 -0.1134  0.1397
 1326ERGO   ROH17327   1.118   3.344   6.349 -0.2443  0.3143  0.0308
 1326ERGO    R117328   1.232   3.384   6.605 -0.1669  0.2530  0.0045
 1326ERGO    R217329   1.084   3.467   6.822 -0.1061  0.1619  0.0736
 1326ERGO    R317330   1.188   3.245   6.939 -0.0324  0.1449 -0.0201
 1326ERGO    R417331   1.119   3.421   7.163 -0.1668  0.0065  0.0607
 1326ERGO    R517332   1.313   3.328   7.125 -0.1108  0.1107  0.0542
 1326ERGO    C117333   1.238   3.184   7.471 -0.1331 -0.0998 -0.0348
 1326ERGO    C217334   1.381   3.227   7.804 -0.0632  0.1728  0.0961
 1327ERGO   ROH17335  13.387   9.199   6.203 -0.1535  0.0968 -0.0536
 1327ERGO    R117336  13.394   9.294   6.470 -0.1464  0.0935 -0.0518
 1327ERGO    R217337  13.217   9.206   6.664 -0.1876  0.1412 -0.0625
 1327ERGO    R317338  13.446   9.151   6.800 -0.2115  0.0747 -0.0506
 1327ERGO    R417339  13.243   9.190   7.008 -0.1866  0.2174 -0.0596
 1327ERGO    R517340  13.435   9.291   6.994 -0.1441  0.1265 -0.0876
 1327ERGO    C117341  13.473   9.129   7.337 -0.2085  0.1994 -0.0468
 1327ERGO    C217342  13.414   9.194   7.647 -0.0631 -0.1801  0.0536
 1328ERGO   ROH17343   9.506   8.299   6.542 -0.4231 -0.2194  0.0682
 1328ERGO    R117344   9.429   8.329   6.813 -0.2667 -0.0436  0.0962
 1328ERGO    R217345   9.607   8.406   7.010 -0.1356  0.0296 -0.0426
 1328ERGO    R317346   9.420   8.598   7.057 -0.0637  0.1022 -0.0557
 1328ERGO    R417347   9.572   8.580   7.307 -0.1717 -0.0375 -0.0078
 1328ERGO    R517348   9.356   8.565   7.285 -0.1667  0.0694 -0.0928
 1328ERGO    C117349   9.376   8.861   7.523 -0.1251 -0.0085 -0.0000
 1328ERGO    C217350   9.472   9.110   7.696  0.2628 -0.1688  0.1588
 1329ERGO   ROH17351   8.499  15.718   6.458 -0.1546  0.1230  0.0343
 1329ERGO    R117352   8.688  15.683   6.665 -0.1058  0.0765 -0.0170
 1329ERGO    R217353   8.632  15.742   6.930 -0.0172  0.0961 -0.0003
 1329ERGO    R317354   8.712  15.486   6.970 -0.0746  0.0754 -0.0206
 1329ERGO    R417355   8.752  15.619   7.229  0.1870  0.1081 -0.0764
 1329ERGO    R517356   8.901  15.505   7.117  0.0540  0.0349 -0.1796
 1329ERGO    C117357   8.898  15.306   7.441  0.2519  0.0957 -0.1398
 1329ERGO    C217358   8.974  15.147   7.764 -0.0773 -0.0729  0.1772
 1330ERGO   ROH17359  16.392  17.915   6.542  0.0187  0.1515  0.0178
 1330ERGO    R117360  16.368  17.860   6.819 -0.0347  0.2804  0.0401
 1330ERGO    R217361  16.529  17.676   6.948 -0.2735  0.0990  0.0923
 1330ERGO    R317362  16.582  17.886   7.113  0.0305  0.0905  0.0099
 1330ERGO    R417363  16.592  17.651   7.287 -0.3350  0.1468  0.1070
 1330ERGO    R517364  16.472  17.830   7.318 -0.0687  0.3410  0.0258
 1330ERGO    C117365  16.678  17.833   7.639 -0.0851  0.1666  0.0381
 1330ERGO    C217366  16.968  17.817   7.772  0.2656 -0.1423  0.2391
 1331ERGO   ROH17367   3.224  16.800   6.114  0.0307 -0.0776  0.0676
 1331ERGO    R117368   3.086  16.847   6.357 -0.0649 -0.1637  0.0309
 1331ERGO    R217369   3.050  16.651   6.548  0.0385 -0.1783  0.0386
 1331ERGO    R317370   3.164  16.835   6.712 -0.1401 -0.0766  0.0501
 1331ERGO    R417371   3.009  16.661   6.891 -0.1122 -0.1273  0.0197
 1331ERGO    R517372   2.996  16.878   6.878 -0.2346 -0.1390 -0.0304
 1331ERGO    C117373   3.092  16.840   7.245 -0.3674 -0.0021  0.0194
 1331ERGO    C217374   3.170  16.583   7.424  0.1523  0.1898 -0.1528
 1332ERGO   ROH17375   5.890  13.769   6.393 -0.3587  0.1261 -0.0012
 1332ERGO    R117376   6.108  13.869   6.544 -0.2745 -0.0644  0.0071
 1332ERGO    R217377   6.108  14.123   6.653  0.0329  0.0175 -0.1749
 1332ERGO    R317378   6.160  13.989   6.884 -0.2391  0.1065 -0.0574
 1332ERGO    R417379   6.203  14.271   6.951  0.1086  0.1061 -0.2424
 1332ERGO    R517380   6.344  14.108   6.981 -0.1173 -0.0649 -0.0703
 1332ERGO    C117381   6.307  14.231   7.340 -0.1027  0.2412 -0.1713
 1332ERGO    C217382   6.436  14.304   7.534 -0.3164  0.0732 -0.0905
 1333ERGO   ROH17383  16.196  16.647   7.003  0.3286 -0.0642 -0.0217
 1333ERGO    R117384  16.198  16.647   7.286  0.2851 -0.1115 -0.0220
 1333ERGO    R217385  16.179  16.415   7.435  0.2715 -0.1337 -0.0665
 1333ERGO    R317386  16.407  16.508   7.549  0.2488 -0.1461 -0.0091
 1333ERGO    R417387  16.260  16.383   7.769  0.1511 -0.0967 -0.0329
 1333ERGO    R517388  16.338  16.586   7.765  0.1823 -0.1020 -0.0411
 1333ERGO    C117389  16.521  16.451   8.071  0.0598 -0.0865  0.0404
 1333ERGO    C217390  16.713  16.490   8.353  0.0506  0.1498 -0.1595
 1334ERGO   ROH17391  17.567   9.447   6.802 -0.1784  0.2419 -0.0565
 1334ERGO    R117392  17.685   9.352   7.041 -0.1193  0.2602 -0.0782
 1334ERGO    R217393  17.794   9.521   7.230 -0.1916  0.2833 -0.0568
 1334ERGO    R317394  17.625   9.389   7.398 -0.1195  0.1732 -0.0692
 1334ERGO    R417395  17.846   9.476   7.569 -0.0151  0.0012 -0.1176
 1334ERGO    R517396  17.770   9.273   7.549 -0.0544  0.0283 -0.2396
 1334ERGO    C117397  17.718   9.326   7.923  0.1556 -0.2664 -0.1647
 1334ERGO    C217398  17.435   9.345   8.228 -0.1414  0.4624  0.4098
 1335ERGO   ROH17399  10.292  11.066   9.905 -0.0285 -0.0246  0.0472
 1335ERGO    R117400  10.198  11.118   9.643 -0.0365  0.1200  0.0785
 1335ERGO    R217401  10.335  11.279   9.465  0.0559  0.0619  0.0987
 1335ERGO    R317402  10.316  11.061   9.304 -0.1434  0.1203  0.0404
 1335ERGO    R417403  10.407  11.277   9.127  0.0084  0.1000  0.0881
 1335ERGO    R517404  10.234  11.149   9.096 -0.1029  0.2472  0.0753
 1335ERGO    C117405  10.431  11.072   8.778 -0.2064  0.1770  0.0273
 1335ERGO    C217406  10.445  11.024   8.403  0.1605  0.0512 -0.0213
 1336ERGO   ROH17407  14.774   1.800  10.282  0.0640  0.0728 -0.0282
 1336ERGO    R117408  14.720   1.655  10.045  0.0169  0.0491 -0.0033
 1336ERGO    R217409  14.548   1.748   9.850 -0.0416  0.0186  0.0317
 1336ERGO    R317410  14.762   1.708   9.688 -0.0778  0.0255 -0.0180
 1336ERGO    R417411  14.537   1.744   9.504 -0.1201  0.0045  0.0343
 1336ERGO    R517412  14.676   1.577   9.507 -0.1106  0.0143  0.0072
 1336ERGO    C117413  14.732   1.704   9.151 -0.1998  0.0027 -0.0109
 1336ERGO    C217414  14.646   1.674   8.833  0.2361  0.1017  0.1193
 1337ERGO   ROH17415   9.623   1.552   6.467 -0.2025 -0.0777  0.0372
 1337ERGO    R117416   9.685   1.404   6.701 -0.1927 -0.0984  0.0216
 1337ERGO    R217417   9.843   1.505   6.904 -0.0421 -0.1790 -0.0527
 1337ERGO    R317418   9.630   1.439   7.059 -0.0180 -0.0362  0.0432
 1337ERGO    R417419   9.863   1.400   7.232  0.0371 -0.2414 -0.0771
 1337ERGO    R517420   9.707   1.254   7.190 -0.0970 -0.1146 -0.0215
 1337ERGO    C117421   9.674   1.277   7.569  0.1059 -0.1436 -0.0014
 1337ERGO    C217422   9.614   1.184   7.768  0.1675 -0.0196  0.4460
 1338ERGO   ROH17423  13.644  16.221   6.514 -0.0061  0.0028  0.1572
 1338ERGO    R117424  13.503  16.212   6.759 -0.0283 -0.2479  0.1377
 1338ERGO    R217425  13.512  15.994   6.928  0.4285 -0.1949  0.1923
 1338ERGO    R317426  13.587  16.180   7.112 -0.0053  0.0236  0.1592
 1338ERGO    R417427  13.497  15.950   7.271  0.2321 -0.0435  0.2042
 1338ERGO    R517428  13.427  16.156   7.289 -0.1100 -0.1377  0.0469
 1338ERGO    C117429  13.558  16.100   7.642 -0.2895  0.2497  0.1802
 1338ERGO    C217430  13.492  16.086   8.056 -0.0737 -0.3821  0.1560
 1339ERGO   ROH17431  10.404   3.441   6.426  0.1497 -0.0297 -0.0220
 1339ERGO    R117432  10.333   3.317   6.671  0.0405 -0.0090 -0.0402
 1339ERGO    R217433  10.486   3.343   6.900  0.0299 -0.1219 -0.0100
 1339ERGO    R317434  10.251   3.427   7.008  0.0646  0.0176 -0.0451
 1339ERGO    R417435  10.411   3.341   7.237 -0.0417 -0.1016 -0.0273
 1339ERGO    R517436  10.210   3.274   7.187 -0.0700  0.0335 -0.0683
 1339ERGO    C117437  10.146   3.417   7.535 -0.0509  0.0411 -0.0705
 1339ERGO    C217438   9.933   3.424   7.903 -0.0163  0.0254 -0.0880
 1340ERGO   ROH17439   2.563  15.649   6.501  0.0138 -0.1727 -0.0297
 1340ERGO    R117440   2.692  15.561   6.737  0.1498 -0.0474 -0.0556
 1340ERGO    R217441   2.916  15.687   6.840  0.0724  0.1506 -0.1203
 1340ERGO    R317442   2.765  15.698   7.066  0.1169  0.0385 -0.0845
 1340ERGO    R417443   3.041  15.686   7.162  0.1378  0.1173 -0.1458
 1340ERGO    R517444   2.878  15.554   7.220  0.2009  0.0434 -0.1435
 1340ERGO    C117445   2.973  15.696   7.561  0.2176 -0.0074 -0.1271
 1340ERGO    C217446   3.162  15.705   7.892  0.0127 -0.1253  0.1281
 1341ERGO   ROH17447  14.054   3.808  10.246  0.1636  0.2493 -0.0573
 1341ERGO    R117448  13.958   3.778   9.981  0.0059  0.1957  0.0049
 1341ERGO    R217449  13.902   3.994   9.818  0.0729  0.1617 -0.0646
 1341ERGO    R317450  14.071   3.867   9.647 -0.1031 -0.0349 -0.0955
 1341ERGO    R417451  13.872   3.997   9.474 -0.1608 -0.0569 -0.0488
 1341ERGO    R517452  13.928   3.786   9.473 -0.2625 -0.0861  0.0552
 1341ERGO    C117453  14.013   3.879   9.113 -0.4619 -0.3688 -0.0686
 1341ERGO    C217454  14.064   3.864   8.801 -0.0331 -0.0297  0.1077
 1342ERGO   ROH17455  17.138  13.366   6.957  0.1561  0.0944 -0.0412
 1342ERGO    R117456  17.077  13.252   7.208 -0.0755  0.1948 -0.0501
 1342ERGO    R217457  17.262  13.234   7.413 -0.1399 -0.0987 -0.0145
 1342ERGO    R317458  17.069  13.364   7.555  0.0375  0.2137 -0.0541
 1342ERGO    R417459  17.171  13.159   7.738 -0.3462  0.0278 -0.0411
 1342ERGO    R517460  16.963  13.191   7.682 -0.2826  0.3784 -0.0898
 1342ERGO    C117461  16.937  13.237   8.060 -0.2998  0.3950 -0.0938
 1342ERGO    C217462  16.931  13.170   8.411 -0.3542  0.2173 -0.0356
 1343ERGO   ROH17463   0.942   9.506   6.653  0.1740  0.0863  0.0893
 1343ERGO    R117464   0.985   9.573   6.925  0.0389  0.0413  0.1239
 1343ERGO    R217465   0.782   9.568   7.113 -0.0298 -0.1345  0.0568
 1343ERGO    R317466   0.954   9.405   7.246  0.0286 -0.0680  0.0651
 1343ERGO    R417467   0.734   9.450   7.434 -0.0532 -0.2614  0.0059
 1343ERGO    R517468   0.945   9.481   7.473 -0.0883 -0.1427  0.0831
 1343ERGO    C117469   0.867   9.227   7.746 -0.0121 -0.2729 -0.0161
 1343ERGO    C217470   0.719   9.082   7.956  0.2257  0.1907  0.1214
 1344ERGO   ROH17471   7.509  12.933   9.861  0.2322  0.0077 -0.0241
 1344ERGO    R117472   7.649  13.058   9.649 -0.0456  0.1641 -0.1178
 1344ERGO    R217473   7.764  12.915   9.442  0.1157  0.2797 -0.0959
 1344ERGO    R317474   7.614  13.082   9.288 -0.2071 -0.0183 -0.1189
 1344ERGO    R417475   7.781  12.934   9.097  0.2508  0.3974 -0.0851
 1344ERGO    R517476   7.763  13.151   9.113 -0.2618  0.3727 -0.0311
 1344ERGO    C117477   7.651  13.102   8.752  0.0265  0.1863 -0.1003
 1344ERGO    C217478   7.599  13.089   8.421 -0.0247 -0.0744  0.1356
 1345W        W17479  17.954  15.999   3.137 -0.0594  0.1370 -0.0726
 1346W        W17480   8.370  10.813   1.469 -0.4868  0.2146 -0.0920
 1347W        W17481   0.900  17.688  16.015 -0.0619  0.0187  0.1578
 1348W        W17482   4.737  17.772   2.425 -0.3680 -0.2341 -0.2225
 1349W        W17483  13.070   7.780  11.895  0.0326  0.0061  0.1730
 1350W        W17484   6.901   5.450   2.741 -0.0635  0.1446  0.0760
 1351W        W17485  16.985   1.534   0.865  0.0390  0.3072  0.0073
 1352W        W17486   0.457   2.344   1.107 -0.1237 -0.1797  0.4023
 1353W        W17487  10.791   3.420  14.556  0.2929  0.2603  0.3059
 1354W        W17488  11.486   8.780  13.681  0.0550 -0.2891 -0.0000
 1355W        W17489  10.387  14.819   2.710  0.2516 -0.0641  0.3244
 1356W        W17490   3.905  12.017   1.868 -0.2455 -0.2180 -0.2858
 1357W        W17491   8.625   2.203   2.028  0.2421  0.2971  0.0757
 1358W        W17492   7.449  16.660  10.958  0.0508  0.0998  0.2137
 1359W        W17493   1.914   9.691  12.071 -0.3654  0.0577 -0.1679
 1360W        W17494  16.007   8.624   1.429 -0.2463 -0.0619  0.1159
 1361W        W17495   2.511   4.057  15.338  0.0199  0.1048  0.0681
 1362W        W17496  16.579   7.208  15.365  0.0379 -0.1083  0.3101
 1363W        W17497   7.890  16.390  14.617 -0.0917  0.1833 -0.2695
 1364W        W17498   5.882  16.968  15.023 -0.1328  0.0234 -0.0080
 1365W        W17499   5.441   1.753   4.978 -0.0133 -0.0134  0.0129
 1366W        W17500   6.004   6.200   1.678 -0.2492 -0.3029  0.5115
 1367W        W17501   3.988   8.815   0.073  0.0548 -0.1064  0.1378
 1368W        W17502   6.022  10.100  16.164  0.1423 -0.0418  0.2133
 1369W        W17503   6.573  14.264   5.424 -0.1213  0.0860 -0.1728
 1370W        W17504  14.276   4.034  11.670  0.0842 -0.0201 -0.0724
 1371W        W17505   4.584   3.637   4.964 -0.1033 -0.3029  0.0021
 1372W        W17506  17.343   6.877  11.399  0.1628 -0.0609 -0.0668
 1373W        W17507   8.571  13.917   0.267  0.0821 -0.3765  0.0312
 1374W        W17508   2.688  11.091   4.662 -0.1143  0.2593  0.2954
 1375W        W17509   5.512  11.651   4.786  0.3963 -0.2176  0.1504
 1376W        W17510  17.656  14.412  13.558 -0.0761 -0.3281 -0.0408
 1377W        W17511  13.353  12.732  12.907 -0.1819  0.0274 -0.2194
 1378W        W17512   9.056   0.153   2.303  0.2168  0.0945 -0.0122
 1379W        W17513  17.415  13.697  12.053  0.1202 -0.0775 -0.1486
 1380W        W17514   5.863   8.971   3.535 -0.0860  0.0347  0.1287
 1381W        W17515   6.388  14.427   1.496  0.1284 -0.1919  0.0350
 1382W        W17516   8.635  10.380   1.409  0.1952 -0.0866 -0.3160
 1383W        W17517  12.039  11.817  13.921  0.0984 -0.1217 -0.1992
 1384W        W17518   1.540   8.779   4.165 -0.1953 -0.4513  0.2165
 1385W        W17519  11.614  16.512   0.158 -0.1167  0.3456 -0.0398
 1386W        W17520   9.778   4.084   0.767  0.1042  0.0402 -0.0230
 1387W        W17521  16.605   7.895   3.011  0.2757  0.1643  0.1254
 1388W        W17522  12.407  16.345  15.526  0.1292 -0.0459 -0.1760
 1389W        W17523  12.840   2.420  12.050 -0.1633  0.0214 -0.1974
 1390W        W17524  10.133   7.840  13.686  0.0614  0.1157 -0.2215
 1391W        W17525   3.828  10.081   1.820  0.2114  0.0918  0.2942
 1392W        W17526  10.561  12.960  11.765 -0.1204  0.2124 -0.3788
 1393W        W17527  12.468   1.289  12.465 -0.0814 -0.0833  0.0783
 1394W        W17528   1.950  13.414  11.842 -0.1588 -0.0738  0.1863
 1395W        W17529   3.876  14.494  15.843 -0.1674  0.0502  0.3120
 1396W        W17530   0.705   3.214  12.465  0.1288  0.0007  0.3506
 1397W        W17531  10.687   1.473   1.869 -0.0773 -0.2055  0.2451
 1398W        W17532   4.450  17.419   0.851 -0.2308 -0.2291 -0.1802
 1399W        W17533  17.717  13.794   0.238  0.1708 -0.3056 -0.1949
 1400W        W17534  15.879   9.949  15.820  0.1975  0.1763 -0.0630
 1401W        W17535   3.379  16.736  14.208  0.2401  0.1045  0.1309
 1402W        W17536   5.032  13.830  15.891 -0.1400  0.3523 -0.1650
 1403W        W17537  13.934  12.765   5.086 -0.1001 -0.1048 -0.1178
 1404W        W17538   0.637  15.212  11.983 -0.1439  0.0744  0.1154
 1405W        W17539  12.828  13.296   1.123 -0.0735 -0.0124 -0.0242
 1406W        W17540  15.617   3.755   0.849 -0.0794  0.0849  0.2556
 1407W        W17541   9.408  14.997  13.983  0.0881  0.1371 -0.1161
 1408W        W17542   7.984   2.042   1.560  0.1596 -0.0245 -0.2704
 1409W        W17543   1.019   6.433   4.207  0.1177 -0.1181  0.1163
 1410W        W17544  13.528  12.567   3.814 -0.1332 -0.0081  0.1844
 1411W        W17545  17.307   3.036   1.672  0.5028  0.0033 -0.0945
 1412W        W17546  17.181   7.400  16.687  0.3384 -0.1601  0.0291
 1413W        W17547   6.706   6.799   2.214 -0.2185  0.3391 -0.1198
 1414W        W17548   2.184  12.233   0.636 -0.2335  0.0316  0.1023
 1415W        W17549   2.061   0.695  14.809 -0.0914 -0.2554  0.1680
 1416W        W17550   8.510   6.426   5.156 -0.1115  0.0501  0.1062
 1417W        W17551   0.294  16.024   1.254 -0.0041 -0.0464 -0.0467
 1418W        W17552  11.779   5.113  16.390  0.1613  0.0422 -0.1793
 1419W        W17553   5.791   6.413   0.847  0.1327  0.1460 -0.1844
 1420W        W17554   7.974  17.287  14.668  0.3204 -0.1571 -0.1443
 1421W        W17555   3.533  16.865  13.404  0.3071 -0.0514 -0.0641
 1422W        W17556   2.887   7.009  14.170 -0.3045  0.1685 -0.1476
 1423W        W17557  14.662   9.977   5.420 -0.0224  0.1210  0.0127
 1424W        W17558  15.127  17.593   4.344 -0.1788 -0.2249 -0.0335
 1425W        W17559   8.046   1.651  11.710 -0.0299 -0.1120  0.0018
 1426W        W17560  17.340  14.557  15.605 -0.0620 -0.1453  0.1253
 1427W        W17561   8.825  14.303   0.588  0.2326  0.0856 -0.2390
 1428W        W17562  15.605   6.666   0.704 -0.0533 -0.1896  0.1731
 1429W        W17563  17.556  11.103  13.349  0.2697  0.1218 -0.0596
 1430W        W17564   5.965   8.100  12.154 -0.0988  0.0135 -0.0364
 1431W        W17565   7.761   1.072   3.130  0.3116 -0.1886 -0.0440
 1432W        W17566  16.488   4.919   0.852 -0.0626 -0.0895  0.0269
 1433W        W17567   1.199  14.746  15.543 -0.0405 -0.0781 -0.1837
 1434W        W17568  12.811   9.031  11.301  0.2390  0.0766 -0.1802
 1435W        W17569   1.676  14.513  12.953 -0.2722 -0.0807 -0.0218
 1436W        W17570   7.777   4.912  14.953 -0.1999 -0.0913  0.2395
 1437W        W17571   4.865  10.171   4.120  0.1637 -0.0289  0.2017
 1438W        W17572   9.245  11.305  14.157 -0.0048 -0.1010  0.2249
 1439W        W17573  16.084  10.887  11.821 -0.0104  0.1370 -0.0657
 1440W        W17574  11.526   6.673  16.255 -0.1134  0.3157  0.3262
 1441W        W17575   3.124   9.587  16.308 -0.1119  0.3061  0.0336
 1442W        W17576  10.647   4.923   4.875 -0.1373 -0.1273 -0.2269
 1443W        W17577   9.699   8.203  12.017 -0.2715 -0.1680  0.0596
 1444W        W17578   0.098  11.767   5.115  0.0860  0.0471 -0.0141
 1445W        W17579  11.164   2.066  12.286 -0.0547 -0.1575 -0.2178
 1446W        W17580   0.127  16.566  14.785  0.1435 -0.2621  0.2371
 1447W        W17581  17.488   2.184   5.989 -0.2254  0.0917 -0.0041
 1448W        W17582  15.013   5.026  12.567 -0.1307 -0.1247 -0.4292
 1449W        W17583  17.328  10.919  12.583  0.0040 -0.0129  0.1189
 1450W        W17584   2.005   9.022   3.478 -0.0380 -0.3271  0.0015
 1451W        W17585   0.118  11.083   3.073  0.0746 -0.0029 -0.2177
 1452W        W17586   8.160   1.289   4.605  0.1551 -0.3226  0.2359
 1453W        W17587   8.800  10.088   2.657  0.0768 -0.0339 -0.2854
 1454W        W17588   2.661  16.750  12.917  0.1013 -0.1418  0.0842
 1455W        W17589  15.887  16.295   2.319 -0.2264 -0.4173  0.0489
 1456W        W17590  15.467  12.023   3.952 -0.1454 -0.7060  0.3007
 1457W        W17591   6.221   6.773   2.357 -0.3866  0.0742 -0.1887
 1458W        W17592   1.479   0.818   3.549 -0.1501 -0.1524 -0.3712
 1459W        W17593   2.085  15.494   3.991  0.2644  0.0765 -0.0105
 1460W        W17594  13.551   9.185   2.649  0.2050 -0.0668 -0.1428
 1461W        W17595   5.323  12.513  12.828 -0.0380 -0.0533 -0.0216
 1462W        W17596   4.284   6.134  16.317 -0.2061 -0.0387 -0.0029
 1463W        W17597   5.868   3.777  12.755 -0.1688  0.0785 -0.0335
 1464W        W17598  12.829   5.327  13.921 -0.2285 -0.0297 -0.0705
 1465W        W17599   7.507   3.769  13.863 -0.0713  0.0959  0.3351
 1466W        W17600   6.455   4.449  12.761  0.1403 -0.1579  0.1264
 1467W        W17601  13.289  15.739  14.727 -0.1245  0.1521 -0.1602
 1468W        W17602  13.167   5.919   0.133  0.0847 -0.0407 -0.1763
 1469W        W17603   0.220   6.316  14.490  0.3184  0.3174  0.0377
 1470W        W17604   2.185   5.355   4.870  0.1812  0.3043  0.1496
 1471W        W17605   0.708   9.065   1.126 -0.3093 -0.0880  0.0120
 1472W        W17606  15.752   2.825   4.054 -0.0654  0.0368  0.0664
 1473W        W17607  15.354   5.011   2.785 -0.1995 -0.0810  0.2145
 1474W        W17608   6.735  10.171  13.630  0.0194 -0.0207  0.1626
 1475W        W17609  11.644  14.731   1.414  0.1021  0.1882 -0.0949
 1476W        W17610   4.180   0.320   0.008 -0.3636 -0.1026  0.3086
 1477W        W17611  17.101  13.562   5.643 -0.0547  0.1991  0.0759
 1478W        W17612   3.270   7.916   2.320  0.0765  0.0038  0.1352
 1479W        W17613  15.360  12.658   4.393  0.0175 -0.2133  0.1772
 1480W        W17614  11.060  17.735  12.463  0.1460  0.0018  0.0173
 1481W        W17615   8.674   6.287  12.514 -0.0447  0.0657 -0.1927
 1482W        W17616  17.158   2.600  13.534  0.3587  0.0712  0.1173
 1483W        W17617  12.376   8.007   1.141  0.3034  0.0755  0.0037
 1484W        W17618  16.673  11.422   0.855 -0.2630 -0.1268 -0.0227
 1485W        W17619  13.554  12.374  13.628  0.0967 -0.0970 -0.3637
 1486W        W17620   3.091  13.663   3.575  0.2087  0.0497 -0.1725
 1487W        W17621  12.217   1.772   3.979  0.0573  0.0726 -0.1618
 1488W        W17622   5.363   2.632   0.839 -0.1591 -0.0454  0.0670
 1489W        W17623  10.989   8.282   3.880 -0.1158 -0.2596  0.2876
 1490W        W17624   8.617   3.312   3.440  0.1270 -0.2653  0.0656
 1491W        W17625  15.544   9.195   0.292 -0.2715 -0.1169 -0.0025
 1492W        W17626  10.548  12.830   5.559  0.1861 -0.2185 -0.0014
 1493W        W17627   7.474  15.636  12.619 -0.2554 -0.0911 -0.0050
 1494W        W17628   5.672   4.884  14.310 -0.1365  0.1263 -0.3074
 1495W        W17629   9.654  12.688   5.197  0.1603  0.0336  0.0113
 1496W        W17630   1.595  13.330  14.223  0.2905 -0.1812  0.1164
 1497W        W17631   4.662   3.221  12.466 -0.1610 -0.0136  0.1645
 1498W        W17632   2.339  12.875  15.224  0.0505 -0.1599 -0.1356
 1499W        W17633   5.893  10.102  11.437 -0.0270  0.0520  0.0758
 1500W        W17634  10.683   0.225   5.614 -0.0668  0.3326 -0.1170
 1501W        W17635  16.875   2.159  13.710 -0.1386  0.2368 -0.0649
 1502W        W17636   7.413  11.750  11.399  0.2557 -0.3815  0.0252
 1503W        W17637  16.966   3.511  15.430  0.1326 -0.0253  0.2067
 1504W        W17638  17.058   5.485  15.742 -0.0033  0.1243  0.0209
 1505W        W17639  16.269   7.487   5.136  0.5046 -0.2729  0.1506
 1506W        W17640  10.522   1.253   5.719 -0.0067  0.1505  0.0812
 1507W        W17641  12.330  17.928   0.914 -0.2970 -0.2175 -0.1871
 1508W        W17642  17.250   6.800   0.219 -0.2692 -0.2343  0.0275
 1509W        W17643  17.498  17.219  13.902  0.2035  0.1679 -0.0948
 1510W        W17644   0.455   3.266   3.352 -0.1276  0.0346  0.1560
 1511W        W17645  15.954   1.877   4.861 -0.1247 -0.3341 -0.3983
 1512W        W17646   6.313   0.736   1.616  0.2039 -0.1091 -0.0174
 1513W        W17647   1.595  12.538  12.946  0.2876 -0.1740  0.0317
 1514W        W17648   2.093   5.576  11.823 -0.1658  0.1092  0.0663
 1515W        W17649   3.298   2.314  13.863  0.2344  0.2232 -0.2198
 1516W        W17650   5.399  11.800   3.076 -0.0555  0.0489  0.0820
 1517W        W17651  17.135  13.348  12.300 -0.0780  0.1953 -0.1001
 1518W        W17652   2.641   9.735   3.957 -0.0308 -0.1259 -0.1514
 1519W        W17653   5.645   2.877   3.682 -0.0862  0.6054 -0.0522
 1520W        W17654   3.841   4.309   3.953  0.1397 -0.1018 -0.1182
 1521W        W17655  13.985  12.165   1.447  0.2488  0.1534 -0.4759
 1522W        W17656  14.857   5.100   5.016  0.3958  0.0420 -0.1470
 1523W        W17657  15.601   1.264  13.776  0.0197 -0.2718 -0.4451
 1524W        W17658   0.944  15.864   5.405 -0.1953  0.4101 -0.2270
 1525W        W17659  10.196   2.611   4.120 -0.1114 -0.0737  0.0985
 1526W        W17660   7.517   1.256  14.920 -0.0397  0.1252 -0.0475
 1527W        W17661  12.198  17.647  13.244  0.3571 -0.1624  0.1002
 1528W        W17662   8.606   4.063   1.205 -0.1042 -0.0350  0.1966
 1529W        W17663  17.909   5.642   5.781  0.1313 -0.0385 -0.2417
 1530W        W17664  15.330  13.345  12.960 -0.1198  0.0130 -0.0155
 1531W        W17665  10.759   9.549  14.979 -0.2084 -0.0106 -0.0787
 1532W        W17666  11.045   8.114   0.954 -0.3676  0.0602  0.0654
 1533W        W17667   0.629   2.729   1.435 -0.3310  0.1695  0.2513
 1534W        W17668  13.934   1.417   0.770 -0.0582 -0.2855 -0.0220
 1535W        W17669   5.953   0.051   1.166  0.0865  0.0965  0.2252
 1536W        W17670   2.898  11.606  15.262  0.1998  0.0096 -0.0837
 1537W        W17671   6.535  14.680  11.755 -0.1477 -0.0914  0.1334
 1538W        W17672  13.854   3.126   4.661  0.1859 -0.0456 -0.0102
 1539W        W17673  17.073  13.784  12.550  0.0269 -0.3582  0.0619
 1540W        W17674  10.345  12.014   5.509 -0.1735  0.0625  0.1380
 1541W        W17675   9.822  17.436  12.433 -0.1486 -0.1092 -0.0460
 1542W        W17676  17.792   7.827   4.849 -0.5606  0.2994 -0.0135
 1543W        W17677   6.968   4.716  10.803  0.1763  0.0803  0.1509
 1544W        W17678  15.684  14.185   1.949 -0.3154  0.3639  0.0286
 1545W        W17679   6.080  15.937  15.573 -0.0599  0.0031 -0.0170
 1546W        W17680   7.232  15.144   3.586  0.0995  0.2306 -0.0441
 1547W        W17681   6.896  17.172   1.923 -0.2539  0.2809 -0.0689
 1548W        W17682   6.918  10.022  12.952  0.4075  0.2391  0.2108
 1549W        W17683  10.917  14.115   4.787  0.1141  0.2726  0.0931
 1550W        W17684  11.776   6.764  12.058  0.2963  0.0314  0.0627
 1551W        W17685  11.998  16.799  12.168  0.0076  0.0615 -0.0424
 1552W        W17686   7.673  11.713  15.989 -0.0357 -0.0914 -0.2088
 1553W        W17687   9.548   2.549   2.458 -0.0107  0.1280  0.0378
 1554W        W17688   8.642   9.773   1.300  0.1086 -0.1439 -0.0478
 1555W        W17689  14.312   4.379   1.077 -0.1927  0.0906  0.4526
 1556W        W17690   5.854  16.924  14.523 -0.1947  0.1927 -0.1930
 1557W        W17691  16.557  10.464   2.064  0.1144  0.0591  0.0853
 1558W        W17692   1.175  13.192   5.119  0.0138  0.1385  0.0318
 1559W        W17693  15.055   4.615  16.104 -0.1979 -0.0213 -0.1326
 1560W        W17694   5.422  15.556  11.418 -0.1266  0.4557 -0.1525
 1561W        W17695   6.546   7.297   4.755  0.2327 -0.0818  0.0091
 1562W        W17696  15.680   4.488   3.138  0.3274  0.0284  0.1545
 1563W        W17697  13.116   2.764  14.722  0.0374  0.2708 -0.0806
 1564W        W17698  16.814   3.859   3.360 -0.1804 -0.2469  0.1970
 1565W        W17699   4.339   3.230   3.339 -0.0064 -0.1792  0.0020
 1566W        W17700   7.250  15.007   2.651  0.0882 -0.1919 -0.1840
 1567W        W17701   6.657  14.314  16.226  0.1526 -0.1712  0.1947
 1568W        W17702   0.251  14.666  14.934  0.1166 -0.1477  0.0269
 1569W        W17703   8.565   7.016   0.940 -0.5336 -0.0451  0.1816
 1570W        W17704   0.697   6.020   1.044 -0.2457  0.2273  0.0440
 1571W        W17705   7.129   6.001  14.454  0.1378  0.0316  0.3523
 1572W        W17706   2.461   3.067   2.764 -0.0122  0.0529  0.2912
 1573W        W17707  13.788  15.327  12.191  0.0647  0.0599  0.0591
 1574W        W17708   0.460  16.211  14.969  0.1751  0.0784 -0.0507
 1575W        W17709  17.909   6.518  11.300 -0.0315 -0.0404  0.0207
 1576W        W17710   6.263   3.687   0.915 -0.1996  0.1077  0.1126
 1577W        W17711   1.213   4.060  15.475  0.3545 -0.2580  0.0383
 1578W        W17712   3.126   9.986   3.108 -0.0353  0.1556  0.2789
 1579W        W17713   1.869   7.436   0.889  0.1105  0.0091 -0.1580
 1580W        W17714  15.092   0.221  16.325  0.1672  0.2423 -0.0924
 1581W        W17715   4.297   9.301   1.363 -0.2995  0.0264  0.4417
 1582W        W17716  15.704   8.705  13.840 -0.1133  0.2841 -0.2850
 1583W        W17717  10.253   9.200  13.541 -0.1246  0.0005  0.1515
 1584W        W17718   1.188  14.601  12.811 -0.1773  0.0965  0.0861
 1585W        W17719   1.932  17.200   3.996 -0.2539  0.2233 -0.1324
 1586W        W17720  17.540  14.005   2.540  0.1295  0.2956  0.1867
 1587W        W17721   0.946  11.551  11.952 -0.2020  0.1018 -0.0606
 1588W        W17722   6.578  12.287   4.868  0.0942  0.0588  0.1585
 1589W        W17723  16.859  15.926  14.925  0.2244 -0.0934  0.0412
 1590W        W17724  17.707  16.414  12.726 -0.1081  0.0380 -0.1780
 1591W        W17725   9.373   6.804   4.129 -0.2458 -0.0428  0.0327
 1592W        W17726   6.245   0.602  12.990 -0.0063 -0.4594 -0.1788
 1593W        W17727   3.699   1.587  14.289  0.2392 -0.0376 -0.0064
 1594W        W17728   2.145  16.198   2.769 -0.0954 -0.0218 -0.1367
 1595W        W17729  13.451   1.446   0.673 -0.2260  0.1096 -0.3863
 1596W        W17730   6.686  17.460  12.982 -0.1481  0.0427  0.0871
 1597W        W17731  13.155  14.812   2.705  0.1235  0.0677  0.2984
 1598W        W17732   2.942   9.573   1.779  0.0678  0.1114 -0.2175
 1599W        W17733  13.586  17.553  16.439  0.2741  0.0122  0.3917
 1600W        W17734   3.383  17.375   2.189 -0.1488 -0.0349 -0.1800
 1601W        W17735  10.038  13.002   1.265  0.0410  0.0557  0.1108
 1602W        W17736   9.990   9.858  12.218  0.2165  0.2785  0.2519
 1603W        W17737   0.407   9.869   4.309 -0.2482  0.3667 -0.0029
 1604W        W17738  17.888  12.755   3.707 -0.0448  0.2555 -0.0775
 1605W        W17739   5.178   4.685   2.480 -0.1485  0.1483 -0.0404
 1606W        W17740   6.612  14.184   3.768  0.1232 -0.1844 -0.0210
 1607W        W17741  10.213   9.773   0.223 -0.0968 -0.0153  0.1313
 1608W        W17742  12.945  15.561  12.066 -0.4192 -0.1953  0.2158
 1609W        W17743   9.828  14.875   5.516 -0.1291 -0.1195  0.0194
 1610W        W17744   6.465  16.266  11.795  0.3708 -0.2313  0.1731
 1611W        W17745   3.095   2.209  15.633 -0.2085 -0.2689  0.0814
 1612W        W17746  15.194  15.617  13.308  0.0339  0.1259 -0.1027
 1613W        W17747   6.419   3.066  12.411  0.1341 -0.2059 -0.1557
 1614W        W17748   5.974   1.071  14.590 -0.1789 -0.3247 -0.0738
 1615W        W17749   1.665   2.835   3.270  0.3687  0.3286  0.2352
 1616W        W17750  13.223  15.492  13.215 -0.0238  0.1728  0.1022
 1617W        W17751   2.773  15.082  13.321 -0.2599  0.2508 -0.0993
 1618W        W17752   2.755  16.252  13.082  0.0586  0.2059  0.1275
 1619W        W17753  16.129   5.622  12.592 -0.0876 -0.0294 -0.3079
 1620W        W17754   2.365  16.929  14.507 -0.0062  0.2019 -0.0403
 1621W        W17755   5.391   2.186  12.867  0.0264  0.0269 -0.0449
 1622W        W17756  11.651   3.839   2.770  0.1768  0.0498 -0.0174
 1623W        W17757   8.879   2.001  14.065  0.0567  0.0278  0.4737
 1624W        W17758   6.300   8.683  12.773  0.2011  0.2928  0.0571
 1625W        W17759   6.919   1.636  14.427 -0.0593  0.0371  0.1113
 1626W        W17760   1.764  12.506  14.078 -0.1267 -0.1369  0.0821
 1627W        W17761   9.405   0.468   0.216 -0.0861 -0.1200 -0.2694
 1628W        W17762  11.383   6.806  14.764  0.1822 -0.3122  0.2515
 1629W        W17763   4.246   2.728   3.673 -0.1995  0.6201 -0.2501
 1630W        W17764   7.611   9.059  14.216  0.1261 -0.0338  0.0227
 1631W        W17765   1.497   3.759  11.088  0.2896 -0.2136 -0.0208
 1632W        W17766   6.130   4.294  12.396 -0.2749 -0.3114  0.0977
 1633W        W17767  17.962   8.078   1.111 -0.2364  0.0530 -0.2438
 1634W        W17768   8.409  15.909  14.373 -0.0203 -0.2879 -0.0853
 1635W        W17769   9.560  10.592  14.965  0.0346  0.0594 -0.1655
 1636W        W17770  12.721   7.631   4.651  0.0369 -0.0481  0.0369
 1637W        W17771   0.735   1.933  11.038 -0.1092 -0.3189 -0.0324
 1638W        W17772  14.696  11.035  14.056 -0.0149  0.1097  0.1985
 1639W        W17773   0.236   2.039   4.202 -0.1840  0.0665  0.0939
 1640W        W17774  12.364  17.471   0.555 -0.1401 -0.1248 -0.0295
 1641W        W17775   1.651   8.877  12.510  0.1426  0.3159  0.4072
 1642W        W17776  13.537  12.411  16.285  0.1478 -0.1737  0.0245
 1643W        W17777  13.582   5.852  14.063 -0.1468  0.1527  0.0236
 1644W        W17778   5.119   0.301   1.215  0.0285  0.0842  0.2416
 1645W        W17779  13.471   7.344  15.955  0.0317 -0.3941 -0.1773
 1646W        W17780   5.111  12.794   5.458 -0.2545  0.2426 -0.0373
 1647W        W17781  12.320  12.064   0.265 -0.1250  0.1534 -0.1303
 1648W        W17782  10.657  12.923  16.010 -0.0535  0.1754  0.1602
 1649W        W17783   9.983   5.853   1.668  0.2839  0.1239  0.1351
 1650W        W17784  14.119   0.454  15.740 -0.0852  0.0136 -0.0708
 1651W        W17785   1.275   2.871   6.221  0.2276 -0.1252  0.0211
 1652W        W17786   0.307   7.669  13.751 -0.5708 -0.1063 -0.3292
 1653W        W17787   6.491  11.317   2.686 -0.1413 -0.0287 -0.0636
 1654W        W17788  16.260  13.053   1.748 -0.1047  0.1612 -0.0859
 1655W        W17789   9.680   3.531  15.430 -0.0876  0.2072 -0.2222
 1656W        W17790   3.925   4.757  14.557 -0.1377  0.1592 -0.0105
 1657W        W17791   3.601  16.459   0.817  0.1141 -0.0050 -0.0291
 1658W        W17792   7.770   9.899   2.486 -0.1229 -0.1129 -0.2790
 1659W        W17793  10.407   8.178   4.681  0.0020 -0.0359 -0.0196
 1660W        W17794   1.399   7.918  12.795 -0.1485  0.1225  0.1170
 1661W        W17795   7.619   6.986  15.763 -0.0650  0.0063  0.0981
 1662W        W17796  14.237   8.888  16.033  0.0036 -0.2853  0.2624
 1663W        W17797   2.399   7.426   1.358 -0.2638  0.0826 -0.4553
 1664W        W17798  17.192   9.702  16.502 -0.3035 -0.2423  0.1410
 1665W        W17799  12.655  10.921   6.051  0.2166 -0.2447  0.1332
 1666W        W17800   1.590  16.349   1.356  0.4039 -0.0750 -0.1721
 1667W        W17801   3.905  17.913   3.461 -0.1399 -0.0828  0.0032
 1668W        W17802  11.966  12.371   0.399  0.2406 -0.0251 -0.0633
 1669W        W17803   4.438  17.455  16.507 -0.1907 -0.0921  0.1731
 1670W        W17804   8.751   6.122   1.162  0.0791  0.0214 -0.1065
 1671W        W17805   6.443   5.767  15.169 -0.0341  0.1588 -0.3359
 1672W        W17806   0.843   9.447  16.071  0.1272 -0.0053 -0.0728
 1673W        W17807  17.305   2.816   1.232 -0.0643 -0.3670  0.2465
 1674W        W17808  17.568   0.189  13.943 -0.1709 -0.1993  0.0341
 1675W        W17809  17.080   0.156  15.384  0.1392  0.0097 -0.2104
 1676W        W17810   0.516   1.553   3.147 -0.0239  0.2108 -0.2390
 1677W        W17811  12.899   3.769  13.297 -0.0203 -0.0738 -0.0523
 1678W        W17812   2.306  17.544   5.241 -0.3980  0.3507  0.1285
 1679W        W17813  10.539   0.117  14.084 -0.0563  0.2912  0.1606
 1680W        W17814  17.865   5.417  14.296 -0.2148  0.0471 -0.0027
 1681W        W17815  11.655  16.583  13.608  0.1613 -0.3071  0.4061
 1682W        W17816   4.210   8.460   0.537  0.2939  0.2611  0.3150
 1683W        W17817  13.265   2.913   5.962  0.0635  0.2653 -0.0169
 1684W        W17818  13.273   7.067  14.232  0.2121 -0.0555 -0.0376
 1685W        W17819  13.239   9.236  12.210 -0.2078 -0.0190  0.0756
 1686W        W17820   3.031  11.783   3.390  0.1779  0.2272  0.0496
 1687W        W17821  12.177  11.608  15.115  0.2091 -0.1493 -0.0543
 1688W        W17822   1.472   4.365   0.031 -0.1172  0.1211  0.0144
 1689W        W17823  11.898   9.712   2.816 -0.2299  0.0244 -0.0700
 1690W        W17824   2.519   5.306  11.742 -0.2612  0.3371 -0.0914
 1691W        W17825  16.854  13.583   0.734 -0.3813  0.1710  0.0289
 1692W        W17826  16.277  14.540   4.959 -0.1499 -0.0647  0.0327
 1693W        W17827   8.791   0.390   5.448  0.0903  0.1501  0.1580
 1694W        W17828  13.513   3.140  11.997 -0.0045 -0.1251 -0.0532
 1695W        W17829  11.995   4.904   4.070 -0.0260 -0.1743  0.0742
 1696W        W17830   3.813  17.941   0.095 -0.1588 -0.2870 -0.3276
 1697W        W17831   4.381  12.547   1.506  0.1484 -0.0603  0.1888
 1698W        W17832  12.590  12.692  14.856  0.0901  0.2311  0.1634
 1699W        W17833  16.018   4.571  14.810  0.2609  0.1552 -0.0574
 1700W        W17834  16.573   4.187   1.397 -0.0235  0.2529 -0.2632
 1701W        W17835  16.271   0.760  13.091  0.1163  0.0003  0.0278
 1702W        W17836   9.060   1.491  11.591 -0.4336 -0.0656 -0.0546
 1703W        W17837  17.353  15.968   3.873  0.0799 -0.1851  0.1864
 1704W        W17838   0.341   3.728  15.588 -0.0921 -0.0401 -0.0949
 1705W        W17839  13.204  16.976  15.015 -0.0175  0.0936 -0.1772
 1706W        W17840   4.786   6.838  15.358  0.1812 -0.2508  0.0146
 1707W        W17841   4.482  12.056   4.441 -0.0621  0.2995 -0.1206
 1708W        W17842  16.394   3.504  13.774  0.0940 -0.0750 -0.0340
 1709W        W17843  12.721   0.152  14.802  0.0345 -0.2531 -0.2359
 1710W        W17844  15.354   2.063   3.931 -0.0939  0.0366  0.2384
 1711W        W17845   6.505  14.442  13.156 -0.1224  0.1085 -0.0793
 1712W        W17846  15.397  15.751   1.161 -0.3367  0.3089  0.4237
 1713W        W17847   0.880   2.490  12.074  0.0217  0.0939 -0.1031
 1714W        W17848   4.265   8.622  13.601 -0.0805 -0.1942  0.0537
 1715W        W17849   2.354   0.804   5.647  0.1617  0.1659  0.0692
 1716W        W17850  13.645   0.037  14.484  0.1758  0.0484 -0.4146
 1717W        W17851   2.304  14.578  16.688  0.0627 -0.0398  0.0001
 1718W        W17852   5.038   3.670   4.545 -0.2341 -0.1745  0.2183
 1719W        W17853   4.740   6.075   5.353 -0.1607  0.1991  0.3137
 1720W        W17854  11.004  13.994   2.656 -0.2809 -0.0485  0.2229
 1721W        W17855  13.447   8.862   3.139 -0.1172 -0.0496  0.4446
 1722W        W17856  16.765  12.943   3.012 -0.3196  0.0672 -0.1794
 1723W        W17857   7.910   4.894   1.284  0.0221  0.0985  0.2060
 1724W        W17858   6.889  11.655  12.657  0.1306  0.1275 -0.1365
 1725W        W17859  16.709   6.508  11.846  0.1217  0.2950  0.1782
 1726W        W17860   3.928   4.508  15.331  0.1826  0.0856  0.2489
 1727W        W17861   0.157   9.916  14.520 -0.1001  0.0465  0.1642
 1728W        W17862  11.740   2.361   1.607  0.1421  0.2601 -0.0761
 1729W        W17863   4.214   2.160  12.141  0.0584 -0.2054 -0.0753
 1730W        W17864   6.756   2.964   0.669  0.2444  0.0423  0.5931
 1731W        W17865  14.121   1.987   3.299  0.4125 -0.1237  0.1129
 1732W        W17866  10.773   0.998   5.202  0.0626  0.0916  0.1299
 1733W        W17867  12.224   7.260   3.573 -0.0604 -0.1080  0.1262
 1734W        W17868  14.482   2.183  16.115 -0.0734 -0.4207 -0.3510
 1735W        W17869   3.876   8.071   3.296  0.0059  0.0272 -0.3493
 1736W        W17870   0.657  16.520   2.715  0.0152  0.0496 -0.0162
 1737W        W17871  13.548  17.835   2.779  0.1155  0.2289 -0.0723
 1738W        W17872  10.646  10.708   0.304 -0.0745  0.4192 -0.0416
 1739W        W17873  11.725   5.235   2.495 -0.0940  0.0070 -0.0992
 1740W        W17874   5.982   6.237   5.578 -0.0645  0.0346 -0.0320
 1741W        W17875   6.049  12.434   5.041 -0.2059  0.1268 -0.0551
 1742W        W17876   7.686   2.624  13.278  0.0824 -0.0234 -0.0554
 1743W        W17877  14.626  15.773   5.118 -0.2609  0.0776 -0.0425
 1744W        W17878  16.599   7.984  12.264 -0.1975 -0.2320  0.0902
 1745W        W17879   1.737   8.909  14.117  0.0937  0.0977 -0.1540
 1746W        W17880   4.290   5.856   1.346 -0.1120  0.4538 -0.0132
 1747W        W17881   9.679   3.226   5.724 -0.1502  0.0473 -0.1103
 1748W        W17882   4.723  12.874  13.345 -0.1910  0.0716 -0.1944
 1749W        W17883   8.402   3.832  15.359 -0.1049 -0.3690  0.1651
 1750W        W17884   1.184   2.063  11.364  0.2906  0.2666  0.1072
 1751W        W17885  11.145  16.471   4.655 -0.2261 -0.0550  0.0395
 1752W        W17886  11.115   3.522  13.186  0.1927 -0.1020  0.1988
 1753W        W17887   9.818  14.011  15.872  0.0568  0.0384 -0.0673
 1754W        W17888  15.362  16.261   4.430 -0.1437  0.0377  0.1415
 1755W        W17889  12.133   6.344   5.007  0.0851  0.0117  0.0313
 1756W        W17890  15.438  16.408  13.551  0.1153 -0.0641  0.0897
 1757W        W17891  13.101  13.987  12.010  0.1689 -0.0403 -0.1314
 1758W        W17892   4.350   0.886   3.151 -0.1247  0.0122 -0.2980
 1759W        W17893  17.325   9.907   6.048 -0.0688  0.2121 -0.0177
 1760W        W17894   5.323   9.388  13.826  0.0067  0.0946 -0.1871
 1761W        W17895   5.016   7.997  16.103 -0.3035 -0.1228 -0.2636
 1762W        W17896   8.293   1.604   3.316 -0.1337  0.1231  0.1464
 1763W        W17897  17.401   9.223  14.623  0.2841  0.0866 -0.4509
 1764W        W17898  14.652   2.122   1.746  0.1646  0.2881 -0.0448
 1765W        W17899  14.374  13.264  15.622  0.0178  0.2378 -0.1750
 1766W        W17900   6.613   5.560   3.697  0.0555  0.1994 -0.1701
 1767W        W17901  17.492   0.829   6.012 -0.3104  0.1822  0.0008
 1768W        W17902   4.858   8.148  13.144 -0.1032  0.1272  0.0639
 1769W        W17903   8.098   3.463  15.396 -0.1782 -0.0095 -0.0936
 1770W        W17904   7.752   8.429  15.251  0.0448  0.2011  0.2151
 1771W        W17905   8.709  14.678  14.557 -0.1950 -0.2974  0.1295
 1772W        W17906  11.538   3.269  12.921 -0.0899  0.2715 -0.3555
 1773W        W17907  16.063   8.948  11.656  0.0746  0.0484 -0.0648
 1774W        W17908   5.573  17.431  11.908 -0.0556 -0.0256  0.1097
 1775W        W17909   4.663  14.315  14.425 -0.2103  0.3814 -0.1642
 1776W        W17910  17.365  11.313  12.930 -0.3122  0.0374  0.0280
 1777W        W17911   9.305  12.483   2.460 -0.2286 -0.0251 -0.2488
 1778W        W17912   6.124  13.240   3.993  0.0700 -0.0193 -0.3187
 1779W        W17913  10.488  17.908  15.437  0.2198 -0.3558 -0.3086
 1780W        W17914   5.856   6.964   5.633 -0.4107  0.0461 -0.2475
 1781W        W17915  13.575   8.448   4.108  0.1651  0.0194  0.2992
 1782W        W17916   0.427  10.546   0.560  0.0841 -0.1890 -0.0124
 1783W        W17917   6.523  13.835   6.256  0.1626  0.3296 -0.0145
 1784W        W17918   4.943   6.891   1.389  0.0346  0.4605 -0.0715
 1785W        W17919   7.959   2.411   0.860 -0.0138  0.0372  0.0339
 1786W        W17920   0.701  17.913   5.251 -0.3188  0.0777  0.0772
 1787W        W17921   2.095   1.350   5.878 -0.3879 -0.1241  0.0726
 1788W        W17922   4.688   3.951  11.784  0.1708 -0.1841  0.4075
 1789W        W17923   2.497   2.618  14.418 -0.2243  0.0307  0.0200
 1790W        W17924   0.944   9.504  15.363 -0.0380 -0.1190 -0.0682
 1791W        W17925  15.171   5.519   0.106 -0.1676 -0.0136 -0.0424
 1792W        W17926   6.900  10.428  15.049 -0.1293  0.1810  0.0243
 1793W        W17927  16.672  16.178   3.134 -0.0393  0.3005 -0.3128
 1794W        W17928   2.504   5.367  12.650 -0.4009  0.0206 -0.0449
 1795W        W17929  11.683   8.992  15.332 -0.4864 -0.3164 -0.1920
 1796W        W17930  13.703   9.374  12.573  0.0591 -0.1242  0.1510
 1797W        W17931   1.967   1.023  16.624  0.1529 -0.1210 -0.1502
 1798W        W17932   8.397   5.631  12.007 -0.0111  0.0647 -0.3249
 1799W        W17933  13.565   3.657  14.535  0.2149 -0.0061 -0.1834
 1800W        W17934  10.622   1.767  12.600  0.1662 -0.1943  0.4934
 1801W        W17935   1.403   2.483  11.189  0.0478 -0.3216  0.0464
 1802W        W17936  15.266  13.323   2.688 -0.2367 -0.1017  0.0917
 1803W        W17937  12.969  12.953  14.637 -0.1103  0.2358  0.1039
 1804W        W17938  14.449   6.343   3.677 -0.1219  0.0844 -0.0668
 1805W        W17939  13.627   9.773   3.748  0.2047 -0.1086  0.3746
 1806W        W17940   1.723   4.044  11.919  0.1736  0.2504  0.0437
 1807W        W17941  13.527  17.874  11.792  0.4075 -0.1420 -0.2948
 1808W        W17942   9.717   1.715  15.991 -0.0363 -0.0193 -0.2876
 1809W        W17943   4.950  11.406   1.885  0.2623 -0.3455  0.0074
 1810W        W17944  14.671   0.496  13.654 -0.0077 -0.1544 -0.0147
 1811W        W17945  15.511   5.936  14.225  0.0291 -0.2465 -0.0186
 1812W        W17946  13.458  15.097  13.977  0.0180 -0.1748  0.1208
 1813W        W17947   9.407   0.455  14.470 -0.2618  0.0238  0.0393
 1814W        W17948  11.949   9.771  16.170 -0.1243 -0.4140  0.2103
 1815W        W17949   6.174  15.491   2.533 -0.0756  0.2583  0.0936
 1816W        W17950  16.061   2.660   0.368 -0.1432  0.3261  0.1818
 1817W        W17951  14.948  15.113   3.079 -0.0436 -0.2323  0.4937
 1818W        W17952   0.601  14.365  13.796  0.0648 -0.2208 -0.0111
 1819W        W17953   4.408  17.945   3.501 -0.2459 -0.0033  0.0352
 1820W        W17954  11.017   1.770  15.129  0.2534  0.1884  0.0477
 1821W        W17955   6.494   9.831   0.224 -0.0340 -0.1873 -0.1241
 1822W        W17956   3.780   2.543   2.235 -0.2599 -0.2641 -0.1049
 1823W        W17957   8.441   9.448   5.377 -0.4443 -0.0900 -0.1340
 1824W        W17958  17.001   1.363   5.939  0.0720 -0.0588 -0.1228
 1825W        W17959  10.850  14.820  13.748  0.2399 -0.0537  0.0806
 1826W        W17960   4.136   5.783   2.813 -0.1760 -0.1321  0.1321
 1827W        W17961   5.200  10.361  16.157 -0.0733  0.1035 -0.4710
 1828W        W17962  11.355   0.383   4.532  0.2015  0.0522 -0.0993
 1829W        W17963  12.197  13.962   5.092  0.1561  0.1304  0.0547
 1830W        W17964  12.505  11.012  11.929 -0.2105 -0.1126 -0.0433
 1831W        W17965   7.619  13.421  15.872 -0.0879  0.1331 -0.1581
 1832W        W17966   0.871  10.841  13.698 -0.1973 -0.2768 -0.2402
 1833W        W17967   2.178   4.596   4.740  0.1904  0.1333 -0.0783
 1834W        W17968   0.515   4.143   1.109 -0.2600  0.1338  0.1553
 1835W        W17969  10.484   1.240  14.325 -0.0938  0.2618  0.0864
 1836W        W17970  17.424  11.425  13.740  0.1473  0.1904 -0.0940
 1837W        W17971   0.012  16.495   1.972  0.3183 -0.0582  0.1677
 1838W        W17972  14.434   1.455   2.503 -0.2178  0.2605 -0.0487
 1839W        W17973   7.232   3.527   2.365  0.3582 -0.0867 -0.3777
 1840W        W17974   0.218   1.628  12.861  0.0968  0.1576 -0.2964
 1841W        W17975  17.299  16.185  12.945 -0.4101 -0.0212 -0.1022
 1842W        W17976   3.042   0.035  15.432 -0.0023 -0.0719  0.1383
 1843W        W17977   6.953   0.723  15.275  0.0878  0.2715  0.2186
 1844W        W17978   7.710   8.667  12.978  0.1688  0.1017  0.1199
 1845W        W17979   3.831   1.227  13.425  0.1563  0.1333  0.1931
 1846W        W17980   3.968  13.749   0.886 -0.2002  0.1553 -0.0652
 1847W        W17981   9.061   8.119   3.758 -0.0569 -0.4142 -0.3702
 1848W        W17982   8.925  17.064  15.129 -0.1274  0.3513 -0.2936
 1849W        W17983  13.406  13.062  15.053  0.1759 -0.0646  0.1980
 1850W        W17984  13.911  17.728  16.113  0.1068  0.0111 -0.3123
 1851W        W17985   6.260   8.205   5.254 -0.1756  0.0290  0.3072
 1852W        W17986  10.940  10.375  15.800 -0.1752 -0.0737  0.1132
 1853W        W17987   4.930   6.471   5.096  0.1037  0.3100  0.0419
 1854W        W17988   5.628  13.237  16.435  0.5582 -0.0222 -0.2259
 1855W        W17989   3.292   3.304  12.039 -0.1247  0.0454  0.1768
 1856W        W17990   8.513   1.853   2.830 -0.1914 -0.0376 -0.0191
 1857W        W17991   4.402   1.632  14.211 -0.4046 -0.2159 -0.0528
 1858W        W17992  11.650   2.394   0.202  0.3695 -0.0504 -0.1208
 1859W        W17993   8.843   9.245   4.301 -0.2205 -0.0965 -0.1056
 1860W        W17994   1.183   2.163   3.144 -0.0392 -0.4477 -0.3353
 1861W        W17995  14.138  11.376   6.342  0.0578  0.1258  0.2001
 1862W        W17996   7.029  15.339   5.296  0.1587  0.1515 -0.1006
 1863W        W17997   1.877   0.678   0.767  0.1918 -0.1252 -0.2340
 1864W        W17998  17.498  14.811   2.958 -0.0206 -0.0900 -0.4197
 1865W        W17999   9.267  16.842  12.776  0.1945  0.1242 -0.1567
 1866W        W18000   7.037   0.167   1.706  0.0189  0.0709  0.0528
 1867W        W18001   6.546  15.101   2.847 -0.1088 -0.3295 -0.4513
 1868W        W18002   7.838   1.733   4.503 -0.0485 -0.3610 -0.1008
 1869W        W18003   7.273   7.018  12.168  0.2007 -0.0149 -0.1399
 1870W        W18004  12.392   8.485   4.599  0.1388  0.3449 -0.1357
 1871W        W18005   4.359   5.233  15.819  0.2103 -0.0419 -0.3039
 1872W        W18006  10.695   3.706  15.405  0.2720 -0.0177 -0.1376
 1873W        W18007   7.082   6.499  14.492  0.0853  0.5311  0.1694
 1874W        W18008  14.336  13.538   4.719 -0.0792  0.1018 -0.2687
 1875W        W18009   0.475  16.498  15.668 -0.0039  0.0656 -0.3773
 1876W        W18010  12.971   7.114   1.274 -0.0616  0.0892  0.0389
 1877W        W18011   8.357  14.023   5.550  0.1701 -0.0882  0.4105
 1878W        W18012  10.016  15.828   0.177  0.1439  0.2733 -0.2248
 1879W        W18013   1.621   4.447  15.290  0.0416 -0.1276 -0.1556
 1880W        W18014   6.445  16.900   4.315 -0.1307  0.4404  0.0903
 1881W        W18015   7.198   3.961   5.656 -0.1592 -0.1526 -0.1745
 1882W        W18016   2.087   0.684   2.645  0.0150  0.2450  0.1670
 1883W        W18017  11.794  15.169  15.625  0.1119  0.1423  0.0936
 1884W        W18018   1.275   5.219  12.591 -0.1040  0.1494  0.2047
 1885W        W18019  12.835   3.673   0.106 -0.0186 -0.0589  0.0641
 1886W        W18020   3.942  11.412  14.373 -0.1437  0.0068 -0.1829
 1887W        W18021  15.453   3.535   3.102  0.0073 -0.1039 -0.2087
 1888W        W18022   7.320  14.683  12.329 -0.1515 -0.0340 -0.2636
 1889W        W18023  16.120   0.804   2.506 -0.0376  0.1265  0.1348
 1890W        W18024  12.674   4.217   4.651  0.0515  0.0427  0.2846
 1891W        W18025  12.391   0.238  16.556  0.0092 -0.0522  0.0386
 1892W        W18026  15.989  15.202  13.262  0.1620 -0.0980 -0.1971
 1893W        W18027  15.357  10.055  12.330 -0.0556 -0.2314 -0.0167
 1894W        W18028   1.939  14.980   0.510  0.3453  0.0491 -0.0399
 1895W        W18029  11.024  10.879  13.047  0.0810  0.0274  0.1846
 1896W        W18030   5.156   1.723  16.425  0.0681  0.0666  0.3929
 1897W        W18031  13.671   5.989   1.045  0.0038 -0.0409  0.1346
 1898W        W18032   1.516  11.292  14.860 -0.3333  0.0860  0.1173
 1899W        W18033   2.483  11.045  13.157 -0.1363 -0.1218  0.3308
 1900W        W18034   2.021  10.689   0.173  0.2316  0.1030  0.2462
 1901W        W18035   2.470   1.066   1.411  0.1206 -0.1227 -0.0723
 1902W        W18036  16.331   8.007  13.772 -0.1603  0.1123 -0.1943
 1903W        W18037   3.923  17.645   3.944 -0.2579 -0.0007 -0.1788
 1904W        W18038  10.391   0.358  12.670  0.0339  0.0202  0.1628
 1905W        W18039   7.294   5.355   5.254 -0.1404  0.1683 -0.1257
 1906W        W18040   6.482   0.045  14.077  0.2369 -0.0715  0.3763
 1907W        W18041  11.029   0.733   4.732 -0.1037  0.2038 -0.1166
 1908W        W18042   6.722  12.081   1.133  0.1680 -0.0124  0.0181
 1909W        W18043   3.816   7.299   2.658 -0.1919  0.2313 -0.3402
 1910W        W18044  16.812   6.203  13.643  0.1043 -0.0952 -0.0952
 1911W        W18045  16.751  11.684  12.337  0.1092 -0.0836  0.0881
 1912W        W18046   7.000  17.006  11.619  0.0326 -0.1852  0.0103
 1913W        W18047  16.857   5.360  16.514 -0.0931 -0.2151 -0.0281
 1914W        W18048   5.574  15.206   5.074 -0.0588  0.0955  0.0998
 1915W        W18049   4.883   5.822  14.451 -0.1159 -0.2296  0.1504
 1916W        W18050  12.097   8.613  13.615  0.1513 -0.1910  0.2613
 1917W        W18051   6.170  16.511   1.364  0.0874  0.0208  0.0120
 1918W        W18052  11.773   1.450   5.625  0.0152 -0.0840 -0.0528
 1919W        W18053  13.827  12.611   0.576  0.0173  0.4092 -0.0133
 1920W        W18054   4.009  12.883  11.739 -0.2482 -0.0281 -0.2019
 1921W        W18055  12.606  14.593   2.622 -0.0611 -0.0816  0.4460
 1922W        W18056   6.396  15.461   0.704  0.0287  0.0283 -0.4339
 1923W        W18057   4.226  11.694   4.840 -0.0159 -0.0134 -0.2484
 1924W        W18058  12.871   3.152   0.222 -0.0745  0.1976 -0.0832
 1925W        W18059   3.430   3.990   5.251 -0.1576  0.1620  0.1880
 1926W        W18060   1.366  13.610  12.403 -0.1463  0.3634  0.1671
 1927W        W18061  16.184   0.752  13.966  0.0640 -0.4735 -0.3783
 1928W        W18062   3.532  17.590  13.838 -0.1400  0.0060  0.2656
 1929W        W18063   2.014  16.300  15.338 -0.0573 -0.2893 -0.0884
 1930W        W18064  10.220   4.413   1.567  0.0048  0.0717  0.1269
 1931W        W18065  11.086  10.126  13.872 -0.1136 -0.2887  0.0937
 1932W        W18066   4.093  10.737  16.675 -0.0390 -0.1623 -0.2250
 1933W        W18067   9.792   5.850   3.608  0.2817 -0.3143  0.0178
 1934W        W18068  14.574   3.647  15.634 -0.0357  0.2001  0.2861
 1935W        W18069   5.448   6.038   2.960  0.0692  0.1021  0.0285
 1936W        W18070   3.678   5.546  11.336  0.0106 -0.2213 -0.0418
 1937W        W18071  14.904  16.904   2.145  0.2439  0.1377 -0.2601
 1938W        W18072  11.089  10.785  11.571 -0.1992 -0.2514  0.0909
 1939W        W18073  13.485  12.174  15.018  0.1458 -0.1830 -0.3340
 1940W        W18074   6.195  12.976   2.642  0.1774 -0.1533 -0.0043
 1941W        W18075  12.804   6.575   0.117  0.4445 -0.1856 -0.0933
 1942W        W18076  13.048   7.173   3.846 -0.0612 -0.0744 -0.3352
 1943W        W18077   7.202  12.926  16.207 -0.0067 -0.0593 -0.3135
 1944W        W18078   5.517  14.342   5.498  0.0716  0.1791 -0.0743
 1945W        W18079  13.627   7.300  12.190 -0.5764  0.0792 -0.3084
 1946W        W18080   4.820   9.794  13.569  0.1065  0.1113 -0.1852
 1947W        W18081   2.296  14.128  15.168  0.1352 -0.1119  0.1618
 1948W        W18082   1.880  14.707   1.403 -0.1077 -0.0526  0.1844
 1949W        W18083  10.162  12.302  14.225 -0.0529  0.0727  0.0323
 1950W        W18084   4.762   7.990  14.270  0.1438 -0.0416 -0.0260
 1951W        W18085   4.256  15.842  12.026  0.1335  0.3430 -0.0503
 1952W        W18086   1.890   3.075  11.299  0.0859  0.2682 -0.0468
 1953W        W18087   1.024   3.905   2.945  0.0387 -0.0522 -0.1547
 1954W        W18088  17.906   9.831  15.259  0.1592  0.0409  0.1114
 1955W        W18089  12.246   1.442  14.985  0.1664  0.0537 -0.0215
 1956W        W18090   0.066  11.020  15.416  0.1952  0.1737 -0.0471
 1957W        W18091  15.987  11.464  16.716  0.0691  0.2549  0.0030
 1958W        W18092   6.243   7.735   4.625  0.0065 -0.0122 -0.2929
 1959W        W18093   9.195   3.725   2.925 -0.1050  0.2155 -0.1383
 1960W        W18094   4.726  10.296  13.075  0.1618 -0.2338  0.1060
 1961W        W18095  12.895  12.500   2.524 -0.3146 -0.3044  0.1624
 1962W        W18096  13.181  12.504   6.494 -0.3457  0.0780 -0.1129
 1963W        W18097   6.039   5.163  12.291 -0.1841  0.0747 -0.2871
 1964W        W18098   2.553   1.457  11.509 -0.0261  0.0097  0.0009
 1965W        W18099  13.899   2.812   5.339 -0.0474  0.0371  0.3394
 1966W        W18100  15.465   2.554  15.774 -0.2365  0.0789  0.1994
 1967W        W18101   6.274   7.234  15.311  0.0954 -0.0131  0.1442
 1968W        W18102  12.481  12.174  13.461  0.2211  0.2551  0.2997
 1969W        W18103   6.304  10.298   3.406  0.3656 -0.0618  0.1600
 1970W        W18104   0.900  13.292   0.610 -0.2270 -0.2351  0.1075
 1971W        W18105   9.807  12.706   0.434  0.0308  0.1118 -0.1583
 1972W        W18106  11.764   8.046   3.437  0.0300  0.1999  0.2198
 1973W        W18107  13.810  11.926  13.502 -0.0859 -0.1726  0.0109
 1974W        W18108  15.911  12.361   5.266 -0.0864  0.1608 -0.0795
 1975W        W18109   7.078   9.325   2.248 -0.0413 -0.2296 -0.0322
 1976W        W18110   8.200  14.810   4.834 -0.3599 -0.0826 -0.0466
 1977W        W18111   8.170  12.444   1.735  0.0077 -0.1892  0.0177
 1978W        W18112  16.037  17.011  16.364 -0.2038 -0.2512  0.1610
 1979W        W18113  17.339   3.278  15.790  0.1594  0.0104  0.0664
 1980W        W18114   0.991   7.238   3.062 -0.0649  0.2013  0.1533
 1981W        W18115  14.168   7.296  16.718 -0.1433 -0.0368 -0.2154
 1982W        W18116   8.151  11.838   4.003  0.2812  0.2175  0.2268
 1983W        W18117  16.560  11.333   2.448 -0.1014  0.2606  0.1589
 1984W        W18118   2.286   6.033   1.566 -0.0420 -0.2068  0.1937
 1985W        W18119   6.169   9.739  15.855 -0.1194 -0.2283 -0.0034
 1986W        W18120   5.647   7.692   3.752  0.0114  0.0692 -0.1812
 1987W        W18121  15.614  10.604   2.245  0.2330 -0.1813 -0.1347
 1988W        W18122   4.781   2.222   4.373 -0.0967 -0.3705 -0.1395
 1989W        W18123   9.035   3.325  14.281 -0.2490 -0.0716 -0.0347
 1990W        W18124   1.085  11.453   4.780 -0.3798 -0.0683  0.2118
 1991W        W18125  11.828  10.403  15.538  0.1257 -0.0773 -0.0211
 1992W        W18126  16.776   7.606   5.366 -0.2018 -0.2466  0.0308
 1993W        W18127   6.668   9.355   1.969  0.1986 -0.1124  0.1380
 1994W        W18128  15.734  13.753  12.984  0.1821  0.0865  0.1927
 1995W        W18129   3.706   2.777  13.285  0.0618 -0.1318  0.1285
 1996W        W18130  10.940   0.011  11.961 -0.1246 -0.0089 -0.0169
 1997W        W18131   1.589  15.560   3.924 -0.1397  0.2099 -0.0997
 1998W        W18132   1.270   0.085   2.907  0.2558  0.2828 -0.0132
 1999W        W18133  13.661  12.211  14.504  0.0168  0.1964 -0.2478
 2000W        W18134   1.231   2.565   0.091 -0.1606  0.2316  0.1961
 2001W        W18135   2.363   7.014  15.739 -0.3023 -0.2692  0.3044
 2002W        W18136   1.464   5.482  13.631  0.0472 -0.2567 -0.2732
 2003W        W18137   0.045  10.680  15.018 -0.0023  0.1806 -0.0652
 2004W        W18138  11.610  16.233  15.205 -0.1973  0.0834  0.1576
 2005W        W18139   5.251   8.812  14.812 -0.2561 -0.1346 -0.2381
 2006W        W18140   5.727  17.878   1.583 -0.0561 -0.4219 -0.1286
 2007W        W18141  17.336   4.842  14.927 -0.3907  0.0177  0.1613
 2008W        W18142  17.713   4.029  12.608  0.0579 -0.1815  0.0648
 2009W        W18143  17.871  17.784  14.299  0.2513 -0.0118 -0.2004
 2010W        W18144  10.872   2.967   3.294 -0.2878 -0.0378  0.0084
 2011W        W18145   1.106   8.098  13.953 -0.0028  0.2571 -0.0977
 2012W        W18146  11.383   8.432  12.241  0.0936 -0.0385 -0.2263
 2013W        W18147   7.699   3.643   3.417 -0.0355 -0.2516  0.0107
 2014W        W18148  17.726   1.772  14.214 -0.4709 -0.1634 -0.0144
 2015W        W18149   3.290   7.907   4.064 -0.0242  0.0156 -0.0868
 2016W        W18150  14.972  11.693  16.651 -0.0057 -0.0758  0.1420
 2017W        W18151   3.787  12.431  11.711 -0.1351 -0.2495 -0.0640
 2018W        W18152   3.110   6.522  14.305  0.0378 -0.3475 -0.0244
 2019W        W18153   3.774  16.194   3.130 -0.0606  0.3344 -0.1878
 2020W        W18154  13.209   2.209  14.759 -0.0351 -0.0551  0.0200
 2021W        W18155   7.426  17.760   1.861 -0.1508 -0.0044 -0.3256
 2022W        W18156   3.185  17.164   1.755  0.1439 -0.0831  0.1262
 2023W        W18157   0.093  10.394  15.420 -0.0720  0.0042  0.2617
 2024W        W18158  13.423  13.478   0.882  0.0386 -0.2388 -0.0541
 2025W        W18159  13.740  12.986   2.886 -0.2013 -0.2279 -0.0518
 2026W        W18160  10.115   1.731  15.031  0.0566  0.1569  0.0506
 2027W        W18161  15.660  17.320   0.749 -0.0013  0.0560  0.1881
 2028W        W18162   7.989   2.817   3.489  0.0480 -0.1044 -0.2786
 2029W        W18163   1.853  14.328  14.947  0.0355  0.0293 -0.0255
 2030W        W18164  17.345   4.479   4.911 -0.2046 -0.0661 -0.0977
 2031W        W18165   1.830   1.928   3.902 -0.2993 -0.1687 -0.2278
 2032W        W18166   9.158  10.858   3.361 -0.2575 -0.2282  0.1267
 2033W        W18167   7.911  16.821  13.822  0.1252  0.1075  0.2495
 2034W        W18168  12.273  11.664  16.036 -0.0706  0.3497  0.1070
 2035W        W18169   6.844   8.592  12.821  0.0306  0.1683  0.1224
 2036W        W18170  13.487  17.078  16.711 -0.1638  0.1171 -0.0013
 2037W        W18171   2.379   0.503   3.323 -0.1061 -0.1079 -0.3279
 2038W        W18172   1.776   8.178   3.635 -0.0843  0.0085 -0.0321
 2039W        W18173  16.128  10.290   0.194 -0.0104  0.1522  0.0881
 2040W        W18174  11.683  14.143   0.300 -0.0593 -0.0169  0.0996
 2041W        W18175  14.788   0.241  15.914 -0.1604  0.4261 -0.0567
 2042W        W18176  11.723   1.208   0.400 -0.2840 -0.3425  0.3383
 2043W        W18177   9.531   0.604   0.768 -0.0329  0.0524 -0.3278
 2044W        W18178   7.762   0.545  11.559 -0.0852  0.0530 -0.0478
 2045W        W18179   1.636   2.399  14.060 -0.1844 -0.0125  0.3475
 2046W        W18180   1.237  14.160   4.536 -0.1887  0.0138 -0.1640
 2047W        W18181  13.557  17.173   1.949  0.0386  0.0664  0.5211
 2048W        W18182   8.809   9.492   1.735  0.0624 -0.0429 -0.0367
 2049W        W18183  15.363   2.377  14.573 -0.0627  0.1359  0.1745
 2050W        W18184   6.354   4.431  14.999 -0.0127 -0.0209  0.1660
 2051W        W18185   0.342   8.365  12.848  0.0345  0.0708 -0.1410
 2052W        W18186   8.081  10.393  15.497 -0.3282  0.2724 -0.1208
 2053W        W18187   8.658   0.108   2.566 -0.0475 -0.2312  0.1188
 2054W        W18188  11.789   8.130  12.071  0.2260  0.2982 -0.3199
 2055W        W18189   6.968   4.778  15.437  0.2289  0.2362 -0.1134
 2056W        W18190   9.876   3.854   4.317  0.2610 -0.0707 -0.1063
 2057W        W18191   8.767   9.323  13.962 -0.0887  0.2520 -0.2475
 2058W        W18192   5.451  14.191   1.115 -0.1415  0.0766  0.0184
 2059W        W18193   6.549  10.991   3.120 -0.1202  0.0146  0.3121
 2060W        W18194   7.485  10.722   4.665  0.2009  0.0115 -0.0703
 2061W        W18195  16.753  17.485   4.534 -0.0212 -0.0373 -0.0203
 2062W        W18196  16.139   5.794   5.326 -0.3610 -0.3430  0.3018
 2063W        W18197   4.546   3.696   1.946  0.1572  0.1155 -0.0210
 2064W        W18198  17.863   2.908  11.307  0.0637  0.2192  0.1854
 2065W        W18199  12.762   7.247   3.433  0.1158 -0.0781  0.2507
 2066W        W18200   0.894   2.170   1.647 -0.2218 -0.2511  0.2911
 2067W        W18201  11.175  16.174  14.925 -0.1602 -0.0691  0.0028
 2068W        W18202   4.232  11.376  15.350 -0.1534 -0.1091 -0.0295
 2069W        W18203  10.095   5.678   4.267 -0.0556  0.2650 -0.0156
 2070W        W18204   6.250  14.427   2.686 -0.1006  0.1655 -0.3658
 2071W        W18205   6.524   6.137   3.148  0.0620 -0.0052  0.0650
 2072W        W18206   1.263  17.724  12.721 -0.3600  0.0068 -0.0228
 2073W        W18207   1.308  10.506   5.572  0.0949 -0.0873 -0.1363
 2074W        W18208   3.626  15.693   0.454  0.0740 -0.0962 -0.0460
 2075W        W18209   9.350  17.950   0.819  0.4338 -0.0009  0.0317
 2076W        W18210   6.643   9.860  15.509  0.0693 -0.1733  0.1821
 2077W        W18211  11.849   1.100   2.754  0.1048  0.0481  0.0198
 2078W        W18212   8.459  12.191   4.282  0.0146 -0.0708 -0.0805
 2079W        W18213  10.870  16.272  15.429  0.1472 -0.3827  0.4179
 2080W        W18214  13.483   3.618   1.553  0.1116  0.3032  0.1333
 2081W        W18215   3.940  12.600  13.732  0.1283 -0.0313  0.1570
 2082W        W18216   5.060  12.062  11.453 -0.0410 -0.0891  0.0760
 2083W        W18217   3.372  15.016   4.106  0.0143  0.1198 -0.1853
 2084W        W18218  16.072  10.574   2.005 -0.4159  0.3732 -0.2017
 2085W        W18219   0.056   1.069   1.349 -0.2236 -0.0664  0.1213
 2086W        W18220   3.621   0.570  14.093 -0.1661  0.0129 -0.2386
 2087W        W18221   0.809  15.172   5.113 -0.2423  0.0148 -0.0037
 2088W        W18222   3.214   0.683   3.704 -0.0681  0.0822  0.1140
 2089W        W18223   1.808  17.964  14.425 -0.2356  0.1230  0.4204
 2090W        W18224   2.980  17.757   0.303  0.1264 -0.2233 -0.2049
 2091W        W18225   5.883   4.152  14.816 -0.1890  0.1522  0.2169
 2092W        W18226  10.188   4.210   0.470 -0.1830 -0.0525  0.1710
 2093W        W18227  15.169   3.058   0.718 -0.1337  0.0184  0.2387
 2094W        W18228   5.234   2.926  15.273  0.1506  0.0769 -0.1834
 2095W        W18229  17.836   2.218   0.792 -0.1646  0.1155  0.1630
 2096W        W18230  13.965   7.504  15.820 -0.4115 -0.1620  0.0882
 2097W        W18231   5.264  15.681  12.185 -0.1114  0.2456 -0.0518
 2098W        W18232   7.536  16.469  12.337 -0.0828 -0.1553 -0.1917
 2099W        W18233   1.635  14.033   1.750  0.0216  0.0279 -0.0458
 2100W        W18234   8.421   9.175   4.618 -0.1319 -0.0804  0.3402
 2101W        W18235   5.213  17.429   3.976  0.0460  0.1366  0.0384
 2102W        W18236   0.622   6.361  11.667  0.0436  0.2546  0.1824
 2103W        W18237   4.059  17.724  14.634 -0.0361  0.0319  0.1044
 2104W        W18238   7.297   0.494  11.593  0.0843  0.1366 -0.0717
 2105W        W18239  13.109  14.995   4.127 -0.1041  0.0977 -0.2706
 2106W        W18240  11.525  11.067   0.776 -0.0950  0.1456 -0.2765
 2107W        W18241   5.686   3.186  16.117  0.0342 -0.0589 -0.1130
 2108W        W18242  17.062  10.573   2.662  0.0861 -0.2466 -0.0874
 2109W        W18243   1.658  10.852   1.146  0.1272  0.0050  0.1084
 2110W        W18244  14.201  15.415  16.494  0.1977 -0.2045  0.1143
 2111W        W18245   1.168   2.622   2.399 -0.1474 -0.2800  0.2463
 2112W        W18246  11.382  14.741  16.295 -0.3182 -0.0716 -0.0460
 2113W        W18247   7.778   1.669  14.860 -0.1095  0.3692  0.2775
 2114W        W18248   1.054  16.152  11.541 -0.1777 -0.2257 -0.0006
 2115W        W18249  12.726  12.252   1.998  0.1616  0.0617 -0.3271
 2116W        W18250   9.593  17.004  15.593  0.0879 -0.1928  0.3911
 2117W        W18251   0.455   8.658   1.254 -0.2926  0.1641  0.1515
 2118W        W18252   3.213  10.068   0.552  0.1565 -0.0715 -0.1475
 2119W        W18253   0.289   0.706  13.106 -0.1494  0.1870 -0.1643
 2120W        W18254  11.389  14.892   2.926 -0.2019  0.0197 -0.0086
 2121W        W18255   0.056   2.779  13.149 -0.0691  0.1891 -0.1447
 2122W        W18256  13.275  11.145   5.170  0.1965 -0.1779 -0.4791
 2123W        W18257   5.080   3.711  14.962  0.2199  0.2507  0.2670
 2124W        W18258   3.912   0.217   0.466 -0.2077 -0.1399 -0.0811
 2125W        W18259   2.814  13.476  11.830  0.0349  0.4152 -0.1529
 2126W        W18260   9.807  17.642  16.173 -0.1307 -0.0400 -0.1068
 2127W        W18261  15.059  11.877   5.258  0.1591 -0.1688  0.1143
 2128W        W18262  11.489   3.035   2.964 -0.1443 -0.1530  0.0256
 2129W        W18263   6.291   9.152   4.977 -0.0377 -0.1258 -0.0964
 2130W        W18264   8.301  12.947  11.542 -0.0440 -0.0355 -0.3364
 2131W        W18265  17.643   0.971   2.777  0.2663 -0.0282  0.0458
 2132W        W18266  12.116   5.057  14.396  0.1360  0.2812 -0.0878
 2133W        W18267   2.013   9.068  13.267 -0.0386  0.2164  0.2594
 2134W        W18268   0.817   3.091   2.080 -0.1650 -0.0649  0.0112
 2135W        W18269   4.142   3.232   0.346 -0.0455  0.0971  0.1948
 2136W        W18270   8.618   1.580   0.137  0.2255  0.0431 -0.0584
 2137W        W18271  15.177   7.946  10.220 -0.0689 -0.2468 -0.0489
 2138W        W18272   1.142  13.741   3.131 -0.3137  0.0047  0.1755
 2139W        W18273  12.506   5.165  16.566 -0.3202  0.0282  0.1632
 2140W        W18274   5.376   8.579  12.854  0.1071 -0.2644 -0.1666
 2141W        W18275   1.110   4.036  11.330 -0.2992  0.0666  0.1884
 2142W        W18276  17.945   4.849  11.609  0.2317  0.1029  0.0025
 2143W        W18277   4.546   7.755  15.688  0.1529 -0.0118 -0.0111
 2144W        W18278  14.460  11.515  13.192 -0.4156  0.1557  0.1149
 2145W        W18279  17.422   6.240  16.667  0.3503  0.1213  0.1050
 2146W        W18280   3.861   4.024  15.521 -0.1781 -0.2295 -0.1490
 2147W        W18281   7.145  13.043   4.458  0.0866 -0.0117  0.1014
 2148W        W18282  17.926  11.139   1.150  0.2224  0.1253  0.0605
 2149W        W18283   9.939  11.866   6.302 -0.1261  0.1258  0.1459
 2150W        W18284   2.352   4.012  14.627  0.0590 -0.0363  0.1541
 2151W        W18285   5.229   3.089   5.220 -0.2203  0.1735 -0.3674
 2152W        W18286  16.451   5.941  11.885  0.1786  0.4821  0.1747
 2153W        W18287   6.873  17.186   4.343 -0.1937  0.0410  0.1226
 2154W        W18288   8.615   8.249   0.147  0.2921 -0.2629 -0.1648
 2155W        W18289  11.945  16.504  14.361  0.3350  0.0943 -0.2363
 2156W        W18290   3.147  13.939   5.416 -0.0145  0.0940  0.0181
 2157W        W18291  14.101  10.868  14.170  0.1385  0.0116  0.1007
 2158W        W18292   4.531  17.243  13.216  0.1146  0.1343 -0.2664
 2159W        W18293   7.951   4.496  15.924 -0.1031 -0.1108  0.0793
 2160W        W18294   7.856  10.208   0.304 -0.0873 -0.0957  0.0672
 2161W        W18295  16.104  16.043  13.732 -0.0799 -0.1703 -0.1427
 2162W        W18296   9.989  11.383   3.924 -0.2174 -0.1084  0.1472
 2163W        W18297   0.309   5.456   3.499 -0.0569  0.0665 -0.0446
 2164W        W18298   7.514  16.715   2.885 -0.2490  0.0581  0.1278
 2165W        W18299  17.060  14.027  13.683  0.4265  0.2147 -0.0026
 2166W        W18300   6.030   4.554  14.540 -0.3255 -0.1452 -0.0462
 2167W        W18301   6.041  17.033  16.070  0.0561 -0.0534  0.1239
 2168W        W18302  11.961  17.563   2.647  0.1328 -0.1194  0.0491
 2169W        W18303  13.870   1.226  15.804 -0.0559  0.0852 -0.2664
 2170W        W18304   4.043  15.577   5.542  0.0520  0.1909  0.0311
 2171W        W18305   4.287   1.441  15.030 -0.2313  0.0527 -0.3441
 2172W        W18306  11.883  11.584   5.105 -0.1434  0.1179 -0.3003
 2173W        W18307   5.699  17.951   2.478  0.2554  0.3366  0.2597
 2174W        W18308  16.442  17.807  11.993  0.0402  0.1252 -0.4629
 2175W        W18309   4.359   4.192  15.621  0.4513 -0.1421 -0.2536
 2176W        W18310  17.251   5.594  16.224 -0.1578  0.0689 -0.0902
 2177W        W18311   8.267   3.702  16.368  0.0884  0.0843  0.2832
 2178W        W18312   0.078   3.829  11.103 -0.2214  0.3181  0.0037
 2179W        W18313   8.950  16.797   5.550  0.2206  0.2325  0.4019
 2180W        W18314  15.974   8.320  11.199 -0.3095  0.1740  0.2865
 2181W        W18315  10.366   7.608  11.905 -0.2175 -0.3902  0.1182
 2182W        W18316   4.924  13.481   3.600  0.1774 -0.1615  0.2731
 2183W        W18317  16.638   3.915   4.414  0.2035  0.0208 -0.1394
 2184W        W18318   8.176  11.056   3.207 -0.0864  0.0447  0.2062
 2185W        W18319   2.078   5.019  11.905  0.1346  0.2598  0.0913
 2186W        W18320   9.572   8.852  15.554 -0.1033  0.0131 -0.2397
 2187W        W18321   0.678   3.390   2.911 -0.0107 -0.0335  0.0492
 2188W        W18322  15.769   1.248   3.517 -0.1771 -0.1406  0.2126
 2189W        W18323  15.419  10.181  13.611 -0.0730  0.1267 -0.1773
 2190W        W18324   6.295   8.166  11.804  0.2888  0.0880  0.0941
 2191W        W18325  16.218  10.734   4.996 -0.0168  0.2006 -0.2792
 2192W        W18326  10.289   4.709   4.541 -0.0192  0.2887 -0.1112
 2193W        W18327  11.618   5.585   0.323  0.2917  0.2557  0.1846
 2194W        W18328   4.028   6.770  15.710 -0.1093 -0.2696  0.0882
 2195W        W18329  13.454  16.386  15.358  0.0188 -0.2554  0.0324
 2196W        W18330   8.772   0.083   4.597 -0.3008 -0.0204  0.0295
 2197W        W18331   5.443   9.804  12.499 -0.0354  0.1802 -0.0246
 2198W        W18332   5.866   8.524   4.327  0.1125  0.0659  0.1113
 2199W        W18333   1.414  15.332  13.155  0.0643 -0.1528  0.1066
 2200W        W18334  17.658   3.243   4.541 -0.3102  0.0714 -0.0817
 2201W        W18335   0.404   8.432  12.355  0.3148 -0.0813  0.0072
 2202W        W18336  13.053  10.814   3.841 -0.2653 -0.1083 -0.1856
 2203W        W18337   3.168   6.820   0.163 -0.1374  0.0782 -0.0007
 2204W        W18338  13.781  10.122   1.682 -0.1012 -0.6089 -0.0713
 2205W        W18339   4.644   4.372  14.381 -0.2350 -0.2749 -0.1253
 2206W        W18340  14.662  10.918   2.632  0.2431  0.1954 -0.2083
 2207W        W18341   5.761  15.888   4.737 -0.2560 -0.2509 -0.2946
 2208W        W18342  10.614  15.191   3.036 -0.1045  0.1174 -0.0762
 2209W        W18343   8.673  15.216   0.726  0.0196  0.1894  0.1136
 2210W        W18344  14.865   5.721   3.413  0.0102 -0.2304 -0.1828
 2211W        W18345  11.343   3.253  14.111  0.1151  0.0656  0.1455
 2212W        W18346  10.429  14.674  16.500 -0.1743 -0.3955 -0.2243
 2213W        W18347   5.126  10.267  13.544  0.0572  0.0456  0.2543
 2214W        W18348   6.500  12.955  11.559  0.0303  0.1787 -0.1122
 2215W        W18349   7.565  13.941   0.439  0.0850  0.2110 -0.1819
 2216W        W18350  11.881   3.056  14.205  0.0736 -0.1243  0.1105
 2217W        W18351   0.631   1.291  16.127 -0.0107  0.3544 -0.0611
 2218W        W18352  15.609   4.481   1.736 -0.0685  0.3697  0.3159
 2219W        W18353  13.198   9.519  13.299  0.0903  0.3625  0.1493
 2220W        W18354   1.595  11.472   5.526  0.3505 -0.0146  0.1995
 2221W        W18355   9.600  16.387   1.597  0.2856  0.0708 -0.3021
 2222W        W18356   8.850   6.283  15.207 -0.0057  0.0794 -0.2084
 2223W        W18357  12.940   9.965  12.919 -0.2336 -0.0472  0.3193
 2224W        W18358  12.412  15.994   3.381 -0.0326 -0.2021  0.1132
 2225W        W18359  12.460  11.188   0.021  0.3189  0.0157  0.0977
 2226W        W18360   5.938  15.678  14.637 -0.3178 -0.0625  0.1917
 2227W        W18361   0.692   1.520  13.029 -0.1809 -0.2437  0.3880
 2228W        W18362  15.689   3.801  13.454 -0.1751  0.2485  0.1355
 2229W        W18363   4.643  10.640   4.284 -0.2406 -0.1464  0.0536
 2230W        W18364   8.145  16.986  15.765 -0.4050 -0.1133 -0.1245
 2231W        W18365   7.283  15.506   5.808 -0.0551 -0.0631  0.1367
 2232W        W18366   1.831   5.825  14.932 -0.0683 -0.0614 -0.0000
 2233W        W18367   8.189   9.615  12.693 -0.0320  0.0698  0.0402
 2234W        W18368   7.653   8.348  13.472 -0.0955 -0.1132  0.0103
 2235W        W18369   9.328   5.768  15.354  0.2635 -0.0811 -0.0246
 2236W        W18370  11.872   8.563   4.074  0.3944  0.0561 -0.3851
 2237W        W18371  11.886  16.235   0.727 -0.0787 -0.1051  0.0881
 2238W        W18372   0.539  10.817  16.571  0.0438 -0.0303  0.0993
 2239W        W18373   3.174   8.513   5.802 -0.1004  0.1363 -0.1886
 2240W        W18374   0.093   5.002  13.794  0.0011  0.0878  0.1970
 2241W        W18375  11.104   4.098  13.841  0.0063  0.1004 -0.0042
 2242W        W18376   5.030  15.245   2.655  0.3171  0.0219  0.1914
 2243W        W18377   7.092   9.491   3.956  0.2386 -0.1276 -0.0826
 2244W        W18378   9.955   7.424   4.978 -0.1774  0.2736  0.0550
 2245W        W18379   7.084   7.880   0.399  0.1172 -0.0998 -0.0326
 2246W        W18380  11.162   3.720  14.139 -0.1943 -0.0689 -0.0337
 2247W        W18381  15.334   0.057   4.484 -0.0913  0.1407 -0.0556
 2248W        W18382   3.774  10.121  12.869 -0.0691 -0.3600  0.1787
 2249W        W18383   2.195  15.383   0.328  0.1562  0.2447 -0.1715
 2250W        W18384  15.666  13.428   3.162 -0.0689 -0.2650  0.0399
 2251W        W18385   7.394  15.070  14.603  0.3016 -0.0668 -0.1873
 2252W        W18386   0.798  11.545  13.273  0.0173 -0.1680 -0.3162
 2253W        W18387   6.163  13.412   3.046 -0.0139 -0.3195 -0.2663
 2254W        W18388   5.601   3.126  12.393  0.2246  0.0461  0.2162
 2255W        W18389   4.709   1.963  12.476 -0.2532  0.2166 -0.0123
 2256W        W18390   9.488   8.739  11.292  0.1621 -0.0278 -0.1306
 2257W        W18391   7.728   3.831   4.989  0.3298  0.1196 -0.0735
 2258W        W18392  13.694   5.571   4.868 -0.3864 -0.1321 -0.4206
 2259W        W18393  15.433  17.130   4.283  0.0726  0.0798  0.0778
 2260W        W18394  16.193  10.172   1.832 -0.0268  0.1052  0.0238
 2261W        W18395  12.814   0.623  14.738  0.0749 -0.0035  0.2778
 2262W        W18396  12.225   9.568   0.301 -0.1952 -0.3497 -0.1063
 2263W        W18397   9.122  17.204   2.612  0.1640 -0.0445  0.3551
 2264W        W18398   5.356   3.293   3.848  0.1284 -0.1335  0.1418
 2265W        W18399   5.778   4.891  13.707  0.2463  0.2443 -0.3127
 2266W        W18400   6.146  12.583   0.676 -0.2278 -0.1779 -0.1841
 2267W        W18401   0.008   2.683  12.120  0.0973 -0.1437 -0.0426
 2268W        W18402   8.194   8.612   5.187  0.3114  0.0169 -0.3804
 2269W        W18403   9.497   5.718   4.880 -0.4191  0.2472  0.1961
 2270W        W18404  15.397   7.973   0.522  0.2094 -0.1786 -0.1211
 2271W        W18405  12.672   2.539   3.764  0.1775 -0.2682  0.1333
 2272W        W18406  11.156   8.500  16.492 -0.1301  0.0307  0.1946
 2273W        W18407   0.275  12.700  12.908 -0.1420 -0.0077 -0.1156
 2274W        W18408   0.257  17.162  15.562 -0.0522  0.0930 -0.0443
 2275W        W18409   9.186  12.000   1.383 -0.0156 -0.0200  0.2117
 2276W        W18410   1.742   9.906  13.855  0.0613 -0.4784  0.4910
 2277W        W18411   2.142   9.209   0.953  0.0613 -0.0194  0.1082
 2278W        W18412   8.939   0.698   4.575 -0.1667  0.0062 -0.0002
 2279W        W18413   1.080   0.984   3.872 -0.0154  0.1623 -0.0155
 2280W        W18414   2.852   0.338  11.770 -0.0344  0.1033  0.1120
 2281W        W18415  13.137  10.497  12.974 -0.0864  0.1787  0.0904
 2282W        W18416   8.022  14.107   0.255 -0.4064  0.0041  0.0777
 2283W        W18417  13.733   0.885   0.945 -0.3380  0.0060 -0.1722
 2284W        W18418  14.861   9.700  12.869  0.0801 -0.1878 -0.1985
 2285W        W18419  11.918  16.135   2.797  0.0654 -0.1980 -0.2269
 2286W        W18420  15.287  14.710   3.154 -0.2374 -0.2311 -0.0352
 2287W        W18421  13.217   9.242  14.237  0.0677  0.0421  0.0438
 2288W        W18422  11.815   5.303  13.891  0.0431 -0.0786 -0.1723
 2289W        W18423  15.062  11.762  14.681 -0.4631 -0.1434 -0.1200
 2290W        W18424  16.865   7.665  15.021 -0.0961  0.2766 -0.0885
 2291W        W18425   8.633  10.252  14.823  0.0442 -0.0672 -0.1502
 2292W        W18426  16.217   5.773  13.116 -0.3322  0.2269  0.0949
 2293W        W18427  10.011   6.032  11.571  0.0490  0.0748 -0.4137
 2294W        W18428   0.196   1.246   0.313 -0.0608 -0.0110 -0.1266
 2295W        W18429   0.924   3.397  12.058 -0.0108  0.1597 -0.2445
 2296W        W18430   7.515  12.279  12.018 -0.1398 -0.1214 -0.1263
 2297W        W18431  10.482   0.123   4.270  0.0113  0.0671  0.3565
 2298W        W18432   7.076   0.952  11.660 -0.0199  0.1184  0.2350
 2299W        W18433  14.253  13.187   0.696 -0.1094 -0.3503 -0.1696
 2300W        W18434  16.707  13.603   5.344  0.3495 -0.1529 -0.1345
 2301W        W18435  14.537   9.068  15.274 -0.0613  0.1655 -0.1294
 2302W        W18436   5.145   5.033  13.079  0.1461 -0.0812 -0.4243
 2303W        W18437  14.335  15.058  16.166  0.0140 -0.2501  0.0710
 2304W        W18438  15.711  12.304  13.090  0.2592 -0.0163  0.1805
 2305W        W18439   7.943   3.804   0.623 -0.0246  0.0393 -0.1574
 2306W        W18440  11.621  12.403  11.425 -0.1284  0.1272 -0.2079
 2307W        W18441  14.564  13.759  11.775  0.1167 -0.0641 -0.1491
 2308W        W18442  10.136   8.156   2.183  0.2473  0.0973 -0.4134
 2309W        W18443   3.586   7.096   4.654  0.0426 -0.3389  0.1180
 2310W        W18444  14.205   4.912   1.720  0.3199  0.0262 -0.2427
 2311W        W18445   3.370   4.896  12.924 -0.1472  0.1086  0.4431
 2312W        W18446  17.375   1.323  14.013  0.1193 -0.0422 -0.0715
 2313W        W18447   5.387   4.625  13.482 -0.0550  0.1500  0.0856
 2314W        W18448  16.548   3.212  14.568  0.0163  0.0526 -0.0688
 2315W        W18449   7.918  15.304  13.418 -0.0010  0.1007  0.0523
 2316W        W18450  17.775   2.749  16.627  0.0594 -0.2576  0.1223
 2317W        W18451   4.367  10.720  14.806 -0.2260 -0.2481  0.0326
 2318W        W18452   6.921   2.663  12.359  0.3262 -0.1553  0.0544
 2319W        W18453   1.469   1.772  16.125 -0.3310  0.0130 -0.0590
 2320W        W18454   8.910   3.781  14.109 -0.0753  0.2867  0.3155
 2321W        W18455   5.087   9.405   4.020 -0.0866 -0.1393  0.4877
 2322W        W18456   9.885   2.658  12.552 -0.1014 -0.2650  0.0284
 2323W        W18457   9.036   8.255   4.304 -0.1139 -0.0532 -0.0022
 2324W        W18458   6.899   5.986   3.572 -0.1283  0.2816 -0.0936
 2325W        W18459   1.201   7.784   5.037 -0.0101 -0.0224 -0.0132
 2326W        W18460   2.300  11.943   0.197  0.2395 -0.2128 -0.0074
 2327W        W18461   4.226  17.416  12.832  0.3850  0.0192  0.0779
 2328W        W18462   8.826   8.446  14.277  0.2521  0.0597 -0.1519
 2329W        W18463   0.720   4.666   1.544  0.0635 -0.0300  0.2081
 2330W        W18464   5.447   4.125   5.956 -0.0166  0.1636 -0.2026
 2331W        W18465  14.403   6.865  14.598  0.0568  0.1089 -0.1048
 2332W        W18466  12.231  15.256   2.338  0.0260  0.1705 -0.1719
 2333W        W18467  15.302   8.605  16.306  0.1896 -0.3432  0.1090
 2334W        W18468   6.208  13.415   1.266 -0.1951  0.2598  0.1506
 2335W        W18469  12.889   5.520  16.681 -0.0229 -0.2313 -0.0704
 2336W        W18470   0.050  17.747   2.085  0.2222  0.1408 -0.0383
 2337W        W18471   4.037   2.118  16.112  0.2439  0.1406  0.0763
 2338W        W18472   4.652   2.356   4.928 -0.0395  0.0400 -0.1455
 2339W        W18473   0.528   4.776  11.588  0.0563  0.0865  0.0478
 2340W        W18474  16.222  17.565  12.388  0.0026 -0.0334 -0.0161
 2341W        W18475   5.857  14.790  16.430  0.0850  0.1509 -0.1068
 2342W        W18476   1.481   9.285  12.716  0.1526  0.2329  0.1949
 2343W        W18477   9.147   6.530  16.606  0.0032  0.0017  0.0524
 2344W        W18478   8.975   3.097   2.977 -0.1370 -0.2213  0.2461
 2345W        W18479   6.822   0.903   4.856 -0.1069 -0.0631  0.1343
 2346W        W18480   1.309   0.292  16.097 -0.2175  0.2472 -0.0618
 2347W        W18481  13.310   9.726   5.446  0.2197  0.0092  0.1139
 2348W        W18482  15.191   1.338   2.858 -0.3483 -0.2515  0.0081
 2349W        W18483   8.242   4.047   5.049 -0.5845  0.0436  0.0954
 2350W        W18484   7.684  13.482  11.757 -0.1552  0.0263 -0.2599
 2351W        W18485   6.659  17.164  15.581  0.0825 -0.0268 -0.1641
 2352W        W18486   5.695   1.167  11.206  0.1505  0.2018  0.1363
 2353W        W18487   8.936  11.644   5.105  0.1853  0.2353  0.0093
 2354W        W18488   7.478   9.494  16.720 -0.1373 -0.1612  0.1742
 2355W        W18489  16.647  14.564  13.408 -0.1930 -0.2359 -0.0318
 2356W        W18490  12.769   0.760   0.661  0.0391 -0.0352 -0.1472
 2357W        W18491  14.021   4.298  12.701 -0.0606  0.0311 -0.0509
 2358W        W18492   5.481  12.608  13.638  0.0900  0.1044 -0.0452
 2359W        W18493   9.449  13.624  14.970  0.2014  0.1254 -0.0735
 2360W        W18494   2.356   8.357  11.781  0.0113  0.0255  0.0463
 2361W        W18495   3.384  16.290   1.751  0.0416  0.0754  0.1511
 2362W        W18496   4.403   5.015  12.867  0.1176 -0.3278 -0.1111
 2363W        W18497  14.777  13.359  15.889 -0.1358  0.0696 -0.1727
 2364W        W18498  17.678   7.187  14.570 -0.1375  0.1662 -0.0916
 2365W        W18499  11.046  13.507   2.134  0.1054  0.0326 -0.3216
 2366W        W18500   0.464   0.234   4.455  0.3701 -0.1726 -0.0659
 2367W        W18501   3.313  17.936  12.176  0.0538  0.0099  0.2508
 2368W        W18502   6.195   6.665   1.532 -0.0029  0.0489 -0.0210
 2369W        W18503  14.327  12.321  11.756 -0.3443  0.1262 -0.0815
 2370W        W18504   1.735   9.739  14.811  0.1915 -0.3854  0.1113
 2371W        W18505   4.375  12.274  13.143  0.1687 -0.4452 -0.1629
 2372W        W18506   4.424  15.636  12.530  0.2244  0.3319  0.1746
 2373W        W18507  10.429   7.649   1.477 -0.0872  0.1453  0.1863
 2374W        W18508  15.211   7.950  13.122  0.0964 -0.3101 -0.2878
 2375W        W18509   1.355   2.412  13.540 -0.0801  0.0906  0.1560
 2376W        W18510   3.537  14.469   0.373  0.0945 -0.0024  0.0326
 2377W        W18511   1.540  16.962   3.215 -0.1669 -0.0734  0.0524
 2378W        W18512   7.814   9.650   0.338 -0.1586 -0.0674  0.0446
 2379W        W18513   9.548  16.828  13.281 -0.0385  0.0274 -0.0069
 2380W        W18514  15.596  13.806  13.759  0.0431 -0.2613  0.2247
 2381W        W18515   7.186  14.287  12.687 -0.0214 -0.0153  0.0477
 2382W        W18516  14.081   6.873  16.359 -0.1279  0.3195  0.2646
 2383W        W18517  13.002   5.992   4.922 -0.0291  0.0223 -0.2379
 2384W        W18518   0.234   3.239  14.003  0.0984 -0.1794 -0.1477
 2385W        W18519  16.555  14.029  12.774 -0.0489  0.0224 -0.2295
 2386W        W18520   6.858   2.378  16.533 -0.0026  0.1680 -0.0539
 2387W        W18521   1.079   6.925  14.819  0.0365 -0.3662 -0.0134
 2388W        W18522  10.423   4.905   3.414 -0.0300 -0.1094 -0.0015
 2389W        W18523  12.285  12.467  16.692  0.0154 -0.3346  0.1333
 2390W        W18524  12.486  13.821  15.635 -0.0827 -0.0012 -0.1023
 2391W        W18525   1.566   7.943   5.854  0.2576 -0.0012 -0.1973
 2392W        W18526   3.480   1.522  11.427  0.3560 -0.0890 -0.4929
 2393W        W18527  16.228  14.597   4.090  0.1692  0.2908 -0.0491
 2394W        W18528   4.494  10.001   0.836  0.0902  0.2801  0.0378
 2395W        W18529  13.376   7.304  12.632 -0.0063 -0.0733  0.1232
 2396W        W18530  13.257  10.196   0.270 -0.2997  0.1121  0.0374
 2397W        W18531   1.671   2.903   1.657  0.0524 -0.0415  0.0709
 2398W        W18532   6.707  13.929  12.370 -0.0235  0.0395  0.1360
 2399W        W18533   0.904   0.184  16.360 -0.0372  0.0436  0.0356
 2400W        W18534   5.651  11.942   4.383  0.1075 -0.1788 -0.2545
 2401W        W18535   9.962   9.609  11.702  0.0322  0.2007 -0.2495
 2402W        W18536  16.308  16.507  13.171 -0.0919 -0.1934  0.1000
 2403W        W18537  14.769   6.419  15.726  0.1251 -0.1693  0.1506
 2404W        W18538   7.066  13.250  15.064  0.0178  0.0887 -0.2578
 2405W        W18539   3.479   0.621   4.794 -0.2551  0.1133 -0.3033
 2406W        W18540   2.025  14.257   2.670  0.0034 -0.1530  0.1140
 2407W        W18541  11.232   5.103   1.668  0.0552 -0.1210  0.0664
 2408W        W18542  17.226   2.006   0.797  0.2193 -0.0992  0.0245
 2409W        W18543   1.245   0.940  12.083 -0.3535  0.3271 -0.0186
 2410W        W18544  10.032  17.859   5.519  0.1321 -0.3710  0.2813
 2411W        W18545   3.196   1.322  12.246 -0.1999  0.0440 -0.3227
 2412W        W18546   6.651   9.610  11.945 -0.0685 -0.4946 -0.1160
 2413W        W18547  17.134  14.440  13.384 -0.0640  0.0965 -0.2017
 2414W        W18548   4.001  15.510   0.156 -0.0874 -0.3420  0.0552
 2415W        W18549  15.919   9.131  16.081 -0.0510  0.1274  0.0623
 2416W        W18550  11.768   3.694  13.216  0.2025 -0.0384 -0.2604
 2417W        W18551  15.339   4.506   6.322  0.0009  0.1928  0.0901
 2418W        W18552   2.049  16.581  12.271 -0.0084  0.2724 -0.3832
 2419W        W18553  16.016   1.691   5.306 -0.1377  0.1745  0.0347
 2420W        W18554  14.536   3.505  13.057 -0.1460 -0.1072  0.1267
 2421W        W18555  15.891  14.791  12.947 -0.0727  0.2097 -0.4016
 2422W        W18556   9.993  16.170  16.542 -0.2058 -0.0552  0.0559
 2423W        W18557   6.849   9.661  14.377 -0.1988 -0.0164 -0.0471
 2424W        W18558   9.970   8.035  16.423 -0.0211  0.1258 -0.0040
 2425W        W18559  13.948   8.509  14.019 -0.0371 -0.2076 -0.0745
 2426W        W18560   3.062  16.516   0.576 -0.0560  0.2113  0.0253
 2427W        W18561   3.224   7.471   4.354  0.0389 -0.0697 -0.1609
 2428W        W18562  17.266   2.309  15.385 -0.0329  0.1578  0.3096
 2429W        W18563   2.309  17.967  14.594 -0.0574 -0.0339  0.1561
 2430W        W18564   6.849   5.575  15.731 -0.0019  0.1785 -0.1005
 2431W        W18565   4.600   6.393  15.143 -0.2172  0.0526  0.0402
 2432W        W18566  15.725   5.492  11.449  0.1237 -0.3909  0.1953
 2433W        W18567   9.447   6.386  13.093 -0.0709 -0.1615 -0.0826
 2434W        W18568  12.168  11.134  15.995  0.0966 -0.0272  0.4138
 2435W        W18569  13.080  16.824   0.369 -0.3740 -0.4529  0.0490
 2436W        W18570   8.459  13.092   4.822 -0.1272 -0.1170 -0.0722
 2437W        W18571   3.608   7.340  13.908  0.2556  0.0315 -0.2640
 2438W        W18572   6.268  16.229  14.964  0.0682 -0.0284 -0.0352
 2439W        W18573  17.606  11.445  12.491 -0.0347  0.1684  0.1195
 2440W        W18574   3.228   7.914   4.622  0.2053 -0.4079  0.0917
 2441W        W18575  12.846   4.730   4.443  0.1375  0.3055  0.0262
 2442W        W18576   3.812   6.892   2.315 -0.0988 -0.0192  0.0428
 2443W        W18577   1.797  15.736  14.492 -0.0757  0.1218 -0.0333
 2444W        W18578  13.009  10.019  14.769  0.1821 -0.1355 -0.2995
 2445W        W18579   4.608  10.920  15.588  0.0465 -0.1468 -0.3489
 2446W        W18580  12.090   7.610  16.441 -0.1926  0.4600  0.1384
 2447W        W18581   7.670  11.381   0.936 -0.0345  0.1040  0.0364
 2448W        W18582  16.756   5.695  16.167 -0.1503 -0.1712 -0.3059
 2449W        W18583  13.494   5.080  12.830 -0.3706  0.1893  0.0396
 2450W        W18584   4.113  15.666   2.319  0.2253 -0.0346  0.1034
 2451W        W18585  15.586  13.002  14.732  0.2355  0.2242  0.0190
 2452W        W18586   2.021  11.421   4.733 -0.1567  0.3699 -0.1913
 2453W        W18587  17.486   4.967  15.421 -0.2546  0.0940 -0.1002
 2454W        W18588  10.273  12.530   1.224 -0.1321 -0.1422 -0.4215
 2455W        W18589  17.594  14.805   4.829 -0.1500 -0.0403 -0.1205
 2456W        W18590   4.528  10.532   0.060  0.1712  0.3110  0.0226
 2457W        W18591  12.631  16.802   3.093  0.2407  0.1058 -0.0785
 2458W        W18592   2.709   1.437  15.215 -0.2657  0.0878 -0.1774
 2459W        W18593   2.200  14.690  14.411 -0.2576  0.1383  0.0043
 2460W        W18594   9.315  13.188   0.046  0.1565 -0.1469  0.2188
 2461W        W18595  11.735   3.528   4.674  0.0907 -0.0404  0.1021
 2462W        W18596  15.301  13.386  13.838 -0.0767 -0.4018  0.1335
 2463W        W18597  16.544  10.726   3.726  0.4143  0.2957 -0.0880
 2464W        W18598  12.134   5.478  16.325  0.5556 -0.0361  0.2391
 2465W        W18599  13.702  14.397   0.936 -0.1714 -0.1364  0.2090
 2466W        W18600   3.613  10.340  13.732 -0.0786 -0.0657  0.1469
 2467W        W18601   9.123   2.978  13.831 -0.0183 -0.1409 -0.0512
 2468W        W18602   7.544   6.713  14.065  0.0543  0.3111 -0.2885
 2469W        W18603  16.103   8.192   1.183 -0.0230  0.3913 -0.1789
 2470W        W18604   1.349   2.557  12.573 -0.0175 -0.1492 -0.3382
 2471W        W18605   5.286   9.529  16.185 -0.1015 -0.3215  0.0414
 2472W        W18606   3.501  14.742  13.970  0.0022 -0.1521 -0.4197
 2473W        W18607   3.641  15.972   2.513  0.0500 -0.0546 -0.0513
 2474W        W18608   3.014  12.562  13.736  0.2260 -0.0898 -0.3112
 2475W        W18609   2.826   2.306  14.773 -0.0598  0.2448 -0.1576
 2476W        W18610   9.250  16.101  14.346 -0.1105 -0.0979  0.1188
 2477W        W18611   9.013  11.010  13.329 -0.0470 -0.0706  0.0946
 2478W        W18612   3.070   6.642  12.398 -0.0679  0.0635 -0.3731
 2479W        W18613  12.430   5.358   3.270 -0.1044 -0.0289 -0.1233
 2480W        W18614   0.112  15.906  12.619 -0.2589  0.4927  0.3789
 2481W        W18615   9.611   3.362   5.014  0.2248  0.0028 -0.0434
 2482W        W18616   1.984   7.775   3.413 -0.0789 -0.0581 -0.0257
 2483W        W18617   7.766   2.951  10.909  0.2899 -0.1455 -0.0917
 2484W        W18618   9.664   2.405  12.191  0.1782 -0.0474  0.0807
 2485W        W18619  17.720   2.567   0.408  0.3029  0.0227  0.1363
 2486W        W18620  10.285  12.076   1.534  0.0640 -0.1810 -0.1946
 2487W        W18621  17.786  15.363   0.819 -0.0534 -0.0888 -0.2381
 2488W        W18622   0.302   2.519  14.728 -0.0884  0.0005  0.0644
 2489W        W18623  15.688  14.116   4.310 -0.3160  0.3302  0.0266
 2490W        W18624   6.042  15.405  15.548  0.2438 -0.1991  0.0463
 2491W        W18625   2.360  17.157  13.185 -0.1651  0.2369  0.2106
 2492W        W18626  10.097  10.366   5.488  0.3268  0.4727  0.0987
 2493W        W18627   6.327   7.882  12.625 -0.1116  0.1723  0.3536
 2494W        W18628  14.416   1.408   5.932 -0.4547 -0.2020 -0.0322
 2495W        W18629   6.347   5.492   2.053  0.0019 -0.1113 -0.1471
 2496W        W18630  15.506  14.253  14.305 -0.0974  0.1084  0.1268
 2497W        W18631   7.223  10.653  14.708  0.0956 -0.0699 -0.1402
 2498W        W18632  17.102  14.801   2.090  0.0196 -0.2115  0.2123
 2499W        W18633  11.343   6.571  12.910 -0.0105 -0.0564  0.1480
 2500W        W18634  15.773  14.100  13.363 -0.1749  0.1184 -0.2215
 2501W        W18635   7.068   1.057   1.809  0.0529 -0.0688 -0.0080
 2502W        W18636   6.179  16.129   4.612  0.0709 -0.4027  0.2521
 2503W        W18637  15.308   3.178   5.482  0.0168  0.1734 -0.1041
 2504W        W18638  17.431   8.674   2.239  0.0302 -0.2428 -0.0433
 2505W        W18639   3.223   1.317   2.075  0.2763 -0.1178 -0.1418
 2506W        W18640  12.930  15.223   6.530  0.0699 -0.0258 -0.0212
 2507W        W18641   1.552   1.421   0.667  0.0860  0.0347 -0.1691
 2508W        W18642  17.443   3.050   5.223  0.1436 -0.0536 -0.0143
 2509W        W18643  13.429  17.363   1.510 -0.0155  0.0871  0.0327
 2510W        W18644   6.318  14.348  14.508 -0.2732 -0.2114  0.1929
 2511W        W18645   5.182   8.280   1.941  0.2791  0.2454 -0.1377
 2512W        W18646  10.509   3.878   5.201 -0.2154  0.1177  0.0201
 2513W        W18647  17.119  11.973   2.603  0.0039 -0.3595  0.1272
 2514W        W18648  15.226  17.825   2.184 -0.0022 -0.0499  0.0096
 2515W        W18649  10.386  11.394  13.752 -0.0356  0.0657 -0.1480
 2516W        W18650   8.320   1.484   5.943 -0.0820 -0.0881  0.0845
 2517W        W18651  12.383   1.453   0.210 -0.1883 -0.1991 -0.0844
 2518W        W18652   5.815   2.418  12.881 -0.2016  0.2986  0.1198
 2519W        W18653   0.845  12.005   3.548  0.0296  0.1546  0.0569
 2520W        W18654  17.259   7.758   4.819  0.0484  0.1658 -0.2464
 2521W        W18655   1.620   7.667   1.623  0.3828 -0.0721 -0.1488
 2522W        W18656   0.216   4.487  11.826  0.2111 -0.0289  0.2720
 2523W        W18657  10.951   9.299  11.999  0.3158 -0.1409  0.3508
 2524W        W18658   8.077   8.855   0.889  0.1730  0.2272 -0.1154
 2525W        W18659  12.410   9.395   5.104  0.0675 -0.1414 -0.0066
 2526W        W18660   4.748  16.576  15.142  0.1013 -0.0215  0.2874
 2527W        W18661   3.613   1.216  12.522 -0.3361  0.1014  0.0805
 2528W        W18662   7.417  17.325   3.797  0.2119 -0.4481 -0.0798
 2529W        W18663  17.967   1.561   1.525 -0.2162 -0.0259  0.0240
 2530W        W18664  15.603   8.058  11.485 -0.1414 -0.0405  0.0898
 2531W        W18665   5.091   1.936   3.306  0.1173  0.1359  0.1186
 2532W        W18666   8.052   6.909  11.600 -0.1080 -0.0416  0.0068
 2533W        W18667  17.966  12.289   1.361 -0.1809 -0.2638 -0.0860
 2534W        W18668   8.923   7.975  15.122 -0.0227 -0.1370 -0.2233
 2535W        W18669  17.109  13.371  12.796 -0.0754  0.0202  0.0596
 2536W        W18670  15.273   8.112  16.241 -0.0321  0.0123 -0.4205
 2537W        W18671   7.537   7.627   0.297  0.3408  0.0867  0.1449
 2538W        W18672  13.916   9.379   0.782 -0.1298 -0.0494 -0.2028
 2539W        W18673  15.685  15.715  16.541 -0.0226 -0.1286 -0.1001
 2540W        W18674   1.053   5.903  10.897  0.0962 -0.2410 -0.1311
 2541W        W18675   8.317  15.604  13.081  0.1063 -0.1144  0.0875
 2542W        W18676   1.943   7.123   0.504 -0.1178 -0.1416 -0.4513
 2543W        W18677  14.806  17.826   0.874  0.1483  0.0865 -0.3202
 2544W        W18678   7.244   2.459   0.093 -0.1037  0.0797 -0.1168
 2545W        W18679   6.651  13.159   2.341 -0.1085  0.1020  0.1890
 2546W        W18680  15.055  14.562  16.408 -0.1425 -0.0603 -0.1534
 2547W        W18681  10.599   7.339   3.368 -0.0860 -0.2060 -0.4563
 2548W        W18682   7.515  14.137  13.504 -0.2372  0.3106 -0.2127
 2549W        W18683  14.686   4.686   0.987 -0.0874 -0.0854  0.1976
 2550W        W18684  15.671  13.448   1.333 -0.1923 -0.1064  0.0695
 2551W        W18685   3.819   1.368  15.097  0.0032 -0.2727 -0.0550
 2552W        W18686  16.257   4.352   3.027 -0.0899 -0.1529 -0.1289
 2553W        W18687   8.955  17.531  16.010 -0.1336  0.0710  0.2085
 2554W        W18688  11.289  16.234   2.055 -0.0125  0.1694  0.0595
 2555W        W18689   0.627   8.507  16.617  0.2858 -0.2000 -0.0645
 2556W        W18690  14.235  11.923  15.345  0.1120  0.3418 -0.0577
 2557W        W18691  12.601   5.753  15.038  0.0900 -0.1973  0.0385
 2558W        W18692   9.895  12.849  16.617  0.0067 -0.1611 -0.0270
 2559W        W18693   6.191   5.312  16.107 -0.1102  0.3251 -0.2619
 2560W        W18694  16.212   5.397  15.740 -0.2794  0.1120 -0.0043
 2561W        W18695   9.272  12.689  15.985  0.0189 -0.3815 -0.1615
 2562W        W18696   7.797  11.063  14.607 -0.2138  0.1323 -0.3185
 2563W        W18697  17.502   1.868   2.750  0.3942 -0.0390 -0.0626
 2564W        W18698  17.278  10.413   4.802  0.1172 -0.0295  0.0442
 2565W        W18699   2.922   1.785  12.322 -0.1429  0.1023  0.1719
 2566W        W18700  11.545   8.111   2.250 -0.1806 -0.1628 -0.4253
 2567W        W18701   7.916   8.897   3.916  0.0462  0.0788  0.1241
 2568W        W18702   9.593  16.045   0.145 -0.1034  0.0415  0.0066
 2569W        W18703  13.562  10.807  14.725 -0.0533  0.3029 -0.1373
 2570W        W18704  10.707   6.400  15.819  0.1045 -0.1667 -0.1121
 2571W        W18705   9.578   2.277   2.901  0.0413 -0.0117  0.1134
 2572W        W18706   6.509   5.951   1.906  0.3366 -0.0486  0.2294
 2573W        W18707   3.837  15.549   1.327  0.1790 -0.0961  0.2611
 2574W        W18708  13.800   6.774  10.553  0.1771  0.0425  0.3760
 2575W        W18709  16.383   2.239  12.033  0.0873  0.2962 -0.0101
 2576W        W18710   4.782   6.150  13.891  0.0631 -0.0891 -0.0325
 2577W        W18711  10.659  13.149  12.358  0.0264  0.0183 -0.0955
 2578W        W18712  14.608  11.076  12.705 -0.3420 -0.2778 -0.0169
 2579W        W18713   8.732   9.471  16.103  0.0900 -0.1750 -0.1416
 2580W        W18714  12.599  14.957   0.907 -0.0317 -0.0452  0.0206
 2581W        W18715  12.692   2.376   0.505 -0.0046 -0.2075  0.1323
 2582W        W18716  15.732   5.606  15.082 -0.0766 -0.1448 -0.0621
 2583W        W18717   6.233   5.660   4.014  0.0442  0.2861 -0.1824
 2584W        W18718   8.954   1.984   4.280  0.1648  0.1870  0.3235
 2585W        W18719   4.338  16.623  14.903  0.0115 -0.0720  0.0723
 2586W        W18720   9.666   5.547  15.637 -0.0574  0.2017  0.1799
 2587W        W18721   0.348   1.885  15.405 -0.1787 -0.2632  0.4375
 2588W        W18722   1.118   5.275  12.143  0.1815  0.1269 -0.1331
 2589W        W18723   8.221  14.401   2.340 -0.2012 -0.1595 -0.3415
 2590W        W18724   6.482   5.316  14.401  0.0443 -0.1357 -0.0631
 2591W        W18725  13.325   6.808   0.033 -0.1169  0.0062 -0.0719
 2592W        W18726   5.960  13.499   1.731 -0.1763  0.1316  0.1937
 2593W        W18727   8.573  10.273  16.412 -0.0792  0.0515 -0.2997
 2594W        W18728   5.340   4.651  12.223  0.0951  0.3545 -0.1541
 2595W        W18729   2.382   0.272  13.903 -0.2842  0.0616 -0.1727
 2596W        W18730   1.517  15.960   3.122  0.2223 -0.2614  0.2149
 2597W        W18731   2.328  11.404  16.389 -0.3590 -0.1404 -0.1582
 2598W        W18732   8.402  11.941   0.945  0.0493  0.0572 -0.1243
 2599W        W18733   8.048   2.218   0.339  0.0843  0.0278 -0.3901
 2600W        W18734   3.523   9.031  14.538  0.0035 -0.0691  0.0447
 2601W        W18735   5.319   5.176  13.515  0.0715  0.1837 -0.2014
 2602W        W18736   1.786  10.980   2.750  0.3141  0.0184  0.0588
 2603W        W18737   1.390   1.827  13.470  0.2382  0.2796  0.3401
 2604W        W18738  13.354   0.272   2.550 -0.1492 -0.2207 -0.2603
 2605W        W18739   6.326  11.718  11.922 -0.1402  0.1624 -0.0375
 2606W        W18740   3.610  17.329   4.265  0.2463 -0.2648  0.0852
 2607W        W18741   4.491   6.562  13.628 -0.1657  0.2296 -0.1446
 2608W        W18742   4.154  14.967   2.728  0.0427 -0.0367 -0.2630
 2609W        W18743   3.053  12.551   5.547 -0.1778  0.1600  0.0636
 2610W        W18744  12.614  16.777  15.624 -0.0075  0.2209 -0.0410
 2611W        W18745   2.049  16.975  14.847  0.2200  0.3457 -0.1010
 2612W        W18746  17.449   2.370   3.625 -0.3224 -0.3062 -0.1761
 2613W        W18747   2.942  16.909   0.243  0.0383  0.0866  0.1761
 2614W        W18748   2.371   0.584   4.708  0.1950  0.0720 -0.1944
 2615W        W18749  14.250  15.340  14.062 -0.0718  0.3244 -0.0272
 2616W        W18750   3.013   2.879  11.962 -0.1461 -0.1195  0.0764
 2617W        W18751  13.665  13.789  13.484  0.1104 -0.1953  0.1939
 2618W        W18752   0.241   2.582   4.023  0.2118  0.1652  0.0176
 2619W        W18753  14.734  13.514   2.890  0.2910 -0.1732 -0.2781
 2620W        W18754  13.252   1.210   4.041  0.1234  0.0382  0.4554
 2621W        W18755   3.933   9.200  14.348  0.3642 -0.0300  0.1758
 2622W        W18756  11.547  17.559  12.311  0.1539  0.3143  0.1173
 2623W        W18757  11.741   9.300  16.201  0.3342 -0.2208  0.3100
 2624W        W18758   8.819   8.238   6.088 -0.0991 -0.1445  0.0075
 2625W        W18759   8.774   9.558  11.726 -0.0017 -0.0910 -0.0721
 2626W        W18760  10.806   0.196   1.362 -0.1074 -0.0052 -0.2737
 2627W        W18761   6.811  14.105  12.913 -0.1515 -0.0904  0.0227
 2628W        W18762  11.433  10.141  16.596  0.0544  0.0397 -0.1510
 2629W        W18763  14.585  10.798   2.108  0.0936  0.4585 -0.1626
 2630W        W18764   3.893  11.073   1.990  0.0813  0.4978  0.0344
 2631W        W18765  10.500  16.013   3.160  0.2224 -0.1630 -0.2565
 2632W        W18766   3.773   4.914  11.368  0.1865  0.1109  0.1760
 2633W        W18767   0.933   1.205  15.729 -0.1032 -0.1208  0.2140
 2634W        W18768  10.671  11.774   0.765  0.0559  0.2808  0.1282
 2635W        W18769  15.351   1.058   1.401 -0.1377 -0.1054  0.0295
 2636W        W18770  12.743   2.381   5.000  0.0903 -0.2824  0.1751
 2637W        W18771   7.991  17.577  13.713  0.0550 -0.1175 -0.0161
 2638W        W18772  12.093   1.111  15.824 -0.2556  0.0182 -0.2626
 2639W        W18773  14.934   3.653   0.338 -0.0024 -0.1977 -0.1012
 2640W        W18774   1.992   9.240  12.260 -0.2684 -0.0454  0.2394
 2641W        W18775   7.627   3.098   1.252  0.2184  0.2042 -0.0323
 2642W        W18776  11.488  13.192  13.132 -0.0238  0.0642 -0.1032
 2643W        W18777   1.762  13.736   0.189  0.0785  0.1809 -0.0781
 2644W        W18778  13.901   6.044   4.994  0.1475  0.0536  0.4116
 2645W        W18779   3.695   8.032  11.311  0.0228 -0.1551  0.0817
 2646W        W18780  13.529   3.327   3.803 -0.0510 -0.0097 -0.0579
 2647W        W18781   4.502  11.860  16.100  0.0230 -0.2765 -0.0122
 2648W        W18782   7.645  14.405   5.717 -0.2030  0.0574 -0.2580
 2649W        W18783   8.798   0.546   1.161 -0.2839 -0.0424  0.0264
 2650W        W18784  16.005  12.810   0.315  0.0849  0.1904 -0.3027
 2651W        W18785  14.588  12.920  14.618  0.1790 -0.3149 -0.1338
 2652W        W18786   8.051  15.446  15.269 -0.2421 -0.3288  0.1424
 2653W        W18787  14.175  11.601   3.632  0.1414 -0.0989  0.0868
 2654W        W18788   3.522   2.538  15.523 -0.0366 -0.2560 -0.1336
 2655W        W18789  13.767   6.922  13.458  0.2281  0.1180  0.2516
 2656W        W18790   9.263   1.041  14.078 -0.1256 -0.0915  0.0340
 2657W        W18791   7.318  14.090  14.837  0.3667  0.2234  0.1507
 2658W        W18792  10.605  17.148  11.721 -0.1301 -0.1097 -0.2320
 2659W        W18793  10.160  17.590  13.588 -0.1211  0.2962 -0.1583
 2660W        W18794  15.039   0.221   1.923  0.1120  0.0940  0.3949
 2661W        W18795  13.866  13.167  12.062  0.0690  0.2862 -0.0254
 2662W        W18796  15.814  13.844  15.524  0.3627  0.0631 -0.1889
 2663W        W18797  16.369   6.750   2.369 -0.0545  0.0626 -0.1160
 2664W        W18798   5.010  12.765  11.996 -0.1075 -0.0039  0.0223
 2665W        W18799   6.402  10.516   5.703  0.1002  0.1170 -0.0217
 2666W        W18800  14.265   5.108  15.123  0.0130 -0.2601  0.0603
 2667W        W18801   8.574  10.716   4.699  0.2942 -0.0951  0.2117
 2668W        W18802   8.296  15.412  11.620  0.0670  0.0258 -0.2665
 2669W        W18803   3.348  15.565  15.922 -0.1507 -0.0210 -0.4244
 2670W        W18804   0.381  11.975   4.256 -0.2570  0.2322 -0.0104
 2671W        W18805   1.760   8.003  12.505 -0.1291 -0.0626 -0.1258
 2672W        W18806   6.001  11.121   2.658 -0.0291 -0.1122  0.0082
 2673W        W18807   6.291  13.871  13.924 -0.2361 -0.1796  0.0611
 2674W        W18808   7.767  13.573   0.758 -0.2452  0.0821  0.2223
 2675W        W18809   8.372   4.401  16.476  0.1959 -0.0939 -0.0429
 2676W        W18810  13.387  13.440  13.272 -0.4418  0.0045 -0.2390
 2677W        W18811  10.732   8.055   2.909  0.0644 -0.1210 -0.0606
 2678W        W18812   7.553   5.384   3.981  0.0427 -0.0418 -0.2226
 2679W        W18813  14.998   6.797  14.775 -0.0084  0.2221 -0.0154
 2680W        W18814  14.493  13.850  13.495  0.2292  0.2323  0.0592
 2681W        W18815   7.424  12.612   0.428  0.2568  0.1405  0.0872
 2682W        W18816   1.887   7.597  11.206  0.1194 -0.0364  0.0263
 2683W        W18817  12.016   6.847   4.774  0.3338  0.1000 -0.0273
 2684W        W18818   3.861  11.591   0.899  0.1117 -0.0975 -0.1197
 2685W        W18819  14.899   9.639  16.653 -0.0084  0.2855 -0.1058
 2686W        W18820   1.294   8.380   2.328  0.0082 -0.2111 -0.0387
 2687W        W18821   4.183   6.360   1.441  0.0102  0.0516 -0.0403
 2688W        W18822  17.068  14.845   4.749  0.1262 -0.5026  0.0898
 2689W        W18823   6.955   7.760  13.321 -0.3429 -0.2297 -0.0508
 2690W        W18824   7.499  10.044   5.326 -0.1517  0.0808 -0.3510
 2691W        W18825  17.670  16.187   4.756 -0.2483 -0.1525 -0.1689
 2692W        W18826  11.580   9.893   5.194  0.4355 -0.2839 -0.0058
 2693W        W18827   3.649   7.744   0.045 -0.1826  0.2105  0.2842
 2694W        W18828   0.347   0.273   1.402  0.0769  0.2273 -0.2954
 2695W        W18829   8.980   5.636  11.956 -0.2399  0.0415  0.3291
 2696W        W18830   1.749   1.703   1.198 -0.3450  0.0733 -0.0929
 2697W        W18831   2.525   6.796   2.672 -0.1518  0.1665  0.3159
 2698W        W18832  14.046  14.446  11.929 -0.0189 -0.2566  0.0751
 2699W        W18833   4.806   1.852  15.456  0.2781  0.1152 -0.0188
 2700W        W18834   0.681  11.947  11.834 -0.0856  0.1508  0.0463
 2701W        W18835   9.745   4.236  16.156  0.1837  0.0110  0.0876
 2702W        W18836   2.807  15.724  13.022  0.2279  0.0500 -0.1614
 2703W        W18837   0.044   9.640  14.055 -0.2422 -0.0353 -0.1657
 2704W        W18838  14.391   6.884   3.828 -0.2033 -0.1672  0.0277
 2705W        W18839  13.529   1.213   6.210 -0.1969  0.0561  0.3333
 2706W        W18840   0.899  15.977  14.776  0.1298 -0.0297  0.1481
 2707W        W18841   4.521   1.907   3.392 -0.1443  0.0133 -0.1747
 2708W        W18842   0.705   4.482   2.728 -0.1323  0.0993 -0.1121
 2709W        W18843   3.262  16.936   2.609  0.1468  0.0371  0.1260
 2710W        W18844  12.241   2.492   1.262  0.1208  0.2612  0.2010
 2711W        W18845   9.029   7.504  14.473 -0.1956  0.1741  0.0501
 2712W        W18846   4.155   6.196   3.120  0.0195 -0.0893  0.1964
 2713W        W18847  11.339  12.771  12.934 -0.1229 -0.1191  0.0885
 2714W        W18848  16.511   6.722  16.487  0.0383  0.0402 -0.0451
 2715W        W18849   9.995  13.147  14.379 -0.1389 -0.0312  0.0343
 2716W        W18850  10.532   6.666  16.342 -0.1416  0.1105 -0.1988
 2717W        W18851  14.491  15.124  12.519  0.0395 -0.2024 -0.1099
 2718W        W18852  16.466  12.775   5.241 -0.1321 -0.2933 -0.0269
 2719W        W18853   7.397   3.869   1.457 -0.2689 -0.2829  0.3765
 2720W        W18854  12.680   8.450  14.382  0.1779 -0.1422  0.1233
 2721W        W18855   3.213  12.199   4.099 -0.1138 -0.0396  0.0298
 2722W        W18856  14.318  14.909   3.913 -0.2973 -0.0845  0.1504
 2723W        W18857  17.677   6.625   0.996  0.0916 -0.1215  0.1804
 2724W        W18858   7.161  12.781   2.993 -0.0269  0.0089  0.0370
 2725W        W18859   5.056   5.610  11.628 -0.1373 -0.0237 -0.0268
 2726W        W18860   1.893   6.781   1.535 -0.0833  0.0680  0.2641
 2727W        W18861  16.501   8.609  11.440 -0.0762  0.1908 -0.1257
 2728W        W18862   4.099  10.085   6.185  0.1463  0.0017 -0.3933
 2729W        W18863  11.428   9.364  10.686 -0.1984  0.0051  0.0340
 2730W        W18864  16.882  15.542  16.564  0.0507  0.3238 -0.4011
 2731W        W18865   7.599  14.997  16.189 -0.1041 -0.1272  0.3110
 2732W        W18866   1.927  14.605   1.907 -0.1928  0.1954  0.0094
 2733W        W18867  10.985   7.446  12.961  0.1082 -0.0510  0.0248
 2734W        W18868  12.270  15.197   1.238  0.1028  0.2700  0.1318
 2735W        W18869   5.029   8.864  13.206 -0.1627  0.2048 -0.2201
 2736W        W18870  12.663   1.522   2.646 -0.2689  0.1423 -0.0072
 2737W        W18871  14.170   7.964   2.925  0.1722 -0.1786 -0.2734
 2738W        W18872   9.472   3.873   5.092 -0.1770 -0.1523 -0.3552
 2739W        W18873   7.289   7.767  12.894  0.4080  0.1145 -0.0175
 2740W        W18874  17.646  17.523  12.219  0.1503 -0.0509  0.1717
 2741W        W18875   2.661   5.275   1.850  0.1850  0.1088  0.1681
 2742W        W18876  13.381   2.155  12.202  0.3362  0.0794 -0.2381
 2743W        W18877  15.810   0.343   2.615 -0.2413  0.0194  0.0777
 2744W        W18878  17.281   4.837  13.185 -0.2045 -0.0464 -0.0313
 2745W        W18879  11.557   7.246  11.537  0.2945 -0.0436  0.0723
 2746W        W18880  16.911   1.671  13.826 -0.0546 -0.1790 -0.2093
 2747W        W18881  12.091   2.201   4.236 -0.2085 -0.1524  0.0639
 2748W        W18882  16.927   1.883   4.146  0.2614  0.0553 -0.3904
 2749W        W18883   0.960  13.343   5.542 -0.1281 -0.0461  0.1108
 2750W        W18884   3.371  14.234  12.144  0.2734  0.2764 -0.0941
 2751W        W18885   8.343   0.578  16.531 -0.1662  0.1070  0.0104
 2752W        W18886  17.971  14.144  13.238 -0.2638  0.1665  0.3687
 2753W        W18887  10.084  15.263  13.516  0.0815 -0.1317 -0.0255
 2754W        W18888  12.375   6.864  14.796  0.1664 -0.2097 -0.1703
 2755W        W18889   6.025   0.062  15.930  0.0425  0.1617  0.2058
 2756W        W18890   5.753   4.031  13.811  0.2381 -0.2280 -0.1966
 2757W        W18891   3.546   6.243  14.473  0.0508  0.1924  0.3294
 2758W        W18892   6.855  15.196   1.933  0.1751 -0.0203 -0.0168
 2759W        W18893   8.619  14.946  13.265 -0.0054 -0.1116 -0.0134
 2760W        W18894   5.409   6.573   0.562 -0.0314  0.0913  0.1518
 2761W        W18895   1.381  10.206   1.269 -0.0915 -0.1455 -0.1412
 2762W        W18896   5.736   9.585   2.108 -0.1627 -0.2516  0.1277
 2763W        W18897   6.345  14.073  15.924 -0.1219  0.0506 -0.1604
 2764W        W18898   3.326   8.709   2.776  0.1057  0.1151 -0.1689
 2765W        W18899  10.046  16.849  14.020  0.2911  0.0102  0.2880
 2766W        W18900   9.432  10.890  13.927 -0.2724 -0.1582 -0.0530
 2767W        W18901   2.326  13.572  13.604 -0.3719 -0.0180  0.2779
 2768W        W18902   6.785   9.302   2.704 -0.2043  0.0188 -0.1009
 2769W        W18903  11.229   8.322   5.217 -0.0414 -0.1582 -0.2802
 2770W        W18904  11.808  12.970  14.359  0.1184 -0.0812 -0.3623
 2771W        W18905   7.443   0.999   1.162  0.2398  0.0725  0.1427
 2772W        W18906  17.057  14.182  14.769  0.0632 -0.1438 -0.1398
 2773W        W18907  12.069   0.135  11.732 -0.1817  0.3897  0.2080
 2774W        W18908   7.415  16.965  15.186  0.0150 -0.2624  0.1161
 2775W        W18909   4.993   9.553  12.638 -0.1707  0.1055  0.1328
 2776W        W18910   2.980  14.502  11.757  0.1291 -0.1720  0.1031
 2777W        W18911   4.593   8.703   3.547  0.3629  0.4743 -0.3109
 2778W        W18912   7.728  12.167  14.341 -0.2704  0.0878  0.2820
 2779W        W18913   9.434  17.787   4.097 -0.2428  0.0275 -0.2323
 2780W        W18914   3.620   1.548   6.161 -0.0879  0.5465  0.0616
 2781W        W18915  16.764   6.481   1.327  0.5161 -0.5346  0.0006
 2782W        W18916  16.947   6.998   1.277  0.1117  0.0342 -0.1216
 2783W        W18917   4.027   1.690   4.155 -0.1741  0.3498 -0.0123
 2784W        W18918   0.569  11.335  16.470 -0.1590  0.0073  0.0403
 2785W        W18919  17.351   3.796   1.886  0.2902 -0.2716 -0.1100
 2786W        W18920  10.552   4.031  13.557  0.1577  0.2929  0.1452
 2787W        W18921  13.043  15.671   2.336 -0.0794  0.1756 -0.0755
 2788W        W18922   4.630  17.084   5.225  0.1515 -0.0844 -0.0387
 2789W        W18923   6.290   6.241   0.662 -0.0944  0.1203 -0.0328
 2790W        W18924  15.848  11.162   4.184  0.1665  0.1338  0.1091
 2791W        W18925   6.059  14.243  13.137 -0.0223 -0.3104 -0.2449
 2792W        W18926   5.404  12.702  15.091 -0.2464 -0.0923 -0.2886
 2793W        W18927  12.788   4.904  16.145 -0.0611  0.1894  0.0794
 2794W        W18928   6.770  13.740  15.728 -0.0100  0.1977 -0.0752
 2795W        W18929   4.389   5.052   2.645  0.2717  0.0341 -0.0940
 2796W        W18930   8.697  17.516   1.804  0.2661  0.2250  0.1133
 2797W        W18931   2.608  11.319   1.712 -0.0803 -0.1102  0.0887
 2798W        W18932   2.618  12.811   1.634 -0.1508 -0.0460  0.1848
 2799W        W18933  16.975   3.222  11.539 -0.1117  0.0536  0.0377
 2800W        W18934   4.275  12.987  11.311 -0.2553 -0.0472  0.0476
 2801W        W18935  15.471   3.189   5.955 -0.3108  0.0006 -0.4186
 2802W        W18936  12.669  15.186  12.344  0.2034  0.1236  0.0058
 2803W        W18937   6.851   2.965   4.452  0.4176  0.2085 -0.2559
 2804W        W18938  16.640   0.126  16.144 -0.1004  0.0245 -0.2958
 2805W        W18939  11.366  16.531  13.232  0.0086  0.0712  0.0302
 2806W        W18940  13.567   7.819  12.167  0.0947 -0.2950  0.2062
 2807W        W18941   3.080   7.152  14.941 -0.0018  0.1754 -0.3244
 2808W        W18942   0.340   9.814   5.147 -0.0764 -0.0282 -0.2227
 2809W        W18943  10.188  17.461  15.340 -0.2465  0.3407 -0.0056
 2810W        W18944  12.691   1.509  14.754  0.1437  0.2021 -0.0584
 2811W        W18945   4.385   6.462  16.699 -0.0429 -0.0001  0.2988
 2812W        W18946   3.969   5.872  11.580  0.2091 -0.1303  0.3634
 2813W        W18947   5.042   1.941  13.886  0.1045 -0.1711  0.0692
 2814W        W18948  12.873  13.526  14.564  0.2091  0.0052  0.1276
 2815W        W18949   8.202   1.721   0.349  0.1555  0.1839 -0.3742
 2816W        W18950   5.330  15.318   2.186  0.1090 -0.0950 -0.3184
 2817W        W18951   4.199  15.316   3.116 -0.0433 -0.0671 -0.1120
 2818W        W18952   4.038  11.930   3.241 -0.1499 -0.1553 -0.1386
 2819W        W18953  12.996   8.015  16.241  0.1104 -0.0473 -0.0827
 2820W        W18954   0.413  11.855  13.470  0.2408 -0.1387 -0.0671
 2821W        W18955   1.616   1.111  13.032 -0.1611 -0.0099 -0.2700
 2822W        W18956  12.857  17.675   2.755 -0.0266  0.2405 -0.2177
 2823W        W18957   2.895   6.574  13.253 -0.2105  0.1349  0.0155
 2824W        W18958  17.443  14.514   1.860  0.0644  0.0201  0.0278
 2825W        W18959   3.462   7.513  13.043  0.0400  0.1473  0.0507
 2826W        W18960   7.674  17.662  11.653 -0.1150  0.1382 -0.1599
 2827W        W18961   0.526  15.714  13.527  0.0638 -0.0246  0.2507
 2828W        W18962  10.017  16.316  14.374 -0.1231 -0.2599 -0.2570
 2829W        W18963  12.684   0.897   2.680  0.0178  0.0903  0.2253
 2830W        W18964   9.571   5.961  12.281 -0.3276 -0.0553  0.2038
 2831W        W18965  12.458  10.440  16.116  0.0403  0.1097 -0.0522
 2832W        W18966   6.166  16.678  13.160  0.1552 -0.2494 -0.1014
 2833W        W18967  12.667   2.469  16.014  0.1134  0.0507  0.0577
 2834W        W18968   2.150  17.857  15.047  0.0201  0.1395 -0.2855
 2835W        W18969  14.455   0.496  13.118 -0.0981 -0.2292  0.1654
 2836W        W18970   7.913  15.457  16.287 -0.3031 -0.0056 -0.1594
 2837W        W18971   1.076   7.291   3.577 -0.2843 -0.1942 -0.0299
 2838W        W18972   9.972  17.737   3.367  0.2756  0.0888 -0.1547
 2839W        W18973  14.288   6.896   0.271 -0.0410 -0.1404  0.0630
 2840W        W18974  11.384  14.484   5.459  0.0545 -0.0556 -0.0641
 2841W        W18975  17.217   9.845   3.693 -0.1887  0.1048  0.1623
 2842W        W18976  12.377  16.976  16.049 -0.2552  0.0838 -0.0547
 2843W        W18977   3.226   5.813   4.419  0.0187 -0.1188 -0.2925
 2844W        W18978   0.664  10.080   3.757 -0.1933 -0.2782 -0.3785
 2845W        W18979   7.144  10.543  16.019  0.3150  0.1905 -0.1119
 2846W        W18980   5.257   3.202  11.908 -0.1046  0.1984 -0.1245
 2847W        W18981   7.755  15.572   3.146  0.2321  0.2415  0.2153
 2848W        W18982   4.543   9.641  15.685  0.0518  0.3615  0.0406
 2849W        W18983   0.976  16.949  13.899  0.0448 -0.0565  0.1261
 2850W        W18984   3.961   1.172   3.214 -0.1368 -0.2052 -0.1338
 2851W        W18985  16.487  13.011  12.757 -0.3050  0.2726 -0.1178
 2852W        W18986   9.138   4.758   1.968  0.0498 -0.0228  0.4789
 2853W        W18987   2.438   6.374   4.543  0.2501  0.1937 -0.1363
 2854W        W18988   9.860   3.737  12.947  0.2005 -0.0117 -0.0178
 2855W        W18989   6.327  13.287  11.206  0.1713  0.2157 -0.1242
 2856W        W18990  16.135   5.508  14.755 -0.1516 -0.1894 -0.1832
 2857W        W18991   6.773   8.613  13.311  0.0127  0.1008  0.1745
 2858W        W18992   9.035  11.117   3.848 -0.0348  0.2111 -0.1205
 2859W        W18993   2.576   1.362   3.177  0.0217  0.4616  0.1053
 2860W        W18994   4.323   4.270   3.733 -0.0526 -0.1445  0.0873
 2861W        W18995   1.039   1.250   4.995 -0.1235  0.1885 -0.0071
 2862W        W18996   8.882  12.023  11.580 -0.1099  0.0143 -0.0380
 2863W        W18997   7.933  15.202   3.482  0.0557 -0.0604 -0.1197
 2864W        W18998   3.271   7.446  13.560  0.0055 -0.0001 -0.2255
 2865W        W18999  14.132  16.848   6.090 -0.1162 -0.3145 -0.0662
 2866W        W19000  15.080   0.308  15.446  0.0759  0.0049  0.0599
 2867W        W19001  17.827   3.711  15.629  0.0617  0.1775  0.0138
 2868W        W19002  12.498  14.718   1.345 -0.0637 -0.1590  0.0331
 2869W        W19003  15.960   2.520   1.366  0.0636  0.1760  0.2125
 2870W        W19004  11.065  15.289   3.142  0.0563 -0.1375  0.1589
 2871W        W19005   1.594   7.116  12.859 -0.1115  0.4289  0.0836
 2872W        W19006   0.435   9.987  11.792  0.3019 -0.0992 -0.4018
 2873W        W19007   2.614   7.824  13.092  0.1669 -0.2508 -0.1517
 2874W        W19008  14.858  17.396   3.054 -0.0120  0.0014 -0.0845
 2875W        W19009  10.277  17.237   4.070 -0.2071  0.1312  0.2148
 2876W        W19010   5.233  11.231   3.390 -0.1219  0.2305 -0.2640
 2877W        W19011   0.338   1.990   3.186  0.2387 -0.0626  0.0523
 2878W        W19012  12.339   3.841   0.192 -0.4298  0.0501  0.0635
 2879W        W19013   2.568   4.818   3.668 -0.1384  0.0841  0.0197
 2880W        W19014   0.863   7.556  12.487  0.1866 -0.2707 -0.0850
 2881W        W19015  11.933   6.742   2.247 -0.3082  0.3199 -0.1422
 2882W        W19016   0.908  12.497  14.204  0.2252 -0.1463  0.0084
 2883W        W19017   5.838   8.774   5.129 -0.0961  0.0093  0.0690
 2884W        W19018   5.475  12.435   5.468 -0.3262 -0.2759  0.0843
 2885W        W19019  15.206   8.182  15.394  0.1014 -0.1588 -0.0703
 2886W        W19020  17.070   4.258   3.165 -0.1098  0.1116  0.0537
 2887W        W19021   8.416   0.336  15.990 -0.1750  0.0139  0.2651
 2888W        W19022  17.211   2.249   5.579  0.0717  0.1003  0.0596
 2889W        W19023  17.294  16.516   2.644 -0.0538  0.4790 -0.1974
 2890W        W19024  15.599  17.547   4.006 -0.0695 -0.2220  0.1933
 2891W        W19025  15.996  12.040   1.149 -0.0448 -0.0326  0.0270
 2892W        W19026   6.223   8.762  14.535  0.1349  0.1060 -0.1500
 2893W        W19027  15.597  16.789  15.097 -0.0259 -0.2005 -0.0106
 2894W        W19028   2.705  14.778   4.535  0.0464  0.0786  0.2015
 2895W        W19029  11.712  13.889  14.368 -0.1096  0.3437 -0.3517
 2896W        W19030   7.253   0.681   1.551 -0.1309 -0.0312  0.0125
 2897W        W19031  10.182  15.158   1.954 -0.0163  0.0739 -0.2163
 2898W        W19032  10.000   4.125  12.659  0.2311  0.0233 -0.0792
 2899W        W19033  10.363  16.338  12.055  0.1121 -0.1020  0.2075
 2900W        W19034  13.043  16.388   0.662  0.1107  0.4468  0.0121
 2901W        W19035   0.337  16.277   2.392 -0.1654 -0.2372 -0.1915
 2902W        W19036  14.089   8.943  13.225 -0.2387  0.1685  0.1046
 2903W        W19037   7.573  15.986  12.209 -0.0396 -0.0512  0.2234
 2904W        W19038   6.563   6.767  11.987 -0.2269  0.2309  0.0205
 2905W        W19039  17.509  15.593   3.229  0.1175 -0.0416  0.0625
 2906W        W19040   3.623   0.201  11.379 -0.0183  0.2223  0.0061
 2907W        W19041   1.003   6.529   1.910 -0.2033  0.1820 -0.2729
 2908W        W19042  11.826  10.115   0.139 -0.0503  0.2409 -0.0388
 2909W        W19043   0.029  15.771   0.030  0.1477 -0.2442  0.0218
 2910W        W19044  12.648  11.192   3.097  0.0838 -0.1113  0.2191
 2911W        W19045  11.770   2.642  15.982  0.4297  0.0490 -0.1137
 2912W        W19046  13.592   6.730   3.255 -0.1886 -0.2218  0.1289
 2913W        W19047  16.961   6.438   0.046  0.0668 -0.0620  0.0247
 2914W        W19048  16.364   2.249  14.845 -0.0129  0.1462 -0.1571
 2915W        W19049   8.832   0.257  12.328  0.0710 -0.2622 -0.2196
 2916W        W19050  13.787   2.348  12.030  0.1467 -0.3793  0.0584
 2917W        W19051   5.957   3.256  15.197  0.0339 -0.0574  0.0068
 2918W        W19052  17.176   0.947   2.417  0.0721 -0.0006  0.2805
 2919W        W19053   2.914   5.028  11.629 -0.0831 -0.1977 -0.1433
 2920W        W19054  15.875  10.672   5.372 -0.1730 -0.0706 -0.1608
 2921W        W19055  12.951  11.837   3.984  0.0846  0.1660 -0.1135
 2922W        W19056  13.065   5.247   2.377  0.0974  0.3218  0.1026
 2923W        W19057   4.914   2.948   5.594 -0.0033  0.0792  0.2163
 2924W        W19058   5.996  14.937   4.781 -0.0335  0.1177  0.1549
 2925W        W19059   6.897   3.657   4.404  0.2648 -0.0318 -0.2261
 2926W        W19060  11.223   4.627  16.249  0.0842 -0.0058 -0.1135
 2927W        W19061  15.430  16.868   2.622  0.0386 -0.0007  0.0579
 2928W        W19062   1.508  11.284   4.514 -0.0938 -0.1259 -0.1370
 2929W        W19063   4.515   9.731  16.180 -0.0373 -0.1969  0.1393
 2930W        W19064  12.718  10.731  16.559 -0.0594 -0.0524  0.0613
 2931W        W19065   8.860  10.349  12.449  0.0815 -0.3614 -0.0193
 2932W        W19066   1.980   8.225  13.836 -0.2429 -0.3278  0.1098
 2933W        W19067  10.657   4.116  12.833 -0.3636  0.2811  0.2065
 2934W        W19068  13.826   7.482   0.342 -0.1075 -0.1574 -0.0218
 2935W        W19069   6.849   3.161  12.141 -0.1870 -0.0323  0.3249
 2936W        W19070   5.828   6.265  16.046 -0.1851 -0.1088  0.0440
 2937W        W19071  13.528  16.552   0.654  0.0574  0.1279  0.0800
 2938W        W19072   7.912  12.512   0.325 -0.0548 -0.2271 -0.0665
 2939W        W19073  17.244  12.635  16.532  0.3255 -0.2157  0.1005
 2940W        W19074   0.030   8.641   0.500 -0.0635 -0.1592 -0.0035
 2941W        W19075  15.205  15.178  11.928  0.1600 -0.0318 -0.1810
 2942W        W19076   5.188   3.205   0.168 -0.2263 -0.0366  0.0356
 2943W        W19077   6.184   8.874  13.213  0.1546 -0.1637 -0.3138
 2944W        W19078  17.719   9.261  15.136 -0.3874 -0.0498 -0.1446
 2945W        W19079   3.307   8.151  12.473  0.0062 -0.1413 -0.0515
 2946W        W19080  10.284  13.746   2.477  0.0700  0.2783  0.1999
 2947W        W19081  10.352  12.277  12.294  0.0076  0.1900  0.1068
 2948W        W19082   5.682  13.537  12.125 -0.1211  0.1231 -0.0056
 2949W        W19083   8.471  10.582  12.877  0.0443  0.0641  0.0726
 2950W        W19084   3.996  13.677  14.124 -0.0833  0.1490  0.1294
 2951W        W19085  10.860  11.902  14.199  0.1700 -0.0492  0.0668
 2952W        W19086  13.382   2.536   3.857  0.2866  0.0797  0.1742
 2953W        W19087   2.713   9.533   3.250  0.0387  0.0564 -0.0063
 2954W        W19088  14.931  10.786   0.517  0.0027  0.0668 -0.0402
 2955W        W19089   7.535  11.136  11.344 -0.3360  0.1552  0.0105
 2956W        W19090   3.941   6.116  13.275  0.1403  0.0109  0.0491
 2957W        W19091  13.050   8.307   2.975 -0.0935 -0.0478 -0.2011
 2958W        W19092  14.194  16.811   4.395  0.0518 -0.1930 -0.3391
 2959W        W19093   7.328  16.895   2.063  0.0809 -0.0092  0.1686
 2960W        W19094  10.291   2.953  12.746  0.1203 -0.0729 -0.0604
 2961W        W19095  11.415  16.062  12.938  0.1648 -0.0163  0.2277
 2962W        W19096  12.781   0.138   0.630 -0.1444 -0.4386 -0.1119
 2963W        W19097   5.135  16.856   5.387  0.3822  0.2047 -0.0069
 2964W        W19098   8.376   6.145  15.133  0.3331  0.0669 -0.0782
 2965W        W19099  17.791   9.651  12.473  0.4847  0.0551  0.0752
 2966W        W19100  10.849  17.278  15.483  0.2364  0.0704  0.0094
 2967W        W19101  14.351   9.256   1.083 -0.3014 -0.2894 -0.0015
 2968W        W19102   4.228  15.280   1.461  0.0650  0.1014  0.0566
 2969W        W19103   1.807  14.781   4.738  0.1815  0.0395 -0.2326
 2970W        W19104   8.237  10.023  13.155  0.2265  0.1110 -0.1336
 2971W        W19105   5.635   8.307   3.594 -0.3452 -0.1240 -0.1104
 2972W        W19106  11.487  13.887   4.433 -0.1504  0.2783 -0.0936
 2973W        W19107  11.906  11.072  16.692  0.0512 -0.2178  0.0832
 2974W        W19108   4.047   5.282  14.289 -0.2691 -0.0386  0.1037
 2975W        W19109   7.418   2.333   2.359  0.0060 -0.2709  0.1730
 2976W        W19110   5.831  11.581   5.442  0.0901 -0.2668  0.0437
 2977W        W19111  15.456  14.840  12.224  0.0395 -0.0785  0.0952
 2978W        W19112   8.369   6.712   3.885  0.1365 -0.1454  0.0696
 2979W        W19113  12.422   8.682   2.253  0.0449 -0.0902 -0.0518
 2980W        W19114  17.533  14.327   6.065  0.1750  0.0451 -0.0537
 2981W        W19115  16.284   9.068   6.272 -0.0800 -0.1893  0.2267
 2982W        W19116   5.997  13.276  16.091  0.0517  0.1210 -0.2699
 2983W        W19117   2.543   4.445   0.802 -0.0005 -0.0825  0.0598
 2984W        W19118   1.704   0.990   0.354  0.2367  0.2124 -0.1104
 2985W        W19119  12.834   0.318  11.681 -0.0124 -0.1259  0.1059
 2986W        W19120   0.698   9.544  13.100 -0.1599 -0.0438 -0.2416
 2987W        W19121  12.781   5.526  13.071 -0.1902  0.1060  0.0723
 2988W        W19122  16.462   9.405   2.764 -0.1008  0.0551 -0.0291
 2989W        W19123   7.722  13.005  14.059  0.2299 -0.0922  0.0370
 2990W        W19124  14.186  14.973  12.163  0.3664  0.0579 -0.1267
 2991W        W19125   2.269   6.208  16.115 -0.1750  0.1239 -0.2846
 2992W        W19126   9.217   6.323   1.245  0.0979  0.0714 -0.0706
 2993W        W19127  15.881  16.760   2.523  0.1430  0.2211 -0.0254
 2994W        W19128   1.605   4.389  12.296 -0.2598 -0.1398 -0.1317
 2995W        W19129   1.291   9.984  14.675  0.1753 -0.2421  0.1636
 2996W        W19130  16.478  15.757  15.725  0.0304  0.0914  0.2667
 2997W        W19131   8.139  11.597   2.932 -0.1691 -0.0248  0.0285
 2998W        W19132   1.255  11.172   2.934  0.3238 -0.1760 -0.1457
 2999W        W19133  17.159  17.918  14.024 -0.0586  0.1220  0.1403
 3000W        W19134  13.655  16.073  11.848  0.0304 -0.0094  0.0330
 3001W        W19135  15.796  12.285  16.428  0.4578 -0.0096  0.5461
 3002W        W19136  14.583   5.048   2.176 -0.3165  0.0861  0.1129
 3003W        W19137   0.029   3.542  15.202 -0.0303 -0.1008 -0.2588
 3004W        W19138  16.251   8.176   5.299  0.1094 -0.0617  0.0233
 3005W        W19139   7.853  13.773   2.826  0.1223 -0.0412 -0.2498
 3006W        W19140   4.304   1.322  16.677 -0.4510 -0.3094 -0.1600
 3007W        W19141  17.477   3.182  16.517 -0.1181  0.0810  0.0927
 3008W        W19142  12.917  16.025  12.166  0.0699 -0.0241 -0.0177
 3009W        W19143  15.168  15.067  14.173 -0.4003  0.2275  0.1904
 3010W        W19144   5.891  10.538  14.756 -0.1682 -0.0541  0.0183
 3011W        W19145  17.607   0.476   0.261  0.0106  0.0633 -0.0371
 3012W        W19146   3.417   9.809  15.115  0.1937 -0.2846 -0.0806
 3013W        W19147   9.703  14.058   5.464  0.1637  0.0747 -0.0699
 3014W        W19148   5.245  13.226   2.189 -0.2931 -0.1548 -0.2725
 3015W        W19149  13.207   0.078  15.845 -0.0819  0.3411 -0.0497
 3016W        W19150  13.013  10.490   1.589  0.2993  0.0936  0.0329
 3017W        W19151  15.789  15.309   5.493 -0.5403  0.2487 -0.4201
 3018W        W19152   6.689   3.635   3.028 -0.0720 -0.0978 -0.3178
 3019W        W19153  11.328   3.521   0.269  0.2039 -0.3115 -0.0790
 3020W        W19154   0.844  12.044  15.885 -0.0268  0.1921 -0.0239
 3021W        W19155  10.424  14.209   4.894  0.1705  0.3109 -0.1374
 3022W        W19156  14.735   5.301  15.945 -0.1599 -0.2387 -0.2110
 3023W        W19157  13.739  15.922  11.383  0.0297 -0.4362 -0.2155
 3024W        W19158   4.165  17.820  14.121 -0.1217  0.3600 -0.1250
 3025W        W19159   7.287   2.225   6.363  0.0026 -0.1367 -0.1369
 3026W        W19160   7.163   0.338   2.657  0.2077 -0.1010  0.1236
 3027W        W19161  15.876   6.085  13.912 -0.0453 -0.1100 -0.0698
 3028W        W19162   2.988  11.675  10.715 -0.2539 -0.1688  0.0635
 3029W        W19163  15.935  13.558  12.155 -0.1030  0.1178  0.1902
 3030W        W19164  15.065   6.656   3.010  0.2342 -0.1138 -0.0113
 3031W        W19165   4.150   9.021   1.759  0.0908  0.0823 -0.0980
 3032W        W19166  11.291   2.722   3.784 -0.1204 -0.1097  0.0757
 3033W        W19167   6.051   8.623   2.637  0.2878  0.1924 -0.1948
 3034W        W19168  15.006   9.743  14.890  0.1180 -0.1516 -0.2449
 3035W        W19169   1.034  14.480  15.902  0.0837 -0.3806  0.1163
 3036W        W19170  10.784  11.081  12.467 -0.1845  0.0115  0.0160
 3037W        W19171  11.949  13.550   4.292 -0.0835 -0.0368 -0.1738
 3038W        W19172   9.700   4.553  14.830 -0.2395 -0.0027 -0.0134
 3039W        W19173  14.909   1.922  16.006 -0.2275 -0.1137  0.2959
 3040W        W19174  11.989  14.941  16.302 -0.1776  0.3649 -0.2281
 3041W        W19175  11.437  10.505  13.369  0.0492 -0.2221  0.0582
 3042W        W19176  10.602  10.612  13.556  0.0525 -0.2600  0.0970
 3043W        W19177   7.828   6.215  12.911  0.0606  0.2005  0.2318
 3044W        W19178   4.236   3.735   1.213  0.0564  0.2124 -0.0855
 3045W        W19179  15.514  15.317   4.547  0.2029  0.1058 -0.0651
 3046W        W19180   7.667  14.347  15.642 -0.0084 -0.0130 -0.1876
 3047W        W19181   7.686   7.633  12.554  0.1000  0.4958  0.0451
 3048W        W19182   8.919   8.777  14.624  0.2153  0.1903 -0.1628
 3049W        W19183   4.142   1.758  11.895  0.5033  0.1095  0.2906
 3050W        W19184   7.900   3.654  13.611 -0.4730 -0.0904 -0.0241
 3051W        W19185   4.454   5.810   3.205 -0.1505  0.1894 -0.1805
 3052W        W19186   3.462   1.772   1.474 -0.0434  0.1285  0.2505
 3053W        W19187  16.194  14.994   6.446  0.1124 -0.1889 -0.1738
 3054W        W19188  16.420   5.174  13.305 -0.0306  0.1883 -0.0074
 3055W        W19189  15.520  11.991   1.036 -0.1428  0.0002 -0.1203
 3056W        W19190  16.226  10.430   4.571  0.1508 -0.2926  0.0137
 3057W        W19191   0.769   7.718   0.368 -0.3293 -0.2164 -0.3304
 3058W        W19192   2.558   2.577   0.715  0.1156  0.0692 -0.1512
 3059W        W19193   8.873   4.374   0.807 -0.1986 -0.2978 -0.1599
 3060W        W19194   5.059   2.921   0.523  0.0299  0.0262 -0.1979
 3061W        W19195   8.299  14.572  13.061 -0.0226 -0.2296 -0.1864
 3062W        W19196  14.241   1.828   4.951 -0.0530 -0.0472 -0.0142
 3063W        W19197   7.080  10.377   2.681 -0.0112  0.1013 -0.0977
 3064W        W19198  10.142   1.437   4.694  0.0543 -0.0243  0.1825
 3065W        W19199   2.736   4.377  13.848 -0.1554  0.1070  0.5345
 3066W        W19200   0.609  11.860  16.323  0.1038  0.0655  0.0490
 3067W        W19201   5.331   6.804  14.305 -0.2984 -0.0364 -0.0692
 3068W        W19202   3.257  13.933  12.581  0.1394 -0.0929  0.1199
 3069W        W19203   0.253   5.774  14.394  0.2656  0.0016  0.1486
 3070W        W19204   4.212   5.441   2.378 -0.0032  0.0781  0.0328
 3071W        W19205   2.496   3.952  12.172  0.1443  0.1198 -0.0579
 3072W        W19206   8.866  12.043  15.879 -0.3445 -0.0958  0.0559
 3073W        W19207   5.988   1.825  16.401  0.2641  0.4551 -0.3666
 3074W        W19208  16.441   2.161  14.345  0.1010 -0.4739 -0.2864
 3075W        W19209   8.659   0.947  13.284  0.1774 -0.2787 -0.1952
 3076W        W19210   4.740   8.053  11.397  0.0382  0.1690 -0.0304
 3077W        W19211  17.401   2.307   1.166  0.0208  0.2851 -0.0372
 3078W        W19212  13.373  13.467  16.106 -0.0782  0.0077  0.1733
 3079W        W19213   3.445   8.022   0.447 -0.2371 -0.0348  0.0505
 3080W        W19214  12.603  16.773   2.560  0.1228  0.0414  0.0136
 3081W        W19215  12.628  10.372  14.719  0.3118  0.0047 -0.1979
 3082W        W19216   8.658  17.269  15.637 -0.2401 -0.0620 -0.2155
 3083W        W19217   8.866   0.048  14.649  0.1593  0.2010 -0.0011
 3084W        W19218   3.991  10.571  12.829  0.1782 -0.0176 -0.0496
 3085W        W19219  11.588   7.049   6.309  0.2372 -0.2638 -0.2708
 3086W        W19220   7.809  11.844  11.066 -0.2908 -0.0820 -0.0774
 3087W        W19221   2.869   5.301   0.102 -0.3015  0.0197  0.0886
 3088W        W19222   7.059   9.695  15.687 -0.2214 -0.4876  0.0069
 3089W        W19223   2.361  17.232   3.085 -0.0716  0.2939  0.1398
 3090W        W19224   9.326   5.620   0.137  0.2217  0.0381  0.1266
 3091W        W19225   4.514   0.635  13.957  0.0326 -0.0811  0.0105
 3092W        W19226  17.220  12.569   4.226  0.0277 -0.0775 -0.0818
 3093W        W19227   6.884  13.572   4.573  0.0718  0.1184  0.0376
 3094W        W19228   0.444  10.724   2.827  0.1904 -0.0324 -0.1896
 3095W        W19229  13.318  14.671  13.800  0.0338  0.0276  0.2106
 3096W        W19230  10.185  11.748  13.408 -0.2095 -0.1305  0.0517
 3097W        W19231   3.313   7.418   4.940 -0.3351  0.2878  0.0430
 3098W        W19232  11.992   4.082  15.998  0.0854 -0.1287  0.0500
 3099W        W19233   5.575  12.280   0.937 -0.0992  0.2657  0.0127
 3100W        W19234   8.804  15.526   2.572 -0.1184 -0.3656 -0.0956
 3101W        W19235   3.669  16.732  15.444 -0.0804  0.0489 -0.1938
 3102W        W19236   7.235   8.987   3.134 -0.1631 -0.3750 -0.0240
 3103W        W19237   9.846  11.041   4.298  0.0240  0.1076  0.1537
 3104W        W19238  13.765  16.239  14.024 -0.0097  0.0786 -0.1620
 3105W        W19239   9.089   9.919  14.795  0.1187 -0.4498 -0.1901
 3106W        W19240  16.923   0.363  14.183 -0.1630  0.1036  0.2678
 3107W        W19241   3.377   4.226   4.815 -0.2627 -0.0101 -0.0808
 3108W        W19242   7.082   9.164   5.343  0.0188 -0.1044 -0.0702
 3109W        W19243   3.297  10.732  16.348  0.0869  0.1434  0.2277
 3110W        W19244   1.833  17.605  16.103  0.1496 -0.3595 -0.1064
 3111W        W19245   7.411  12.238   0.030 -0.1307  0.0504 -0.1941
 3112W        W19246   8.443  16.869  12.635 -0.1479  0.3757  0.0376
 3113W        W19247   3.987   8.851   0.816 -0.0728 -0.0973 -0.1275
 3114W        W19248   4.518  16.516   3.894 -0.0161 -0.2540 -0.1269
 3115W        W19249  16.602   1.534  12.909 -0.0110  0.0496 -0.0337
 3116W        W19250   9.978  15.812   4.983 -0.0260 -0.0481  0.2792
 3117W        W19251   8.550  16.163   3.251 -0.1232 -0.0657  0.1078
 3118W        W19252   7.405  17.865  13.701 -0.1671  0.0965  0.0293
 3119W        W19253  11.342  16.540  14.171 -0.0027  0.1306 -0.1607
 3120W        W19254  17.195   0.297   0.623 -0.3332  0.0213  0.0636
 3121W        W19255   1.345  12.953   4.728  0.0241  0.2717 -0.0643
 3122W        W19256   6.759  11.991  16.329 -0.0912 -0.3577 -0.1101
 3123W        W19257  13.922  13.981   4.562 -0.1483  0.0087 -0.2034
 3124W        W19258  11.577  16.140  13.435 -0.0618 -0.0084  0.1850
 3125W        W19259  12.335  13.483  14.195 -0.0468 -0.2094  0.0950
 3126W        W19260  12.870   0.384   3.282 -0.0476  0.0416  0.1724
 3127W        W19261   1.328  14.605   1.135 -0.0455  0.0565  0.2669
 3128W        W19262   6.971   5.275   0.391  0.1821 -0.1925 -0.1023
 3129W        W19263  17.944   3.675   4.615 -0.2514  0.0051  0.4028
 3130W        W19264  10.905  11.778   0.326  0.0796  0.0306 -0.0914
 3131W        W19265  11.815   6.517   2.651 -0.1192 -0.2925  0.0809
 3132W        W19266   6.363  16.124  14.027 -0.1787  0.0709 -0.1694
 3133W        W19267  11.672  17.103  12.956  0.1076 -0.0187 -0.2317
 3134W        W19268  16.071   0.727  16.065 -0.1229  0.2197  0.0152
 3135W        W19269  17.579  16.594   2.205 -0.0356  0.1179  0.0888
 3136W        W19270   5.890   5.320   4.936 -0.0323  0.1301  0.0858
 3137W        W19271   7.289   9.921  14.328  0.0858  0.1011 -0.3026
 3138W        W19272  10.762   6.947   4.245 -0.0737  0.1098  0.2354
 3139W        W19273  11.156   1.767   2.304  0.1205  0.0564  0.0576
 3140W        W19274  16.970   4.858  15.719  0.0105  0.4103 -0.2614
 3141W        W19275   4.044   7.564  11.601 -0.1413  0.0407 -0.1765
 3142W        W19276   3.761  13.067  13.474  0.1905  0.0884 -0.0643
 3143W        W19277   8.043  14.273  15.904 -0.0158  0.1149  0.0757
 3144W        W19278  10.587  11.948   5.056  0.1424  0.0584 -0.2620
 3145W        W19279  10.343   3.549   4.289  0.0674 -0.1719 -0.1187
 3146W        W19280  17.238  17.391   2.049 -0.2467  0.0650  0.0994
 3147W        W19281   4.496   8.980   4.694  0.0244 -0.0438 -0.0248
 3148W        W19282   7.384   3.771  12.871 -0.1508 -0.1041  0.0747
 3149W        W19283   2.636   7.437   1.798  0.0414  0.0198  0.0433
 3150W        W19284  14.092   3.103  13.166 -0.2002  0.1776  0.2595
 3151W        W19285   7.334   5.578  13.387  0.0952  0.0100  0.0834
 3152W        W19286  15.486   5.518  11.881 -0.3656 -0.0755 -0.1840
 3153W        W19287  16.738  11.396   3.265 -0.1158 -0.0621  0.2365
 3154W        W19288  17.628  16.397   2.993 -0.1951  0.2928  0.2209
 3155W        W19289  15.992   3.166  14.000  0.0842  0.0794  0.0248
 3156W        W19290   7.985   8.866   5.647  0.1710 -0.2713 -0.2082
 3157W        W19291   4.135   8.002  14.967  0.0808 -0.0877 -0.1362
 3158W        W19292  16.751  14.186  11.622  0.0121  0.0018 -0.2834
 3159W        W19293  17.415   3.189  14.257 -0.0007 -0.0721 -0.0902
 3160W        W19294  16.010  12.072  12.194  0.0717  0.0763 -0.2163
 3161W        W19295  10.158   8.101   1.326  0.0249  0.0682  0.0058
 3162W        W19296   4.633   9.349  13.815 -0.0865 -0.0158 -0.0541
 3163W        W19297   0.586   8.957  15.444  0.0329  0.0351 -0.0133
 3164W        W19298  13.270  11.602  12.502  0.1737  0.0619 -0.0749
 3165W        W19299   8.349   8.346   2.593 -0.1790 -0.2060  0.0034
 3166W        W19300   0.511   1.540  13.526 -0.0216 -0.1760 -0.2983
 3167W        W19301   7.165   8.868  11.978  0.0006  0.1679  0.0049
 3168W        W19302   3.818   8.701   2.034 -0.1213  0.1094  0.2131
 3169W        W19303   5.974   1.791  13.844  0.0163  0.3135 -0.3136
 3170W        W19304   5.428   8.257  15.949 -0.0314 -0.0350 -0.0613
 3171W        W19305   0.794   1.758  14.565  0.4421  0.0593 -0.0025
 3172W        W19306   4.240   1.725  16.417 -0.0580 -0.2281  0.1169
 3173W        W19307   0.167  13.426  15.396 -0.4198  0.1761 -0.1349
 3174W        W19308  16.919   2.918   0.910  0.1223  0.2051 -0.0182
 3175W        W19309  17.865   5.049  16.377 -0.0371  0.4534  0.0713
 3176W        W19310   5.273   1.335  15.532  0.0333 -0.1018  0.1195
 3177W        W19311   1.772   1.145  12.202 -0.1787  0.1616  0.0253
 3178W        W19312   7.123   3.009  15.449  0.2549  0.3337  0.2057
 3179W        W19313  11.799   3.426   3.617  0.0294 -0.2220 -0.1662
 3180W        W19314   3.317  11.219  16.371 -0.1340 -0.2970  0.0516
 3181W        W19315   8.928  16.441   5.153 -0.1698 -0.0479 -0.0898
 3182W        W19316   6.725   8.241   5.004  0.1927 -0.0887  0.0633
 3183W        W19317  12.480   3.335   2.968 -0.0571  0.0668  0.4391
 3184W        W19318   6.462  13.655   1.669  0.0986 -0.3376 -0.1710
 3185W        W19319  13.273   5.402   1.604 -0.2362  0.1952 -0.2185
 3186W        W19320   0.628   1.969   5.375  0.3165 -0.1667  0.0541
 3187W        W19321   9.371  10.549   1.067 -0.0707 -0.2152  0.4248
 3188W        W19322   2.818  13.400   3.187 -0.1925 -0.2708 -0.0442
 3189W        W19323   1.590  11.912  11.514  0.0795 -0.2746 -0.0942
 3190W        W19324  16.546   8.918  16.095  0.2370  0.0180  0.1419
 3191W        W19325   6.681   6.884  16.198 -0.0014  0.0277 -0.1653
 3192W        W19326   2.818  15.125   1.571 -0.0601 -0.0117 -0.2216
 3193W        W19327  12.868  13.447   2.537 -0.1003  0.1455 -0.0413
 3194W        W19328  17.404   3.025  10.930 -0.1131  0.2020  0.1368
 3195W        W19329  12.667  11.731   0.206 -0.2084 -0.2598  0.0244
 3196W        W19330  15.264  17.222  15.967  0.1066  0.3094 -0.0223
 3197W        W19331   9.686   0.342  15.487 -0.1425  0.1355  0.1024
 3198W        W19332   0.352   9.284  12.857  0.1337  0.0384  0.2036
 3199W        W19333   3.141  14.178  13.128 -0.0201 -0.0070 -0.0107
 3200W        W19334   5.246   4.826   1.936  0.3457 -0.2605  0.1685
 3201W        W19335   1.857  14.857   5.778  0.0791 -0.2909  0.0589
 3202W        W19336  14.653  17.702  14.182  0.2782  0.4104 -0.0335
 3203W        W19337   5.467   6.918   0.162  0.2658  0.1678  0.2499
 3204W        W19338  10.537   5.504   4.067  0.1839 -0.3418  0.2581
 3205W        W19339   1.339  16.629   1.657  0.1392 -0.1123 -0.3628
 3206W        W19340   0.156   6.961   6.065  0.0917 -0.1855  0.1820
 3207W        W19341  15.337  12.147   3.417 -0.1175 -0.1847 -0.1961
 3208W        W19342  17.521   0.746   1.407 -0.0259 -0.0235  0.1548
 3209W        W19343  12.484   4.827   0.272  0.3781 -0.1499 -0.2183
 3210W        W19344  16.290   1.279  12.620 -0.0955 -0.1150 -0.0865
 3211W        W19345  14.936  16.483  14.333 -0.2098  0.1763 -0.4451
 3212W        W19346  11.536   5.668  14.167 -0.1017  0.0460 -0.0539
 3213W        W19347   4.894   5.520  16.572  0.1139  0.0642  0.0650
 3214W        W19348   0.503  17.449   3.984  0.0277 -0.1650 -0.0418
 3215W        W19349  12.124   4.463   2.467 -0.1374 -0.0888  0.1963
 3216W        W19350   2.998   1.079   2.463  0.0864 -0.0493  0.1460
 3217W        W19351   8.117  12.581  14.354  0.3281  0.2128 -0.0861
 3218W        W19352  10.420   7.989   3.394 -0.1844  0.3242  0.1275
 3219W        W19353  13.327  13.912   3.475  0.5246 -0.1598 -0.0624
 3220W        W19354   7.656  14.142   4.030  0.2859 -0.0347 -0.1216
 3221W        W19355  16.812   1.484  15.727  0.2729  0.1576  0.0252
 3222W        W19356   3.538   6.933  15.760  0.3841 -0.0564  0.3899
 3223W        W19357  12.327  12.752  13.577  0.1092 -0.0519  0.1300
 3224W        W19358  17.558  10.664   2.506 -0.0422 -0.1435 -0.2569
 3225W        W19359  17.473  12.205  11.991  0.1270  0.0251  0.2193
 3226W        W19360   7.743   2.499  16.715 -0.5147  0.0619 -0.2438
 3227W        W19361   8.839  11.733   0.244 -0.0319 -0.4130 -0.1462
 3228W        W19362   0.325   0.025   4.905 -0.3563  0.3360  0.1846
 3229W        W19363   0.288   5.634  11.185  0.0095 -0.1154 -0.1351
 3230W        W19364  14.260  12.266  15.689  0.0468  0.1621 -0.2806
 3231W        W19365   7.818   9.251  12.329 -0.0412 -0.1905  0.0066
 3232W        W19366  15.745   8.946  12.593  0.0739 -0.0746  0.1899
 3233W        W19367   9.110   8.302  14.793 -0.2405 -0.0275 -0.0192
 3234W        W19368  16.639  11.766   5.589 -0.0160 -0.0650 -0.1456
 3235W        W19369  17.196   7.374   5.280  0.0414  0.1198 -0.0995
 3236W        W19370   1.610   7.545   4.799  0.0783 -0.2993  0.1539
 3237W        W19371  16.834   3.521   2.894  0.0442 -0.0256 -0.3733
 3238W        W19372  11.974  11.011  12.105  0.1684  0.1246 -0.1440
 3239W        W19373  16.192   4.697  14.357 -0.0135  0.1847 -0.1671
 3240W        W19374  10.460  16.581  15.725  0.2009  0.0962  0.2874
 3241W        W19375  14.231  12.002  13.277 -0.2405 -0.0385 -0.0798
 3242W        W19376   1.973   1.193   2.356 -0.1027  0.0141 -0.2341
 3243W        W19377   5.638  16.054  15.323  0.2256 -0.1255 -0.3182
 3244W        W19378  14.395  10.364  12.412  0.1949  0.0413 -0.0283
 3245W        W19379   0.293  13.595   2.449 -0.1029 -0.1131 -0.0693
 3246W        W19380   9.156   7.630  13.395 -0.3938  0.0864 -0.2941
 3247W        W19381   3.380  12.204   5.230  0.1676 -0.0758 -0.1827
 3248W        W19382   8.951   9.469   3.470 -0.0987 -0.0482 -0.0779
 3249W        W19383   2.540  11.272   3.334 -0.0951  0.0977  0.2944
 3250W        W19384   1.684   1.871   4.733  0.0475 -0.1602  0.1471
 3251W        W19385  17.414   1.871   3.812 -0.3245  0.2363 -0.0374
 3252W        W19386  15.800  11.919   2.139  0.1069 -0.0570 -0.2068
 3253W        W19387   7.686   7.610   5.810  0.0894 -0.3056 -0.1075
 3254W        W19388  14.342   0.695  11.748 -0.2686  0.0547 -0.1483
 3255W        W19389  11.387  12.174   0.366 -0.0009  0.1947 -0.2641
 3256W        W19390  10.338   6.580   4.729  0.3478 -0.0166  0.0708
 3257W        W19391  13.465  16.505  11.035  0.1991 -0.0634 -0.2874
 3258W        W19392  16.123   0.018   0.706 -0.2938 -0.0708  0.0411
 3259W        W19393  16.775  10.675  15.568 -0.1137 -0.1828  0.1030
 3260W        W19394  12.656  12.723  15.573 -0.0184  0.4885  0.2230
 3261W        W19395  13.514  13.190  16.705 -0.0431  0.3063  0.0311
 3262W        W19396  13.093  12.880   4.587 -0.2883  0.1490  0.0311
 3263W        W19397   4.415  17.806   3.976 -0.1999  0.1266  0.0206
 3264W        W19398   8.200  13.981   4.159 -0.0926  0.2327 -0.0614
 3265W        W19399  16.429   8.529   4.022 -0.0254 -0.2880  0.0817
 3266W        W19400   6.802   7.280   5.922 -0.0697 -0.0425 -0.1224
 3267W        W19401   6.743   5.082   3.968  0.2442  0.1005  0.1592
 3268W        W19402  15.228   1.715  12.115 -0.0209 -0.0098  0.0122
 3269W        W19403   1.996  15.173  12.475  0.0832  0.1681 -0.2817
 3270W        W19404   3.612  10.278  15.016  0.1866  0.0810 -0.0195
 3271W        W19405  17.717   2.824  14.593 -0.0684  0.3477  0.2865
 3272W        W19406   4.057   9.029   5.961 -0.0546  0.1845 -0.0912
 3273W        W19407  16.286  17.956  13.693 -0.0784 -0.0480  0.2689
 3274W        W19408   0.612   8.710   5.696  0.3230  0.1516 -0.1121
 3275W        W19409  11.578   6.067  13.466  0.1108 -0.0218  0.2842
 3276W        W19410  15.973  17.343   3.628  0.3607  0.3099  0.1774
 3277W        W19411   3.119   3.385  12.578  0.0785 -0.4376 -0.1199
 3278W        W19412   4.783  17.368   3.489  0.1609  0.0141  0.0183
 3279W        W19413   6.012   3.241  12.159 -0.1105  0.2245 -0.0886
 3280W        W19414   2.806  12.717   0.509 -0.0294  0.0941  0.3182
 3281W        W19415   3.831  10.644   4.220 -0.3116 -0.0222  0.3768
 3282W        W19416   3.308  12.978   2.404 -0.1543 -0.0927 -0.1197
 3283W        W19417   1.099  14.116  13.959  0.0279 -0.1286  0.1277
 3284W        W19418  10.272   5.467  13.879 -0.0630 -0.0506 -0.2140
 3285W        W19419   2.719  10.626  14.933 -0.5247  0.0348  0.0531
 3286W        W19420  15.565  10.170   2.992 -0.2911 -0.0718 -0.3348
 3287W        W19421   8.046  13.525  12.137  0.2568  0.1342 -0.0205
 3288W        W19422  17.612  11.949   1.585 -0.2144  0.3407 -0.1844
 3289W        W19423  10.338   1.799   4.395 -0.3434 -0.2486 -0.0274
 3290W        W19424  12.012  14.332   5.667 -0.0929 -0.3581 -0.0920
 3291W        W19425   8.217   4.875   0.035 -0.3248 -0.0920 -0.2716
 3292W        W19426  14.439  11.367   0.091  0.3520 -0.0538 -0.2178
 3293W        W19427   9.030  11.303   2.510 -0.1679  0.0466  0.0471
 3294W        W19428   0.617  17.264   1.815 -0.1254  0.2738 -0.1709
 3295W        W19429   1.987  15.226  14.499  0.0651 -0.0419  0.4077
 3296W        W19430  11.409   8.263   6.075 -0.1460 -0.0286 -0.0715
 3297W        W19431  16.205   3.836  13.339  0.0939  0.1985 -0.1530
 3298W        W19432  12.613  16.427   5.643  0.1406  0.0182  0.0412
 3299W        W19433  16.182  13.966   1.952 -0.2143  0.2048  0.3263
 3300W        W19434   3.064  10.669   1.092 -0.0826 -0.0984  0.0143
 3301W        W19435  17.031   5.151   3.354  0.3798 -0.1739 -0.1825
 3302W        W19436   4.905  14.982   2.125 -0.1576 -0.3258  0.1124
 3303W        W19437   9.612   3.449  14.572 -0.0899  0.1310  0.0932
 3304W        W19438  11.116  11.467  14.942  0.1056  0.1247  0.0135
 3305W        W19439   5.331  11.173   0.562 -0.0710  0.0484 -0.1449
 3306W        W19440  16.626   0.556   5.516 -0.0241  0.1444 -0.0599
 3307W        W19441  15.790  11.504   1.210  0.1140 -0.0412 -0.1955
 3308W        W19442  13.883   6.130  11.512  0.2655  0.3903  0.1445
 3309W        W19443  13.719   6.901   4.717  0.0452  0.3051 -0.0492
 3310W        W19444  11.013  16.138   3.402 -0.2887  0.2942 -0.2422
 3311W        W19445  17.425   1.973   5.166 -0.0392  0.1418 -0.1600
 3312W        W19446   7.516   0.755  16.411 -0.0327 -0.0744  0.1304
 3313W        W19447  10.266   1.648  12.042  0.0042 -0.0073  0.0496
 3314W        W19448   9.148   8.212  12.099 -0.0779  0.2329 -0.0817
 3315W        W19449   4.134   1.023   5.245 -0.1337  0.0885  0.0103
 3316W        W19450   2.800  12.436   1.218  0.4936 -0.0388 -0.2387
 3317W        W19451   4.600  16.972   4.299  0.1265 -0.1512 -0.0078
 3318W        W19452  14.218   1.352  15.495  0.0076  0.1531 -0.0958
 3319W        W19453   0.656  15.963  12.577 -0.1456  0.1979  0.2323
 3320W        W19454  13.226   4.239  12.513 -0.0037 -0.1170 -0.0281
 3321W        W19455   4.524   2.600  13.835 -0.2540 -0.0581  0.1557
 3322W        W19456   4.465  15.686   1.552  0.0988  0.1987 -0.0334
 3323W        W19457   6.543  15.659  14.900  0.2094 -0.1667 -0.0400
 3324W        W19458   0.061   4.561  16.233  0.0967  0.1338 -0.0224
 3325W        W19459  12.980  14.002   5.093 -0.1338 -0.1674 -0.1123
 3326W        W19460  10.842   1.011   1.958  0.2117 -0.1228  0.0383
 3327W        W19461   1.682   8.803   5.821  0.0371 -0.1746 -0.0014
 3328W        W19462  15.095   1.264  15.210  0.1409 -0.2230 -0.0436
 3329W        W19463  11.909  10.715   0.963  0.0201 -0.1267 -0.0562
 3330W        W19464   0.378   4.732  12.381  0.0297  0.0256 -0.1410
 3331W        W19465  15.766   9.674   2.886  0.0328 -0.1015 -0.1254
 3332W        W19466  16.956   4.264  14.913  0.0298 -0.0179  0.1161
 3333W        W19467  15.899  12.124   5.749 -0.3044 -0.0046  0.3606
 3334W        W19468  16.745   2.606   4.016 -0.0158 -0.1766  0.0478
 3335W        W19469  12.049  10.312  16.415  0.0032  0.1930  0.0398
 3336W        W19470   8.481  12.929   9.928  0.1627  0.2273 -0.2004
 3337W        W19471   6.858  17.512   5.298 -0.0893  0.0504 -0.1964
 3338W        W19472   2.689   0.397   0.832  0.2910  0.1129 -0.2658
 3339W        W19473   8.014  12.739  16.513  0.0943  0.1781 -0.1394
 3340W        W19474  15.960  11.358  11.920  0.1091  0.1018 -0.1063
 3341W        W19475  16.458  10.596  13.647 -0.0581  0.3119 -0.2889
 3342W        W19476  15.994   5.371   3.286  0.1690 -0.2313  0.2186
 3343W        W19477   1.194   6.547  16.070  0.1313  0.2015 -0.1990
 3344W        W19478  13.007  11.253  12.836 -0.1050 -0.1614  0.0142
 3345W        W19479   4.444  15.792   4.811 -0.0763 -0.0825  0.2117
 3346W        W19480  16.137   8.393  11.661 -0.0915  0.1158  0.2998
 3347W        W19481   0.349   6.846  12.492  0.0934 -0.0055 -0.0865
 3348W        W19482   7.263   9.736   3.302 -0.2613 -0.1631 -0.0680
 3349W        W19483  11.011  16.981  11.542  0.0119 -0.0771 -0.1759
 3350W        W19484   6.430   9.784  13.703 -0.2220  0.1965 -0.2849
 3351W        W19485  11.505   3.218  13.535 -0.4508  0.2138  0.0219
 3352W        W19486   4.924  16.031   1.995 -0.2559 -0.1089 -0.1489
 3353W        W19487  16.423  16.521   1.249 -0.0122  0.1056  0.2590
 3354W        W19488  12.865   1.487   0.014 -0.0868 -0.1837  0.3113
 3355W        W19489  15.693  13.015  13.209 -0.2364 -0.0101 -0.0463
 3356W        W19490   1.751  10.365  13.623 -0.2430 -0.1631 -0.0705
 3357W        W19491   3.134   0.443  15.702  0.2275  0.0193 -0.1637
 3358W        W19492  17.699  12.025   2.282 -0.0049  0.0856  0.4381
 3359W        W19493   4.968  13.621   2.330  0.1949 -0.0236 -0.2570
 3360W        W19494   6.437  11.074  13.251  0.3598 -0.1574 -0.1264
 3361W        W19495   7.405  10.746   1.830 -0.0796  0.2440 -0.2199
 3362W        W19496   0.667  15.020  14.930  0.2348 -0.1731  0.0959
 3363W        W19497  17.874   2.810   5.285  0.1580 -0.1308 -0.0896
 3364W        W19498  12.806  12.424  10.674  0.0053 -0.1890 -0.1591
 3365W        W19499  13.948   5.374  11.966  0.0106 -0.0723 -0.1251
 3366W        W19500   0.200   9.050   1.134  0.0965 -0.2895  0.0754
 3367W        W19501   7.303   2.960   5.512  0.0583  0.2319 -0.2341
 3368W        W19502   1.198   9.997   4.774 -0.3613  0.3233  0.2179
 3369W        W19503  17.610   7.097  12.717  0.0966 -0.1105  0.3052
 3370W        W19504  16.563   8.568   5.413 -0.2880  0.1025  0.1205
 3371W        W19505  17.364  13.574   0.660 -0.0058  0.0139 -0.0538
 3372W        W19506   1.453  14.096  12.119  0.0357  0.4212 -0.2587
 3373W        W19507   0.498  15.228  15.971  0.0137  0.0594  0.2758
 3374W        W19508   4.646   7.322  12.438 -0.0860 -0.0229 -0.1451
 3375W        W19509   3.907   8.094  11.704 -0.3511  0.0360 -0.2355
 3376W        W19510  12.381  17.791  14.586 -0.0825  0.0252 -0.2706
 3377W        W19511   7.097   0.833  12.558 -0.0371 -0.1879 -0.3412
 3378W        W19512  14.879  12.541  16.343 -0.0105  0.0473  0.4658
 3379W        W19513   6.960  10.518  12.031  0.1461 -0.0941  0.1550
 3380W        W19514   9.551   7.059   5.278 -0.0252 -0.0157  0.1686
 3381W        W19515  11.028   3.043   4.075 -0.0015  0.1754  0.1432
 3382W        W19516  14.704   1.953   1.263 -0.0651  0.4812 -0.2817
 3383W        W19517   5.662   5.675   0.288  0.2157  0.0707 -0.0090
 3384W        W19518  16.501   6.269  11.450 -0.1342 -0.2171  0.0125
 3385W        W19519   1.290   0.896  15.373  0.0451  0.0511  0.0963
 3386W        W19520  16.559  10.660   4.289  0.1452 -0.2679  0.1851
 3387W        W19521   1.694   6.092   5.676 -0.0051  0.3206  0.0630
 3388W        W19522   5.422  13.417   1.773  0.1270 -0.0427  0.0355
 3389W        W19523  17.080  13.536   4.164 -0.0951 -0.1288 -0.1116
 3390W        W19524   9.024   2.773   4.013  0.3707  0.0015  0.0844
 3391W        W19525   8.306   7.388   2.636 -0.0547  0.1892 -0.0402
 3392W        W19526   4.973  14.025   0.992  0.0915 -0.2971 -0.1224
 3393W        W19527   0.199   1.005  11.157 -0.0766  0.0365 -0.1579
 3394W        W19528   9.884  16.522  12.080 -0.0981  0.0798  0.0562
 3395W        W19529  15.813   9.962  15.316 -0.1278 -0.0070  0.1247
 3396W        W19530   6.250   8.152  13.052  0.2071 -0.0701  0.0612
 3397W        W19531  14.168   1.604  14.025  0.4998  0.1724  0.2745
 3398W        W19532  13.908  13.287   3.356 -0.3598 -0.0338 -0.0039
 3399W        W19533   6.173   0.922  12.057  0.6112  0.1209  0.0143
 3400W        W19534  17.922   1.164  16.630  0.2296 -0.2881 -0.0902
 3401W        W19535   6.683  17.785  12.500 -0.1258 -0.0742 -0.1238
 3402W        W19536  16.174  12.018  13.334 -0.0494 -0.2183  0.0071
 3403W        W19537   8.184   3.082  12.018 -0.0304  0.1106 -0.0157
 3404W        W19538  10.638  10.691  16.061 -0.3400  0.2600 -0.1360
 3405W        W19539  15.268  14.337  13.784  0.1189  0.0425  0.0647
 3406W        W19540  15.744  17.554   2.656 -0.0546 -0.4012 -0.0015
 3407W        W19541   7.873   6.693  13.668  0.0236  0.2973 -0.0390
 3408W        W19542  13.758  14.980   1.426 -0.0277  0.3346  0.2180
 3409W        W19543  12.233  12.003  14.378 -0.1652 -0.1905 -0.1213
 3410W        W19544   1.010   9.483  10.646  0.1531 -0.0733  0.3596
 3411W        W19545  14.210  16.272   0.923  0.1002  0.0435 -0.1078
 3412W        W19546  15.043   9.557  16.172 -0.2299 -0.1666  0.1010
 3413W        W19547   7.490   0.322   0.571 -0.0601 -0.1576 -0.0326
 3414W        W19548   4.484  12.752  14.978  0.1109 -0.2738 -0.2151
 3415W        W19549   6.470   2.061  15.142  0.3464  0.0887  0.3556
 3416W        W19550   2.691  14.024   4.100 -0.1344  0.1448 -0.0151
 3417W        W19551  12.223  15.794  11.537 -0.1524 -0.1776 -0.0308
 3418W        W19552  14.535   0.532   5.580 -0.0563 -0.1872 -0.0055
 3419W        W19553  10.735  15.068   3.617  0.0391  0.0211 -0.0467
 3420W        W19554   9.224   7.971  15.587 -0.1109 -0.2678 -0.1313
 3421W        W19555  12.978   5.097   4.916 -0.0961  0.0981  0.2859
 3422W        W19556  16.527   9.463   4.522 -0.0186  0.0196 -0.0486
 3423W        W19557   9.548  10.396   6.079  0.1389  0.0232 -0.1280
 3424W        W19558  11.164   2.164   3.207  0.1256 -0.2923 -0.0206
 3425W        W19559   3.872   2.783   0.493 -0.0485  0.0459  0.1618
 3426W        W19560   4.665   0.554  15.617 -0.0281  0.2859 -0.0054
 3427W        W19561   7.265   6.447   0.593 -0.1241  0.0602  0.1332
 3428W        W19562  15.073  10.224   5.444 -0.0392  0.0854 -0.0133
 3429W        W19563   2.526   0.918   0.035  0.1473  0.4969 -0.1929
 3430W        W19564   1.025   4.979   3.711 -0.1009 -0.0664 -0.0377
 3431W        W19565  12.894   5.731  13.498  0.1164  0.2010 -0.2747
 3432W        W19566  12.662   9.771   0.199 -0.1461 -0.0396 -0.4279
 3433W        W19567   9.785  10.875   1.434  0.1503  0.0935  0.2644
 3434W        W19568   0.727  11.471   5.416 -0.3559 -0.1889  0.0206
 3435W        W19569  15.114  17.664  14.038 -0.1104 -0.2614 -0.1801
 3436W        W19570   2.948   7.455  13.157 -0.0748  0.3158 -0.1335
 3437W        W19571  12.707   9.350  13.228  0.0593  0.0226  0.1155
 3438W        W19572   1.852   0.454  13.570  0.0730 -0.0315  0.1604
 3439W        W19573   7.387  15.955   3.943  0.2257 -0.0719  0.0064
 3440W        W19574   5.667  14.487   4.197 -0.0637 -0.2586  0.0997
 3441W        W19575   6.642   4.184   4.108  0.2161  0.2198 -0.3458
 3442W        W19576  16.938  11.737   5.056 -0.1788  0.1548  0.0272
 3443W        W19577   7.269  17.200   5.233 -0.2999 -0.0710  0.0484
 3444W        W19578  17.540  14.439   0.961 -0.2344  0.0331  0.0115
 3445W        W19579   1.155   5.427   1.269 -0.1073  0.0002  0.1356
 3446W        W19580   1.303   8.482  12.460  0.2263 -0.1617  0.0648
 3447W        W19581   7.069  11.770   3.257  0.3572  0.0783 -0.0361
 3448W        W19582   6.188   3.583   5.736  0.1540 -0.4292 -0.1358
 3449W        W19583   2.207   5.441   1.638 -0.0274  0.0474  0.2706
 3450W        W19584  17.411  13.948   2.032  0.2541 -0.2656 -0.0588
 3451W        W19585   3.160   7.663   0.203 -0.2007  0.1043  0.1998
 3452W        W19586  12.934   6.289   2.293 -0.2425 -0.2992 -0.0579
 3453W        W19587  14.202   5.502   3.130 -0.1842 -0.0043  0.0496
 3454W        W19588   5.953   7.783  11.695 -0.1739 -0.3864  0.3213
 3455W        W19589  17.556   7.278   2.633 -0.1158 -0.1381 -0.1811
 3456W        W19590   5.068   6.238   4.548  0.1860 -0.0457 -0.0003
 3457W        W19591   8.567  11.256   1.169  0.0019  0.0294  0.0563
 3458W        W19592  15.287  16.165  14.173  0.2043 -0.3155  0.0794
 3459W        W19593  16.233  10.327  11.818  0.1633 -0.0234 -0.1899
 3460W        W19594   9.132   7.112  14.222 -0.1364  0.2611  0.0042
 3461W        W19595   4.420  14.334  15.024 -0.0063 -0.0246  0.0004
 3462W        W19596   1.442  13.445   4.767 -0.0301  0.1713  0.1426
 3463W        W19597  11.216  16.720  14.686  0.0843 -0.0397 -0.1420
 3464W        W19598   6.341  14.704  16.511 -0.1285  0.1152  0.1619
 3465W        W19599   3.416  16.898   0.518 -0.1484  0.0974  0.1196
 3466W        W19600  14.265  12.859   0.298  0.0014  0.1128 -0.2253
 3467W        W19601   5.569  12.780   5.866  0.0449  0.1904  0.1039
 3468W        W19602   8.899   4.929   2.395 -0.1146  0.1982 -0.1537
 3469W        W19603  14.808  10.160   3.660  0.1804 -0.0698  0.0121
 3470W        W19604  13.651  11.827  12.783  0.2065  0.1998  0.0006
 3471W        W19605  12.006   3.090  15.854 -0.0092 -0.1125  0.2915
 3472W        W19606   9.468   2.077   4.361 -0.2249 -0.1626  0.1300
 3473W        W19607   7.039   7.827   5.167  0.1994  0.1035 -0.1612
 3474W        W19608   1.335   2.603  15.728 -0.2741 -0.0480 -0.1268
 3475W        W19609  15.671  10.719   4.405  0.0667  0.0205 -0.1274
 3476W        W19610  17.514  15.537   4.060  0.0722 -0.0527  0.0824
 3477W        W19611   6.100   2.255   2.008  0.2048  0.0038 -0.1010
 3478W        W19612   9.054   5.813   1.970  0.2837  0.0369  0.1622
 3479W        W19613  16.483  14.259   0.008  0.1159  0.1418 -0.0133
 3480W        W19614   8.217  12.775   2.890  0.0122 -0.1238  0.1045
 3481W        W19615   2.974  11.721  13.235 -0.0952 -0.1226 -0.0056
 3482W        W19616   1.692  12.274  15.993 -0.0213 -0.0256 -0.0446
 3483W        W19617  17.556  11.914  12.815  0.0194  0.1361  0.0326
 3484W        W19618   3.339   7.511  12.548  0.3707 -0.0423 -0.1397
 3485W        W19619  12.786  10.142  15.209 -0.2128  0.1251  0.0962
 3486W        W19620   9.164   2.189  16.173 -0.0166 -0.1704  0.3514
 3487W        W19621  13.166   6.810   5.516 -0.1106 -0.1850 -0.0257
 3488W        W19622   2.489   9.964  13.065  0.2883  0.0945 -0.1755
 3489W        W19623   1.391  10.886  15.254  0.1443 -0.0664  0.1889
 3490W        W19624  15.325  12.340  13.870  0.1917 -0.0847 -0.0138
 3491W        W19625   2.777  10.902  11.310 -0.0297 -0.0106 -0.0207
 3492W        W19626   3.725   6.125  16.330  0.0618  0.1422 -0.1807
 3493W        W19627   6.531   8.760   2.540  0.0934  0.3518  0.0481
 3494W        W19628  10.744  10.633  12.622  0.1572  0.0675 -0.3529
 3495W        W19629   0.214  16.099  13.436  0.1181 -0.0454  0.2507
 3496W        W19630  11.111   9.322   0.263  0.0765  0.0125  0.0340
 3497W        W19631  17.800   9.789   1.479  0.1176 -0.4915  0.0835
 3498W        W19632   9.322   0.288  11.485  0.2188 -0.0330  0.1649
 3499W        W19633  12.185   2.061  14.878  0.2614  0.1995 -0.0303
 3500W        W19634   5.087   7.127  14.041  0.1194  0.0598  0.1184
 3501W        W19635  11.158   7.062  14.318  0.0951  0.1951  0.0757
 3502W        W19636  10.879  12.900   0.655 -0.1438  0.1621 -0.0508
 3503W        W19637  10.380  13.362   1.575 -0.1168 -0.3432  0.0067
 3504W        W19638  16.852   6.251   4.057 -0.4883 -0.1048  0.3156
 3505W        W19639  12.842   5.163  13.436 -0.1012 -0.2504 -0.1295
 3506W        W19640   3.758  17.175  11.940  0.3047  0.0090  0.0923
 3507W        W19641  16.344  11.984  16.669 -0.4894 -0.2794 -0.2416
 3508W        W19642  17.126   9.688  14.271  0.1111 -0.2344  0.0435
 3509W        W19643  12.976   3.815  14.395  0.0106 -0.1072 -0.0759
 3510W        W19644   8.527   3.508   0.991 -0.2290  0.2534 -0.1465
 3511W        W19645   9.182   2.287   3.987  0.1202 -0.1168  0.1314
 3512W        W19646  14.393   8.145   1.872 -0.2076 -0.3792  0.2902
 3513W        W19647  10.021  17.919  13.905  0.3825 -0.1615  0.1122
 3514W        W19648   3.793  14.460   5.191 -0.0448  0.2514 -0.1757
 3515W        W19649  15.469  16.903  13.520 -0.2919 -0.3005 -0.1505
 3516W        W19650  13.266   4.662  13.001  0.0316 -0.2191 -0.1888
 3517W        W19651   5.942   1.178   3.621  0.0269  0.2469  0.1960
 3518W        W19652  16.035  12.914   3.599  0.1741 -0.1089 -0.1385
 3519W        W19653   9.546   1.958   4.859  0.0530  0.0057 -0.2782
 3520W        W19654   8.902   8.052  14.028  0.1454 -0.1596  0.0041
 3521W        W19655  11.745  11.132   1.254 -0.0204  0.2884  0.1591
 3522W        W19656   7.796  15.359  11.581  0.3555 -0.1677  0.3537
 3523W        W19657  15.644  11.025  13.452  0.0241 -0.1623 -0.0855
 3524W        W19658   9.052  12.819   3.262 -0.0428 -0.1234 -0.0575
 3525W        W19659   7.710   3.675  15.559  0.0177  0.0159  0.2814
 3526W        W19660   8.202  14.999   5.523  0.1700 -0.0334 -0.0150
 3527W        W19661  15.135  16.848   5.961 -0.2144 -0.0655 -0.0788
 3528W        W19662  14.548   9.557  15.554 -0.0413 -0.0367 -0.0297
 3529W        W19663  11.241   5.567  16.189 -0.1076  0.2021  0.1525
 3530W        W19664   8.212   1.831  15.397  0.3297 -0.1271 -0.1520
 3531W        W19665   8.158  11.560  13.925  0.1175 -0.0429 -0.1348
 3532W        W19666   4.222   2.859  15.729  0.0153  0.0248 -0.1979
 3533W        W19667  10.394   3.067   2.918  0.2848  0.0646 -0.0506
 3534W        W19668  12.591  16.794  14.274  0.0225 -0.1511  0.0759
 3535W        W19669  10.153   7.073  13.949  0.1818 -0.1847 -0.0730
 3536W        W19670   4.562  10.412   0.579 -0.1080 -0.1228  0.0963
 3537W        W19671  12.512  10.366   2.220 -0.2803  0.1261  0.0937
 3538W        W19672  14.960  13.424   5.304 -0.1836  0.1101  0.0491
 3539W        W19673   1.243   6.213  14.007 -0.0110 -0.1417  0.0273
 3540W        W19674   9.578   1.310  12.577 -0.2022  0.0424 -0.0709
 3541W        W19675  11.048  17.363   5.370  0.1695 -0.0369 -0.0514
 3542W        W19676   6.984  17.706   2.523  0.1396  0.0419 -0.1769
 3543W        W19677  11.223   2.717   0.147  0.1773 -0.0049  0.0174
 3544W        W19678  10.490   9.104   1.426 -0.1662  0.0356 -0.1208
 3545W        W19679  13.873  11.161   1.069 -0.0266  0.3873 -0.0587
 3546W        W19680  13.743  11.687  14.521  0.1786  0.3432 -0.2331
 3547W        W19681   5.686  15.432   5.700  0.1796 -0.0750 -0.1039
 3548W        W19682  11.758  16.760   5.445  0.3801  0.2461  0.2916
 3549W        W19683   7.933   6.065   2.006  0.1276 -0.2681 -0.0637
 3550W        W19684  17.337  10.752   0.329 -0.1874 -0.1419 -0.1253
 3551W        W19685  17.314   3.199  11.919  0.0338  0.3311  0.3089
 3552W        W19686   9.253  15.559   5.191 -0.0672 -0.2427  0.2844
 3553W        W19687  14.110   8.989   4.335  0.0055 -0.0758  0.0668
 3554W        W19688  10.201   5.700   2.695 -0.0161 -0.1052 -0.0205
 3555W        W19689  10.207  10.510  11.680  0.1813 -0.1828  0.0139
 3556W        W19690  13.651   2.874   3.648 -0.1732  0.2242 -0.5177
 3557W        W19691  17.191  12.193  15.193 -0.0693 -0.2851 -0.1394
 3558W        W19692   2.741   1.463   2.236 -0.1014  0.1125  0.0269
 3559W        W19693   6.434  10.160  15.893  0.0260 -0.0106 -0.1072
 3560W        W19694  17.596  15.380  15.838  0.1547 -0.2819  0.2431
 3561W        W19695  16.936  14.963   3.552  0.0698  0.1701  0.0861
 3562W        W19696  12.350  12.632  12.602 -0.2187 -0.1763 -0.0396
 3563W        W19697   4.972   1.550  14.198  0.0083 -0.1721  0.1594
 3564W        W19698   0.140   8.662   0.032  0.0280 -0.0723  0.0733
 3565W        W19699  13.325  14.779   3.168  0.2765  0.1641 -0.1300
 3566W        W19700   7.593   6.003   3.039 -0.1328  0.2366  0.1539
 3567W        W19701   6.701  16.952  12.892  0.2197 -0.1324  0.0221
 3568W        W19702   5.638   6.728  13.248  0.1998  0.0304  0.1219
 3569W        W19703   7.872   5.525   1.846  0.1356 -0.1089 -0.2394
 3570W        W19704   5.993  10.992  16.288  0.4119 -0.0126  0.1286
 3571W        W19705  17.762   9.512   3.816  0.0470 -0.1204  0.0531
 3572W        W19706  13.897  17.589   5.029  0.3339 -0.0004 -0.1794
 3573W        W19707   4.203   2.444   4.510  0.0431 -0.0661 -0.2376
 3574W        W19708   6.273  12.686  13.991  0.1249 -0.1264 -0.1156
 3575W        W19709   3.618   9.958  12.394 -0.0532  0.1298 -0.0712
 3576W        W19710   6.046   1.171   1.629 -0.0648  0.1187 -0.1398
 3577W        W19711  17.689   3.861   0.128 -0.1430 -0.0612 -0.1655
 3578W        W19712  10.806   2.305  15.919 -0.2511 -0.0513  0.1756
 3579W        W19713   2.993   5.380   4.585 -0.1713 -0.2998 -0.5360
 3580W        W19714   4.336  10.768  13.986 -0.0503  0.3515 -0.0802
 3581W        W19715  14.938   4.522  12.540  0.1085  0.1613 -0.1223
 3582W        W19716   8.954   8.870   4.653 -0.1874  0.2256  0.1035
 3583W        W19717   1.909  13.196   1.534 -0.0237  0.1583 -0.3779
 3584W        W19718   2.498   9.159   2.102  0.2864 -0.1127 -0.0099
 3585W        W19719   1.976  11.262   5.327 -0.0146  0.1335  0.1265
 3586W        W19720  15.959   0.359  13.753  0.2374  0.0848  0.0230
 3587W        W19721  16.596  11.867   3.125  0.1245  0.1319  0.1642
 3588W        W19722  17.475   2.822  15.023 -0.1386 -0.0634  0.1277
 3589W        W19723   0.490  17.623   2.227 -0.3425  0.2876  0.2465
 3590W        W19724   5.245  12.225  13.292  0.2514 -0.0372  0.3339
 3591W        W19725  16.506  17.169  16.380 -0.0339 -0.2618 -0.2116
 3592W        W19726   8.783   0.972  14.118 -0.0992 -0.1155  0.2090
 3593W        W19727   0.902   4.659   3.171 -0.0161 -0.0205 -0.2777
 3594W        W19728  16.752  13.388  14.430  0.0769  0.4680  0.0367
 3595W        W19729  17.764   9.679   5.171 -0.0360 -0.1871  0.1723
 3596W        W19730   2.074  10.519   1.909  0.1486 -0.1670  0.0514
 3597W        W19731  10.823  13.859  14.627  0.1549  0.0632  0.0028
 3598W        W19732  14.790   6.214  16.171  0.1435  0.0431  0.0111
 3599W        W19733  15.865  17.109   4.540  0.2236 -0.1544 -0.1583
 3600W        W19734   9.782   1.574   0.945 -0.0640 -0.2364 -0.1891
 3601W        W19735   6.293  11.864   2.050 -0.1697  0.0243 -0.0578
 3602W        W19736   6.622   0.767  12.752  0.0918  0.1435  0.1178
 3603W        W19737  14.492   0.247   2.818  0.3722  0.0932  0.0565
 3604W        W19738   4.772   5.257  13.329 -0.2865 -0.2765 -0.1041
 3605W        W19739   6.904   4.589   1.993 -0.3729 -0.0006 -0.1089
 3606W        W19740   6.023   2.744   1.282 -0.0751  0.1820 -0.0689
 3607W        W19741   5.301   1.935   0.545 -0.0878  0.2595 -0.1680
 3608W        W19742   1.127   0.113   3.858 -0.1493 -0.2711  0.3223
 3609W        W19743   2.408  15.336  12.801  0.1411  0.3101 -0.1386
 3610W        W19744  15.702  13.110  13.721  0.0312  0.0784  0.0651
 3611W        W19745  10.446  15.701  13.577  0.2017  0.0041  0.0460
 3612W        W19746  16.825   8.003   1.676  0.1021 -0.0574 -0.2834
 3613W        W19747  17.828   1.174  14.966  0.0713  0.0673  0.2604
 3614W        W19748   6.603   2.242   5.580  0.1676 -0.1744 -0.1659
 3615W        W19749   7.444   4.058   3.183 -0.1996  0.4206 -0.3481
 3616W        W19750  11.454  17.881  13.589 -0.4546  0.0752 -0.1210
 3617W        W19751  11.722  14.018  11.640 -0.0485 -0.1107  0.2727
 3618W        W19752   9.750  11.364  16.391  0.2853 -0.1520 -0.0729
 3619W        W19753  10.581   8.120  11.925 -0.1452  0.0988 -0.0120
 3620W        W19754  14.307  10.357   3.824 -0.1084  0.2061  0.1510
 3621W        W19755  15.290   1.855  12.616 -0.0995  0.2083  0.2114
 3622W        W19756   3.814  16.578  13.980  0.1722 -0.0535  0.0377
 3623W        W19757   4.197   6.560  11.719 -0.0085 -0.1443  0.0575
 3624W        W19758   5.559   7.398  15.731 -0.1887 -0.1633 -0.2385
 3625W        W19759   7.280  13.771  15.756  0.2899  0.2327 -0.1143
 3626W        W19760   2.594   3.520  15.755 -0.1312  0.1342  0.0075
 3627W        W19761   8.935  14.119  12.283 -0.0324  0.3099  0.1277
 3628W        W19762  17.648  10.122  16.557 -0.1870 -0.0825 -0.0157
 3629W        W19763   7.271   5.698  11.770 -0.2242 -0.2574  0.2388
 3630W        W19764   6.813   7.614  16.103 -0.3250 -0.1189  0.2438
 3631W        W19765   6.297   6.359  12.810  0.4092  0.1597  0.1229
 3632W        W19766   0.362   0.499  10.933  0.1539 -0.0885  0.2256
 3633W        W19767   4.169  14.133  14.295 -0.3281  0.0496 -0.0451
 3634W        W19768  17.447   8.276   5.044 -0.0151 -0.1769 -0.1290
 3635W        W19769   2.350   4.371   0.354 -0.1503 -0.0017  0.1374
 3636W        W19770   5.879  16.783   0.445 -0.0127  0.0186 -0.2568
 3637W        W19771   4.194  11.587   1.877  0.1431 -0.0361  0.0819
 3638W        W19772  12.309   6.430   2.450  0.1679  0.2228  0.1128
 3639W        W19773   8.226   1.076   5.018  0.1682  0.0213 -0.0973
 3640W        W19774  12.684   6.616  13.699 -0.4115 -0.0948  0.1479
 3641W        W19775   9.046   5.895  13.801  0.0571 -0.3654  0.1001
 3642W        W19776  13.590  10.154  15.342  0.0547  0.1321 -0.1946
 3643W        W19777   1.192   9.031  14.249 -0.0232  0.2079  0.0243
 3644W        W19778   4.565  10.071   2.251  0.0141  0.3565  0.3187
 3645W        W19779  15.004   0.324   3.695  0.0708 -0.0251 -0.0657
 3646W        W19780  12.702  12.658  16.407  0.1889 -0.2693 -0.0935
 3647W        W19781   6.290  10.296  13.664  0.1737 -0.2256  0.5228
 3648W        W19782   0.534   1.718  16.443 -0.0881 -0.0123  0.0405
 3649W        W19783   5.074  15.248  14.906 -0.2303 -0.3560 -0.2080
 3650W        W19784  11.575   7.248  12.243 -0.1311  0.1913 -0.2817
 3651W        W19785   5.194  11.710  14.729 -0.3661  0.0017 -0.1206
 3652W        W19786   1.760  17.191  13.287 -0.0008  0.1915 -0.0323
 3653W        W19787   8.601   9.649  16.652 -0.0629  0.0208  0.2272
 3654W        W19788   2.300   7.951  15.084  0.0761 -0.0644  0.1603
 3655W        W19789   5.230   8.027   3.624 -0.0495 -0.0705  0.1876
 3656W        W19790   3.633   3.312  14.853  0.1295  0.2864  0.3846
 3657W        W19791   1.931   9.740  16.564  0.1300 -0.0857 -0.3516
 3658W        W19792  16.648   4.312   4.958  0.1447 -0.0094  0.1698
 3659W        W19793   6.934   4.296   2.977  0.0962 -0.1769  0.1285
 3660W        W19794  10.855   9.867  11.702 -0.0401  0.0404 -0.2120
 3661W        W19795  11.856  10.693  11.126 -0.2690  0.0622 -0.2890
 3662W        W19796   0.922  17.000  11.581  0.0522 -0.1289  0.0676
 3663W        W19797   2.757   8.702  14.863  0.2517 -0.0878  0.0108
 3664W        W19798   3.834  10.519   1.179  0.3912 -0.0177 -0.2128
 3665W        W19799   3.587  11.396   0.046 -0.0270 -0.2659  0.2084
 3666W        W19800   3.568   7.698  15.394 -0.0374  0.1613  0.5241
 3667W        W19801  16.613  10.205  11.082 -0.1834 -0.2546 -0.2857
 3668W        W19802  11.114   5.918   2.215  0.1227 -0.0821  0.2351
 3669W        W19803   1.450  12.224  14.353  0.1312 -0.1508  0.0971
 3670W        W19804  16.434  12.048  12.580  0.0607  0.1366 -0.0967
 3671W        W19805   1.809   0.328   3.939  0.0372 -0.1007  0.0624
 3672W        W19806   6.731  13.216   3.061 -0.0993  0.0062 -0.1520
 3673W        W19807   8.405   9.877   0.309 -0.1175 -0.3354 -0.2598
 3674W        W19808  14.245   0.316  12.026  0.0365  0.2004 -0.1938
 3675W        W19809   5.871   3.402   0.707 -0.0044  0.2166 -0.0466
 3676W        W19810  10.560   6.510   5.685 -0.5732  0.1521  0.1138
 3677W        W19811  16.664   7.558   0.182  0.0353  0.2062 -0.0753
 3678W        W19812  15.751   6.576  15.451  0.0022  0.0399  0.1817
 3679W        W19813  13.327  10.078  13.211 -0.0136 -0.1278 -0.1777
 3680W        W19814  11.151   7.100   1.238 -0.0303  0.3481 -0.1631
 3681W        W19815  15.039  15.418  11.029 -0.0680 -0.2446  0.1594
 3682W        W19816  16.986  14.822   0.461 -0.1828  0.2596 -0.1047
 3683W        W19817   5.059   8.556  15.690 -0.1886 -0.0697  0.0058
 3684W        W19818   3.046   4.740   0.045  0.0521  0.2413 -0.1018
 3685W        W19819  14.547   4.931  11.657 -0.0287  0.0398  0.1408
 3686W        W19820   8.487   3.459   1.472 -0.0098 -0.1057 -0.1130
 3687W        W19821  11.561   6.242   0.930 -0.4658 -0.0111  0.1367
 3688W        W19822  16.782   6.380  12.747  0.0640 -0.0302 -0.2427
 3689W        W19823   0.845  13.568  13.733  0.0848  0.1595  0.0266
 3690W        W19824   2.911   5.559   2.888 -0.2366 -0.0943  0.2702
 3691W        W19825   6.055   3.648  11.822  0.2810 -0.2127  0.2414
 3692W        W19826   5.294   8.722   5.230 -0.2619 -0.4175 -0.2258
 3693W        W19827   2.748   5.838   1.019 -0.2887 -0.0944  0.0832
 3694W        W19828   1.852   3.658  12.130 -0.0223  0.1672 -0.1433
 3695W        W19829  14.676   9.535  14.511  0.1659  0.1591 -0.1298
 3696W        W19830   5.108  15.770   3.781  0.0199  0.2333 -0.3166
 3697W        W19831   3.192  15.933  13.906 -0.0229 -0.1259  0.0024
 3698W        W19832  14.208   0.196   0.215  0.1551  0.3669  0.1275
 3699W        W19833  11.524  13.364  12.646 -0.0758  0.2148 -0.3575
 3700W        W19834  17.972  15.642   1.237 -0.0761 -0.1955  0.0088
 3701W        W19835  10.104  17.356  10.292 -0.0463  0.0546  0.0054
 3702W        W19836   4.024  14.384  12.763  0.0480 -0.0561  0.0221
 3703W        W19837  10.073   2.438   1.712 -0.0026  0.0401  0.0587
 3704W        W19838  10.749  17.284   2.086  0.1138  0.2220  0.4959
 3705W        W19839   8.961   8.836  11.664 -0.2762 -0.2730  0.0680
 3706W        W19840   3.653   8.423   2.427 -0.1074 -0.1700 -0.0116
 3707W        W19841   8.020  16.891   6.399  0.1462 -0.2694  0.0756
 3708W        W19842   4.694  12.550  14.143 -0.0866  0.1298 -0.4111
 3709W        W19843  14.936   7.541  13.434 -0.0142 -0.0326 -0.1019
 3710W        W19844   9.461  15.206  13.505 -0.0235 -0.2699  0.0057
 3711W        W19845   6.076  17.311  11.789  0.2240  0.0460  0.0595
 3712W        W19846  16.627   1.124  11.507  0.2955 -0.1062 -0.0281
 3713W        W19847  13.076   0.472   0.909  0.0091 -0.1461  0.0721
 3714W        W19848   9.090   9.291  11.978 -0.2398  0.0182  0.2354
 3715W        W19849  14.071  17.901   4.636 -0.1545  0.0397  0.3107
 3716W        W19850   8.982   4.352  12.461 -0.0971 -0.1842  0.0608
 3717W        W19851   6.590   6.482   1.850 -0.0203 -0.2330  0.2004
 3718W        W19852  16.794   4.504   3.963  0.0531 -0.0508 -0.1879
 3719W        W19853   1.671   7.958   0.226 -0.1606  0.0182  0.2063
 3720W        W19854  10.188   5.693   5.522 -0.0537  0.1129  0.1109
 3721W        W19855  15.264   2.835   1.562 -0.0053  0.0361  0.1117
 3722W        W19856  12.292  17.226  11.567 -0.2543 -0.0174  0.3847
 3723W        W19857   5.336   6.199  13.910 -0.1320  0.1148 -0.0085
 3724W        W19858  11.545   4.765   4.254  0.2498 -0.3760  0.0541
 3725W        W19859   0.323   5.963   3.631 -0.2298 -0.2961  0.3267
 3726W        W19860   3.233   9.898  11.952 -0.1644  0.3048 -0.0166
 3727W        W19861   1.046   0.563   3.570  0.0223 -0.1946 -0.0294
 3728W        W19862   2.026   3.416   0.494 -0.0151  0.1041  0.1138
 3729W        W19863   3.798   0.063   4.812 -0.0988 -0.0025 -0.2212
 3730W        W19864   9.479  14.697   3.888  0.5703 -0.0387 -0.1535
 3731W        W19865  12.860   1.450  15.748  0.0166  0.1394 -0.3062
 3732W        W19866  11.335  15.484  12.577  0.0732  0.0019 -0.2992
 3733W        W19867  10.721  15.694  11.345  0.4674  0.1233 -0.3789
 3734W        W19868   9.310  11.404  12.213 -0.2219 -0.2334 -0.2414
 3735W        W19869   3.348  13.486   0.069  0.0999  0.2657  0.0475
 3736W        W19870   7.630  16.294   5.088  0.0348 -0.2400 -0.0145
 3737W        W19871  15.098  12.756   2.766 -0.0373 -0.0267  0.1678
 3738W        W19872   6.710  16.598  13.911 -0.0880 -0.0968 -0.2872
 3739W        W19873   8.152   7.883  12.658 -0.0629 -0.0803  0.1838
 3740W        W19874   1.960  13.836   2.330 -0.0928 -0.3311 -0.2146
 3741W        W19875   6.978  12.301   1.667 -0.0724 -0.1678  0.1845
 3742W        W19876   8.567   8.482  11.944  0.1735 -0.3469 -0.2686
 3743W        W19877  17.722   0.410  12.197 -0.1071 -0.2912 -0.1485
 3744W        W19878  14.519   6.979  15.081 -0.0533  0.0301 -0.0555
 3745W        W19879  14.434   0.226   3.299  0.1499  0.4068 -0.4620
 3746W        W19880   7.165  12.294  15.854 -0.0890 -0.1755  0.0630
 3747W        W19881   0.811   5.596   3.592  0.1659  0.1604  0.1407
 3748W        W19882  12.303   3.417  14.005  0.1499 -0.4417  0.0524
 3749W        W19883  17.715  12.766  14.078 -0.0671 -0.0691  0.0267
 3750W        W19884   9.657   9.942   1.275  0.0347  0.2940 -0.1955
 3751W        W19885  13.403   5.934  15.342  0.1174  0.0288 -0.1045
 3752W        W19886  16.575  14.676   0.739 -0.2005 -0.0960 -0.1609
 3753W        W19887  16.765  14.909   5.928 -0.0085 -0.2619  0.1584
 3754W        W19888   6.954  11.487  14.986 -0.3110  0.5700  0.2765
 3755W        W19889  13.807  13.805  16.204  0.1631  0.2066 -0.0428
 3756W        W19890  10.057  13.233   2.345  0.0856  0.0413 -0.2751
 3757W        W19891  11.812   6.467   4.099 -0.0434  0.0869 -0.2368
 3758W        W19892  13.460   6.285  12.754 -0.1997  0.1443 -0.1872
 3759W        W19893   6.485   5.299  14.885 -0.0069  0.0764 -0.4662
 3760W        W19894   1.202   7.763  15.864 -0.4150 -0.0525  0.1331
 3761W        W19895   4.925  10.048  12.595  0.1700  0.0330 -0.2038
 3762W        W19896   7.682  11.688  15.428 -0.1784 -0.0283  0.2134
 3763W        W19897   1.194  16.445  14.737  0.0211  0.0547 -0.2124
 3764W        W19898  15.286  14.670  14.616 -0.3374 -0.0259  0.1049
 3765W        W19899  17.181   5.143  13.779 -0.0768  0.2235  0.1642
 3766W        W19900  11.499  14.779   1.881 -0.1966 -0.0625 -0.2425
 3767W        W19901   1.128  14.804   5.284 -0.2483  0.1001 -0.1298
 3768W        W19902  10.244   2.622   5.350  0.2892 -0.0057  0.0622
 3769W        W19903  11.827   3.482   4.178 -0.0489 -0.2937 -0.0499
 3770W        W19904   4.107  12.611   5.887 -0.0818  0.1714  0.0462
 3771W        W19905  12.296   7.458  11.575  0.0661 -0.0616  0.0655
 3772W        W19906  13.814  11.018  11.969  0.1587 -0.1032  0.0307
 3773W        W19907  10.217   8.031   2.924  0.0055 -0.3837  0.1799
 3774W        W19908   6.337  16.113  13.191  0.0373 -0.0760 -0.1303
 3775W        W19909   8.778   0.840   0.677  0.3525 -0.1858  0.3281
 3776W        W19910   9.655  13.634   4.699 -0.2450  0.1001 -0.3276
 3777W        W19911   6.714   9.699  13.282  0.0800  0.0753  0.0684
 3778W        W19912   7.153   5.984   0.819  0.0734 -0.0473  0.2125
 3779W        W19913   6.001   4.381  14.074 -0.0958  0.0758  0.0054
 3780W        W19914  17.525  10.013   1.868  0.3068 -0.0325 -0.0596
 3781W        W19915   7.792  14.721   4.062 -0.0751  0.3840 -0.1195
 3782W        W19916   1.580  12.526   3.948 -0.1652  0.0139  0.0744
 3783W        W19917   6.362  15.654   3.306  0.2761 -0.0287  0.0291
 3784W        W19918  14.382   6.445  11.589  0.2183  0.1979 -0.1536
 3785W        W19919   0.262  17.650   0.090  0.0794 -0.0972 -0.0412
 3786W        W19920   3.443   0.645   1.535  0.1112  0.0854  0.0620
 3787W        W19921   1.711   1.494   3.166  0.2426 -0.0676  0.2349
 3788W        W19922   8.777  14.274   5.365 -0.0982 -0.0575  0.0626
 3789W        W19923   9.818   6.446   6.282 -0.0776 -0.0117  0.0054
 3790W        W19924  10.864  12.556  11.742 -0.0751  0.2155 -0.0515
 3791W        W19925   4.599   7.489   0.397  0.0966 -0.1481  0.0722
 3792W        W19926  12.080   8.947  16.496  0.0026 -0.2116  0.0584
 3793W        W19927  15.225   1.152   0.321  0.0453  0.0500 -0.1465
 3794W        W19928   3.817   7.566  11.136 -0.4300 -0.0283 -0.1503
 3795W        W19929  16.176   3.266  11.994  0.0601 -0.1434 -0.1519
 3796W        W19930  12.728  15.599  13.381  0.1224  0.0390 -0.1323
 3797W        W19931  14.760   6.214  12.001  0.2977  0.3024  0.0876
 3798W        W19932  15.246  15.840  13.789  0.0600  0.1142  0.0500
 3799W        W19933   2.952   0.895  13.569 -0.1999  0.4830 -0.3982
 3800W        W19934   5.385  17.498  15.391  0.0054 -0.0084  0.0129
 3801W        W19935   0.621  14.583  16.133 -0.0684  0.0578 -0.1424
 3802W        W19936  17.611  13.128   0.651 -0.0867 -0.5117  0.0369
 3803W        W19937   1.103  17.309   2.866 -0.1445  0.3612 -0.0648
 3804W        W19938   0.508   0.301  11.666  0.0318  0.1581 -0.0726
 3805W        W19939   2.329  15.594  14.676  0.3091 -0.1381 -0.1534
 3806W        W19940  17.661  11.829  11.779 -0.3531  0.1887  0.3926
 3807W        W19941  16.586  16.874  12.945  0.0284  0.0602  0.0107
 3808W        W19942   6.515   2.830   2.616  0.2083  0.0646  0.1781
 3809W        W19943  10.513  12.937  13.494 -0.2308  0.0696 -0.0749
 3810W        W19944  11.817  16.586   1.459 -0.2027 -0.5076  0.0468
 3811W        W19945  12.197   2.363   1.851  0.1056 -0.1556 -0.0201
 3812W        W19946   2.866   0.794   4.717 -0.0404 -0.2634 -0.0340
 3813W        W19947   9.732   8.158   2.531  0.0293  0.1108  0.0684
 3814W        W19948  13.094   5.034   2.869  0.1176  0.0645  0.0064
 3815W        W19949  17.231  15.011  12.610 -0.0556 -0.2324 -0.0403
 3816W        W19950   2.492   6.769   4.868  0.2135 -0.2655 -0.0375
 3817W        W19951  12.133  10.098  15.866 -0.2733  0.1187  0.0643
 3818W        W19952  10.858   1.468  14.613  0.0688 -0.0049  0.0782
 3819W        W19953  17.197  15.591   1.472  0.0098  0.0137  0.3231
 3820W        W19954  16.011  17.527  14.516 -0.2732 -0.0445  0.4234
 3821W        W19955  10.612   6.728   0.187  0.1870 -0.4486 -0.0448
 3822W        W19956   1.364   3.170   3.509 -0.0146 -0.2023  0.0163
 3823W        W19957  10.027   1.676  11.130 -0.0931 -0.0600 -0.1045
 3824W        W19958  10.932  14.202   5.284 -0.0434  0.1129 -0.0365
 3825W        W19959   2.645   3.972  16.380  0.5035  0.2364 -0.1609
 3826W        W19960   8.155  11.496   0.900 -0.0015 -0.3727 -0.1561
 3827W        W19961  11.413  16.181   4.967 -0.0615 -0.1052 -0.1445
 3828W        W19962   6.683   0.223   4.684 -0.1169  0.1978  0.1422
 3829W        W19963   4.074  11.183   3.640  0.1685 -0.1958 -0.1398
 3830W        W19964   2.887  12.530   3.337 -0.3133  0.0862  0.1625
 3831W        W19965  16.733   6.849  13.046 -0.1633 -0.0215 -0.3578
 3832W        W19966   7.461  11.022  15.001 -0.1805  0.0137 -0.0920
 3833W        W19967  11.510   9.732   0.182 -0.0359  0.1856  0.3408
 3834W        W19968   0.065  17.785  16.337 -0.0880 -0.0621 -0.0789
 3835W        W19969  13.144   3.696   3.649  0.2115 -0.0133 -0.0074
 3836W        W19970   0.698   3.791  12.359 -0.1262  0.1390  0.0709
 3837W        W19971   0.444  10.051   2.320  0.2141  0.0983 -0.0291
 3838W        W19972   5.277  11.080  14.713 -0.1380  0.2646 -0.3443
 3839W        W19973  16.344   8.328  15.466 -0.1098  0.0831  0.0534
 3840W        W19974   2.569   3.710  13.128 -0.3495  0.0247 -0.1002
 3841W        W19975   7.086   1.279   2.224 -0.2530  0.0762 -0.4126
 3842W        W19976   8.572  13.181   1.295 -0.0504 -0.1138 -0.1464
 3843W        W19977  11.122  11.396  13.128  0.2085  0.1245  0.0323
 3844W        W19978  13.861   5.576   0.832  0.1628 -0.1770  0.0253
 3845W        W19979  13.418   3.755   3.129 -0.2160 -0.5541  0.0992
 3846W        W19980   9.833   7.398  12.081  0.3148 -0.3542  0.0110
 3847W        W19981  13.865   4.104   4.967 -0.1620 -0.1455 -0.1308
 3848W        W19982  12.553   7.473   5.982  0.2363 -0.1387  0.0528
 3849W        W19983  14.694   8.407   5.132  0.1341 -0.1490 -0.0688
 3850W        W19984   0.788  15.542  11.690  0.2882  0.0748 -0.1003
 3851W        W19985   0.675  17.718  16.513  0.1864 -0.2519 -0.1023
 3852W        W19986  13.443   5.947  11.672 -0.3417  0.0582  0.0607
 3853W        W19987  16.439  10.964   1.824  0.1934  0.3097  0.2547
 3854W        W19988  12.082   5.376   4.218 -0.1382  0.0985  0.0643
 3855W        W19989   6.131  17.823   3.414 -0.0174  0.1418  0.0237
 3856W        W19990  12.156   1.707  11.480  0.0479  0.1323 -0.3625
 3857W        W19991  13.282   1.578   5.153  0.1951  0.0837  0.1056
 3858W        W19992  12.693   4.384  16.063 -0.2029  0.0618 -0.0333
 3859W        W19993  10.635   9.038  16.114 -0.1171  0.3423  0.3103
 3860W        W19994   6.148  11.838   4.196  0.0363  0.2812  0.0319
 3861W        W19995  10.525  12.142  13.280 -0.2688 -0.1539 -0.1216
 3862W        W19996   0.120   8.366   1.506  0.0113 -0.0640 -0.2966
 3863W        W19997  15.654   7.478   3.137  0.0146 -0.0487 -0.1534
 3864W        W19998   8.922  13.313   3.056  0.4477 -0.0077  0.1522
 3865W        W19999   4.071  15.656  14.127 -0.0303 -0.1886 -0.0071
 3866W        W20000   4.892   0.092   0.193  0.3461  0.1653  0.0554
 3867W        W20001   5.819  13.447  11.483  0.2561 -0.0488 -0.2193
 3868W        W20002  11.720  15.745  11.482  0.3246  0.0955  0.3336
 3869W        W20003   3.323  15.313  13.768  0.0435 -0.4026 -0.3102
 3870W        W20004   4.279  15.641  16.504  0.2748 -0.2251 -0.0534
 3871W        W20005  16.998   1.739   5.446  0.1568 -0.1868 -0.1759
 3872W        W20006  14.381   6.131   1.519 -0.1510 -0.1738 -0.1164
 3873W        W20007   0.047   5.019   5.021  0.2570 -0.0724  0.3119
 3874W        W20008  13.807  12.019   2.463 -0.1627 -0.1538 -0.0189
 3875W        W20009  10.223  14.786  16.057 -0.1522 -0.0063 -0.1694
 3876W        W20010   2.128  10.620  14.852  0.2664 -0.0202 -0.2146
 3877W        W20011   0.265  15.221  12.725 -0.1328 -0.0819  0.1508
 3878W        W20012  15.335   4.908   1.805 -0.2987 -0.0555  0.0635
 3879W        W20013   1.839   2.471  12.344  0.1034 -0.0315 -0.2159
 3880W        W20014  11.912   3.485  13.664  0.2886  0.3259  0.0459
 3881W        W20015  13.896   9.145   1.888  0.0451  0.0044 -0.0482
 3882W        W20016  17.896  16.586   6.010  0.3207 -0.0364  0.1534
 3883W        W20017   6.326   2.505  14.094 -0.1852 -0.1631 -0.0430
 3884W        W20018   1.950  17.256  12.847  0.2927 -0.4110 -0.0977
 3885W        W20019   6.642  10.896   4.279  0.0530  0.0181  0.5318
 3886W        W20020   6.937  10.631   1.698  0.0631 -0.1865 -0.0872
 3887W        W20021  15.777   2.731  14.183  0.0161  0.1525  0.0538
 3888W        W20022  11.109   1.662  12.668 -0.3665 -0.1534  0.0294
 3889W        W20023  16.174  17.701   5.374 -0.2749 -0.0467 -0.0196
 3890W        W20024   6.384   2.673   5.269  0.1705  0.2837  0.2589
 3891W        W20025   8.802  15.964   5.424 -0.0420  0.0770 -0.0670
 3892W        W20026   7.633   6.626  12.672 -0.0820  0.0460 -0.1944
 3893W        W20027   7.891  11.434  12.119  0.1376  0.0736  0.0517
 3894W        W20028   0.534   8.460  11.691 -0.0657  0.3050 -0.0077
 3895W        W20029  13.908  13.892   5.117  0.2667  0.0868 -0.0832
 3896W        W20030  17.681   7.874   5.776  0.1588  0.0278  0.1449
 3897W        W20031   5.181  10.253   1.521  0.2614  0.0868  0.1410
 3898W        W20032  15.579   2.527   2.525 -0.1823 -0.0110 -0.2034
 3899W        W20033   2.128   9.809   3.738  0.0435  0.3271 -0.1090
 3900W        W20034   7.910   7.760   0.580  0.3312 -0.0613  0.1793
 3901W        W20035  10.531  15.631   2.890  0.0335 -0.0089  0.1364
 3902W        W20036   2.511  17.941   3.564 -0.0710 -0.0459  0.2024
 3903W        W20037  14.537   9.510  11.548  0.0876  0.2903 -0.0205
 3904W        W20038  15.900   7.727  13.631 -0.2561 -0.0725  0.1277
 3905W        W20039   3.707  14.167   3.716  0.0197 -0.0960  0.0021
 3906W        W20040  14.471   3.947  12.561 -0.0137  0.1129 -0.4151
 3907W        W20041  10.745   2.841  12.993  0.2477 -0.0963 -0.1925
 3908W        W20042  13.671  11.310   4.858 -0.0757  0.0045  0.0295
 3909W        W20043  12.945  12.782   5.073 -0.1587 -0.5510 -0.1098
 3910W        W20044   3.210   9.419  14.639 -0.3020  0.0963 -0.3480
 3911W        W20045  13.883   7.092  14.557 -0.0260 -0.1039  0.0518
 3912W        W20046  14.296   1.681   2.067 -0.1152  0.1738 -0.0827
 3913W        W20047   5.930   0.559   5.399  0.2300  0.1896  0.0673
 3914W        W20048   7.465   0.205   5.849  0.2033  0.1576  0.0123
 3915W        W20049   3.381   3.342  15.414 -0.0426 -0.2232 -0.0431
 3916W        W20050  10.704  17.372  14.626  0.0784  0.0846  0.1719
 3917W        W20051   1.190  10.631   0.236  0.1781  0.1170 -0.0760
 3918W        W20052  11.627  11.760  13.669  0.1564 -0.3272 -0.0221
 3919W        W20053   7.045  10.503   0.635  0.2204  0.1410  0.0726
 3920W        W20054  11.345  17.300   2.647  0.1299 -0.0374  0.4107
 3921W        W20055   9.880   4.364   4.273 -0.2255  0.0152 -0.4028
 3922W        W20056   7.039  13.322  10.952  0.0882  0.2858 -0.0138
 3923W        W20057  12.456   1.625  13.435  0.1052  0.3564 -0.0408
 3924W        W20058  16.930   5.166  13.075 -0.0687  0.0931  0.0909
 3925W        W20059   0.010  17.109  16.289 -0.2911  0.0782 -0.3406
 3926W        W20060   7.144   3.906  14.774  0.1744  0.1452 -0.5611
 3927W        W20061  17.980   1.620   3.373 -0.2234  0.0088  0.0045
 3928W        W20062   9.668   2.874   4.724 -0.2502  0.1958  0.1001
 3929W        W20063   0.298  12.803   4.040 -0.1279 -0.0752 -0.0537
 3930W        W20064  15.547   3.028  13.729  0.1358 -0.2608  0.1363
 3931W        W20065   3.037   6.292  14.771 -0.0655  0.0336 -0.3389
 3932W        W20066   2.125   1.461  14.215  0.1653  0.0712  0.0023
 3933W        W20067  10.906   2.815   1.546 -0.1516  0.1991  0.1917
 3934W        W20068  11.871   2.638  11.850 -0.2009  0.1102 -0.2127
 3935W        W20069   1.361   0.500   1.973 -0.1966 -0.0017  0.0629
 3936W        W20070   9.948  13.032   5.472 -0.1150  0.0125  0.0136
 3937W        W20071   3.913   7.259  14.403  0.0972 -0.1418 -0.4021
 3938W        W20072   5.018  11.894   2.118 -0.1590 -0.2973  0.2894
 3939W        W20073  10.592   5.986  12.557  0.1972  0.3931  0.2452
 3940W        W20074   8.315   1.917   2.388  0.2403  0.1562  0.1310
 3941W        W20075  14.824   1.239   3.522 -0.0233  0.2047  0.1362
 3942W        W20076  16.727  13.911   5.836  0.0615 -0.1173  0.0761
 3943W        W20077   8.265   8.485   4.017  0.0013 -0.0215  0.0645
 3944W        W20078   3.590  11.996  13.807  0.1883  0.2089  0.3677
 3945W        W20079   0.457   7.331   2.810 -0.0197 -0.1102  0.1317
 3946W        W20080  12.833  10.999  14.681 -0.1531  0.2042 -0.1262
 3947W        W20081   1.685   1.045  10.552 -0.2993 -0.1834  0.0023
 3948W        W20082  12.063  11.738  13.397 -0.0242  0.0509 -0.0479
 3949W        W20083  13.001   3.739   4.648 -0.1685  0.2802 -0.1021
 3950W        W20084   3.315   9.079   5.484  0.3556 -0.1466  0.6549
 3951W        W20085  12.429  10.997   4.390  0.0892 -0.1131  0.3035
 3952W        W20086   9.434   6.871  11.903 -0.0010 -0.0259 -0.1031
 3953W        W20087  14.545   1.440   5.000 -0.1103  0.0739 -0.0349
 3954W        W20088   2.993  15.030  15.499  0.3649  0.1774  0.4072
 3955W        W20089  10.897  16.451   4.200  0.0527  0.3530  0.0318
 3956W        W20090   3.750  15.967  14.457 -0.0169 -0.1974  0.1755
 3957W        W20091   5.993   2.788  12.455  0.0455  0.1057 -0.0493
 3958W        W20092   6.421   0.564   2.529  0.1831  0.0332  0.2169
 3959W        W20093   0.695   1.978   4.015 -0.1857  0.0452  0.1921
 3960W        W20094  16.002   6.127   2.424 -0.2004 -0.0430  0.1932
 3961W        W20095   3.134  17.404   1.234  0.0178 -0.1663 -0.3598
 3962W        W20096  17.639  10.606  13.410  0.2295  0.1700 -0.1182
 3963W        W20097   4.490  10.133  15.889 -0.1040  0.3578  0.3819
 3964W        W20098   1.264   9.110   4.539 -0.2117 -0.1371  0.2569
 3965W        W20099  13.098  15.904  16.561 -0.1876 -0.4541  0.2914
 3966W        W20100   2.967   4.627  15.332 -0.1719  0.0028 -0.1963
 3967W        W20101  11.930   7.476  15.926 -0.1730  0.2002 -0.3430
 3968W        W20102  13.449  16.811   3.661 -0.1118 -0.2017  0.3973
 3969W        W20103   4.346  15.130  13.378 -0.0556  0.0939 -0.0527
 3970W        W20104  15.069  10.095   2.913 -0.0864  0.0486  0.1835
 3971W        W20105  13.487  12.020  11.721 -0.1001 -0.0592  0.0799
 3972W        W20106  10.867  11.144  15.789 -0.0781  0.3255 -0.0389
 3973W        W20107  13.059   8.607  16.075  0.1294  0.0377 -0.0417
 3974W        W20108   7.860   7.475  14.775  0.1157  0.3140  0.0153
 3975W        W20109   3.777  17.769   5.239  0.4157 -0.2239  0.4119
 3976W        W20110  13.529   0.851  15.796  0.1454 -0.2984  0.1391
 3977W        W20111  13.140   2.403  14.252 -0.1187  0.0447  0.0655
 3978W        W20112  16.713   0.592  15.946 -0.0943 -0.0308 -0.2321
 3979W        W20113  13.577   8.829   3.625  0.0151 -0.2854 -0.0455
 3980W        W20114   2.314  12.948  16.147 -0.0613  0.0538 -0.1040
 3981W        W20115   5.027  15.347  11.573 -0.0559  0.1346  0.0536
 3982W        W20116   4.983  11.212  12.641 -0.0466  0.0397 -0.0393
 3983W        W20117   7.843   6.930   2.222 -0.2283 -0.1381  0.1482
 3984W        W20118  11.950  16.581   4.172  0.1031 -0.0023  0.0225
 3985W        W20119   4.539   8.404   4.861  0.0986 -0.1474  0.3280
 3986W        W20120  17.193   0.507   3.371 -0.1591  0.1217  0.0323
 3987W        W20121  12.496  16.610  16.418  0.0642  0.1101  0.0583
 3988W        W20122   6.323   4.244  16.252 -0.0813 -0.3189 -0.1547
 3989W        W20123  16.224  13.809  13.142 -0.0117  0.0382  0.2470
 3990W        W20124   1.889   0.736   4.781  0.0609  0.1940  0.1422
 3991W        W20125  11.001   9.577   4.666  0.0681 -0.2782 -0.0412
 3992W        W20126   0.906   2.967  16.023  0.1086  0.2437  0.2511
 3993W        W20127  11.134  17.793   1.430  0.0016 -0.1270 -0.1013
 3994W        W20128   2.780  16.881  15.782 -0.2644 -0.0618  0.3058
 3995W        W20129   0.393  12.652  10.759  0.1837 -0.1945  0.1127
 3996W        W20130   4.097   2.199  11.673  0.0478  0.1725  0.2799
 3997W        W20131   7.276   5.628  12.297  0.1147 -0.1277 -0.1708
 3998W        W20132   6.442   5.429  13.794  0.2751 -0.1151  0.2589
 3999W        W20133   7.946   7.415  11.659  0.0465  0.2951  0.3388
 4000W        W20134   7.912  17.918  14.913 -0.0709 -0.1257 -0.1530
 4001W        W20135   7.699   5.213  15.897 -0.0235 -0.0891  0.1044
 4002W        W20136  12.129   3.164   4.926 -0.3431  0.2566  0.2867
 4003W        W20137   8.399   4.412   0.927  0.0624  0.1109 -0.0534
 4004W        W20138   1.683   3.545  16.013  0.1071 -0.1112 -0.2627
 4005W        W20139  15.195   1.029  13.552 -0.0085 -0.1009 -0.1992
 4006W        W20140  12.481  11.549  14.161  0.0199  0.2133  0.2857
 4007W        W20141   8.738  16.424   4.673  0.0844 -0.1303 -0.1054
 4008W        W20142   9.542   2.206  15.223 -0.2570 -0.1189 -0.0238
 4009W        W20143  14.659  15.681  15.783 -0.0328 -0.0626  0.1241
 4010W        W20144  11.878   1.908   1.788 -0.0723  0.0934  0.3544
 4011W        W20145  14.062  11.997   4.644 -0.3240 -0.0725 -0.0484
 4012W        W20146  11.752  14.447   6.202 -0.3864  0.0100  0.1701
 4013W        W20147  16.253  17.678   4.408 -0.1171  0.0621  0.0287
 4014W        W20148   0.659  15.252   3.644  0.1321  0.0766  0.0409
 4015W        W20149  10.193  10.574   0.069  0.1415 -0.3717 -0.1217
 4016W        W20150   0.879   7.879  16.322  0.0115  0.1869 -0.0078
 4017W        W20151  11.507  17.496  11.318  0.2282 -0.2093  0.1937
 4018W        W20152  16.428   9.366  15.979 -0.0226  0.1144 -0.1706
 4019W        W20153   6.889   2.465   3.001  0.0208  0.1832 -0.2002
 4020W        W20154   7.563   5.828  16.059  0.0686 -0.1371  0.2363
 4021W        W20155  17.919   4.521  12.438  0.3165  0.0432 -0.1234
 4022W        W20156   0.216  11.565  12.557  0.0780  0.0232 -0.1177
 4023W        W20157   8.747  11.818   1.516 -0.2118 -0.0374 -0.0814
 4024W        W20158   3.777  17.500  14.249 -0.2956 -0.1604 -0.2074
 4025W        W20159  13.886   1.244  12.205 -0.0267 -0.0393 -0.0958
 4026W        W20160  10.613   4.152  14.875  0.2878  0.0249  0.0102
 4027W        W20161   7.725  14.765  12.654 -0.0038  0.0329  0.0109
 4028W        W20162   3.062  17.697   4.441 -0.0812  0.0764  0.1111
 4029W        W20163  10.907  16.265   1.664 -0.4671  0.2098 -0.0796
 4030W        W20164   9.854  10.910  16.618  0.0975 -0.0821  0.2008
 4031W        W20165  16.033  15.443   2.315  0.2125  0.0738 -0.0912
 4032W        W20166   3.831   5.647   5.847 -0.1537  0.1825 -0.1219
 4033W        W20167   9.675   3.448   4.048 -0.1241 -0.0695 -0.1220
 4034W        W20168  14.863  12.557  13.973  0.4079 -0.1205  0.1992
 4035W        W20169  17.163   1.077  11.274  0.2315 -0.1276  0.2194
 4036W        W20170   1.657   5.840  11.660  0.0558  0.0190 -0.2008
 4037W        W20171   8.999   1.009  16.037  0.1648  0.1649  0.2906
 4038W        W20172  14.219  10.147   1.066 -0.1127 -0.3050  0.0472
 4039W        W20173  11.094   0.723  13.479 -0.0041 -0.2471 -0.4058
 4040W        W20174   4.219   6.050  13.764  0.1597  0.0661  0.0590
 4041W        W20175   0.092   6.828  13.788  0.3798 -0.0969  0.1602
 4042W        W20176   1.436   3.921  12.614  0.1122 -0.1855 -0.2849
 4043W        W20177  17.589  16.656   3.467 -0.2092  0.1026 -0.0358
 4044W        W20178  13.812   5.221   4.577 -0.0617  0.1927 -0.2781
 4045W        W20179   6.348   5.662  15.720  0.2425  0.1141  0.1180
 4046W        W20180  13.080   1.727   3.420 -0.2722  0.0892 -0.0419
 4047W        W20181  10.678  16.944   0.517  0.3678  0.1167  0.1897
 4048W        W20182   3.390   9.841  11.089  0.0993 -0.0275 -0.1567
 4049W        W20183  15.697  13.232   4.442 -0.1789  0.0200  0.1897
 4050W        W20184   8.974   0.286   1.675  0.2841  0.2918 -0.2599
 4051W        W20185  17.144   6.931  15.325 -0.0251 -0.1891 -0.1318
 4052W        W20186   8.363  10.956   5.754 -0.2456  0.0352 -0.0188
 4053W        W20187   9.892   0.402   2.069 -0.3001  0.1378  0.0248
 4054W        W20188  12.837   9.006  12.428  0.0149 -0.1421  0.0145
 4055W        W20189   5.717  15.433  15.046 -0.0946  0.1722 -0.1457
 4056W        W20190  14.144  17.240  13.534  0.0674 -0.1697 -0.0826
 4057W        W20191  14.862   1.343  12.066  0.2839 -0.1081 -0.0903
 4058W        W20192  12.402   8.266   2.552  0.1322  0.0435 -0.1607
 4059W        W20193  14.100   9.862  13.455 -0.0634 -0.0617 -0.0311
 4060W        W20194  12.107   7.979  16.081  0.1964  0.0695 -0.1709
 4061W        W20195   7.745   1.894   2.647 -0.2245 -0.0286 -0.3145
 4062W        W20196  10.611   9.480  14.239 -0.3865  0.0642 -0.2918
 4063W        W20197  13.832   5.225  14.860 -0.1636  0.4377  0.0982
 4064W        W20198   6.747   2.742  11.837  0.0825 -0.2041  0.0297
 4065W        W20199  13.329  11.903  14.247  0.3848  0.3524  0.0646
 4066W        W20200   4.521   0.226   4.287 -0.0639  0.0810 -0.0135
 4067W        W20201   3.121   9.038   1.401 -0.1963  0.1987  0.3582
 4068W        W20202   5.877  12.400  12.982 -0.2400 -0.0445 -0.0116
 4069W        W20203  11.365   6.608   3.851 -0.0617  0.1001  0.3567
 4070W        W20204   2.363   7.995   0.119 -0.0435  0.0135  0.3151
 4071W        W20205   5.507   6.079   5.579  0.1821 -0.1911  0.1394
 4072W        W20206   0.660  13.857   3.218 -0.0543  0.1254 -0.2844
 4073W        W20207  10.156  14.371   3.482  0.0224 -0.1316 -0.1198
 4074W        W20208   7.972   7.536   2.287  0.0261 -0.1079  0.0902
 4075W        W20209   1.906  12.617  15.162 -0.4601 -0.1751 -0.0328
 4076W        W20210  13.212  13.808   2.520 -0.3012  0.0032  0.1066
 4077W        W20211  13.981   6.350   2.409  0.1816  0.1314  0.1011
 4078W        W20212  12.370   1.466   2.220  0.1328  0.2826 -0.1628
 4079W        W20213   1.337   8.033   3.793 -0.2240  0.0603  0.0054
 4080W        W20214  16.607  16.809  11.962 -0.1583  0.1048 -0.3549
 4081W        W20215  17.179   4.050  15.339  0.0756  0.2567 -0.0183
 4082W        W20216  16.711  14.718  14.339  0.1199  0.2251  0.0697
 4083W        W20217   1.817  17.114   0.868  0.0776 -0.2002  0.2166
 4084W        W20218   3.765  12.068  13.339 -0.1519  0.0787 -0.1554
 4085W        W20219   3.348  13.499   5.631  0.2424 -0.1820 -0.1515
 4086W        W20220   3.421   5.995   0.778  0.0697  0.3163 -0.2872
 4087W        W20221  14.020  16.346  16.159  0.1279 -0.2170  0.2903
 4088W        W20222  17.624   7.969   2.144 -0.2217 -0.0357  0.0165
 4089W        W20223   0.961   6.233   2.366 -0.0602 -0.1233  0.2798
 4090W        W20224   9.471  14.290  12.958  0.0266  0.0871 -0.2679
 4091W        W20225  13.094   1.856  15.100  0.2700 -0.0038 -0.0787
 4092W        W20226   9.699  16.537   4.375 -0.1442  0.2694 -0.1901
 4093W        W20227  13.852   5.346   5.293 -0.2921 -0.0896  0.1655
 4094W        W20228   1.548   1.961   5.267 -0.1289  0.1500  0.0405
 4095W        W20229   3.277   0.606   0.005  0.2897 -0.0496  0.1396
 4096W        W20230   4.112   0.045  11.575 -0.0822 -0.2282 -0.0385
 4097W        W20231   0.106  11.585   4.597  0.0180 -0.1208  0.2527
 4098W        W20232   8.156  15.274   3.927 -0.1053  0.2646 -0.3547
 4099W        W20233  15.733  16.390   6.646 -0.1884 -0.0828 -0.2932
 4100W        W20234   2.361   2.541   4.473  0.1854 -0.0562  0.0077
 4101W        W20235   6.957   6.156   1.766  0.0581  0.0471 -0.0651
 4102W        W20236   9.882   1.651  12.821  0.2264  0.2362  0.2101
 4103W        W20237   8.696  17.833  13.700  0.3455 -0.0554 -0.1007
 4104W        W20238   7.166   0.749   0.813 -0.0692 -0.0756  0.1413
 4105W        W20239   4.563   8.195  12.549  0.0274  0.0513 -0.0738
 4106W        W20240  16.274  11.410   2.941  0.0364  0.1164 -0.0273
 4107W        W20241   2.964  17.392  11.590  0.2814 -0.0392  0.2942
 4108W        W20242   5.322  12.835   2.935 -0.0382 -0.1849  0.1548
 4109W        W20243   1.994  12.329   1.101 -0.0153  0.2672 -0.1632
 4110W        W20244   6.765   6.442  15.892 -0.0659 -0.0452 -0.1783
 4111W        W20245   9.647  14.909   2.089 -0.2328 -0.0270 -0.1479
 4112W        W20246  17.143   6.238   3.616 -0.0751 -0.3222  0.1318
 4113W        W20247   1.685  10.109   0.864 -0.2657 -0.1637  0.0722
 4114W        W20248   0.179   9.112   4.575  0.2611  0.0178  0.1577
 4115W        W20249  16.407   6.115   5.575  0.0289  0.2110 -0.3135
 4116W        W20250  10.904  16.996   2.466 -0.1908 -0.2054  0.1170
 4117W        W20251   7.194   9.654  16.284 -0.2520  0.1321 -0.1776
 4118W        W20252   3.986   7.663   5.426  0.3185  0.0944  0.5406
 4119W        W20253   5.622   9.565   3.588 -0.3537  0.1174 -0.3020
 4120W        W20254   1.291   9.513  15.918 -0.3964  0.0235 -0.1029
 4121W        W20255  10.943   2.721   0.548  0.0354 -0.1058  0.0857
 4122W        W20256  12.038  17.608  12.300  0.4184 -0.0533 -0.0145
 4123W        W20257  13.228  12.662   3.409  0.1047 -0.0901  0.1117
 4124W        W20258   8.876   9.293   1.231  0.0733 -0.1997  0.2633
 4125W        W20259   0.765  16.076  14.309  0.5072 -0.0594  0.1620
 4126W        W20260  16.296   7.596   4.653  0.1716  0.0915 -0.2411
 4127W        W20261   5.561  16.997  10.981 -0.1112  0.0773  0.1069
 4128W        W20262  15.337  13.665  15.688 -0.0998 -0.0425  0.1807
 4129W        W20263  10.685   1.882  12.099  0.0647 -0.1153  0.0050
 4130W        W20264  14.176   1.170  16.657  0.0164  0.1023  0.1694
 4131W        W20265   6.591   8.417   4.062  0.0933 -0.0910  0.1867
 4132W        W20266   3.801   1.317   5.501 -0.3709 -0.1416 -0.1189
 4133W        W20267   8.250   0.039  13.372  0.5958  0.1445  0.1071
 4134W        W20268  12.063   9.088  11.429  0.0225 -0.0564 -0.1006
 4135W        W20269  13.703   7.262  15.498 -0.0078  0.1395 -0.1109
 4136W        W20270   1.579  11.717  12.131 -0.1778  0.2072 -0.1145
 4137W        W20271  12.780   8.666  12.853 -0.4030 -0.0464  0.2381
 4138W        W20272  13.726  14.174  15.067 -0.0679 -0.1116  0.1504
 4139W        W20273  16.223   0.624  12.048  0.0129 -0.1880  0.1136
 4140W        W20274   7.888   2.188  13.652 -0.0006 -0.1069  0.2092
 4141W        W20275   4.896  15.885  16.473 -0.0752  0.2776 -0.0192
 4142W        W20276  17.778  13.980   1.173 -0.2640  0.0653  0.0642
 4143W        W20277  12.295   5.787  16.714 -0.1851 -0.2084  0.1158
 4144W        W20278  14.096   8.213   0.281  0.3287 -0.3228 -0.2097
 4145W        W20279  14.310  14.661  15.789 -0.3015  0.0321 -0.1750
 4146W        W20280   8.798   1.325   1.970 -0.2566  0.3137  0.0054
 4147W        W20281   9.967   0.864  11.868 -0.3247  0.0799 -0.3383
 4148W        W20282   6.829   7.649  12.539  0.3083  0.1721 -0.0027
 4149W        W20283   5.105  17.747  13.703 -0.0453  0.3170 -0.2528
 4150W        W20284   7.995  12.099  14.755 -0.2089  0.0776  0.0908
 4151W        W20285   5.253  15.554   3.373 -0.0432 -0.1381  0.1875
 4152W        W20286   4.156  17.148  14.839 -0.0763 -0.0948  0.0665
 4153W        W20287  16.104   6.911  15.350 -0.0873  0.0004 -0.2217
 4154W        W20288  12.664  17.260  15.720  0.0476 -0.0567  0.1343
 4155W        W20289   6.428   1.779   4.202 -0.1092 -0.1963 -0.0819
 4156W        W20290   1.982   4.634  13.533 -0.0520  0.2555  0.1641
 4157W        W20291  11.939   2.326   3.438  0.0529  0.2319 -0.1186
 4158W        W20292   5.082  13.194   2.624  0.2097 -0.3291 -0.2038
 4159W        W20293  10.229  11.028  13.451  0.3137 -0.1215  0.1521
 4160W        W20294   8.303   5.517   5.416  0.3457 -0.3034  0.0000
 4161W        W20295  17.499  17.104  11.714  0.1648 -0.0296  0.0843
 4162W        W20296   2.261   3.502  14.795  0.0708  0.2009 -0.0556
 4163W        W20297  11.776   1.748   0.432 -0.0683  0.0809 -0.0649
 4164W        W20298  15.395   5.242   3.643  0.3130  0.2227 -0.3698
 4165W        W20299   2.281   2.524   1.112  0.0423 -0.0110 -0.4748
 4166W        W20300   1.752  12.503  14.659  0.2008 -0.0969 -0.1869
 4167W        W20301   5.347   9.722   2.429 -0.0481  0.1056  0.2022
 4168W        W20302   0.235  12.366  14.766  0.1161  0.0365  0.1396
 4169W        W20303  14.030  14.952   2.278  0.0817 -0.1945 -0.1385
 4170W        W20304  17.558   6.109   3.828 -0.0507  0.0498  0.0997
 4171W        W20305  14.956   2.066  14.550 -0.4250 -0.3172 -0.0613
 4172W        W20306  16.934   8.263  11.374  0.0499 -0.0615  0.1578
 4173W        W20307   3.230   8.105   1.580  0.1932  0.1307  0.1694
 4174W        W20308  10.900  17.822  13.891 -0.0438  0.3989 -0.2550
 4175W        W20309   4.997   9.008  15.237  0.0315 -0.0513  0.0878
 4176W        W20310   7.325  11.909  10.915 -0.5387 -0.0123  0.0565
 4177W        W20311  16.934   9.219   0.157 -0.2345  0.1884 -0.0113
 4178W        W20312  14.522   8.266  14.769 -0.2865  0.0484  0.0988
 4179W        W20313   6.919  17.818   5.848 -0.1458 -0.1035 -0.0242
 4180W        W20314  12.506  14.767   4.793 -0.1420  0.0525 -0.2467
 4181W        W20315   0.465  15.019  15.515  0.2064  0.0702 -0.1332
 4182W        W20316  10.030   7.184  15.311 -0.2888 -0.2376  0.0554
 4183W        W20317  12.482  17.392  14.238  0.1270  0.0334 -0.1934
 4184W        W20318  14.682  10.441   4.135  0.0440 -0.0733  0.0433
 4185W        W20319   5.717   4.167  13.082  0.0262 -0.0165  0.0752
 4186W        W20320   5.125  17.474   5.358 -0.0200  0.0577  0.0261
 4187W        W20321   4.406   9.000  12.735 -0.0383  0.1958  0.2451
 4188W        W20322   1.760   3.214   2.088  0.1250 -0.0459 -0.1400
 4189W        W20323   7.103   0.285  12.678  0.1665 -0.3716 -0.0735
 4190W        W20324   8.305  14.422   3.330 -0.0817 -0.0413 -0.2792
 4191W        W20325  17.173   0.360  13.148 -0.1429 -0.0527 -0.0800
 4192W        W20326   0.218   1.613   4.686 -0.0534  0.1712  0.0598
 4193W        W20327  16.473   1.528   0.848  0.0352 -0.1280  0.0962
 4194W        W20328   3.998  16.615   0.533 -0.0839 -0.0364 -0.1879
 4195W        W20329   4.431  14.652   3.832  0.0972  0.2109 -0.2249
 4196W        W20330   6.688  16.608   2.505 -0.0217 -0.3303 -0.1245
 4197W        W20331  15.440  14.208  15.539 -0.0613  0.0841  0.3744
 4198W        W20332  17.662   4.611   1.645 -0.0952  0.1043  0.0569
 4199W        W20333  12.905   3.457   1.734 -0.1942 -0.5620 -0.3983
 4200W        W20334   7.189  13.042   2.588  0.1386 -0.0326  0.1307
 4201W        W20335   1.344  16.249  16.577 -0.1676  0.0884 -0.0458
 4202W        W20336  14.861  15.491   0.708 -0.0597 -0.2683  0.1407
 4203W        W20337   7.687  10.700   5.329  0.1089  0.2234 -0.2070
 4204W        W20338   2.455  16.883   2.325  0.5016 -0.0606  0.1604
 4205W        W20339  11.988  14.499  12.272  0.2670  0.3813  0.1435
 4206W        W20340   3.339   4.487  13.328 -0.0608 -0.1682  0.3074
 4207W        W20341   0.946   1.924  15.057 -0.0399 -0.0673 -0.1066
 4208W        W20342  10.370   7.180  15.670  0.2350 -0.3643  0.0787
 4209W        W20343   8.366  10.132   1.003 -0.1420  0.1825  0.0757
 4210W        W20344   6.680  12.966  11.028  0.0073  0.1051  0.1181
 4211W        W20345  13.367   8.529  15.707  0.2422  0.1422  0.0882
 4212W        W20346   9.969  13.713  16.265 -0.0014  0.1506 -0.4323
 4213W        W20347  12.708   8.217  12.478 -0.3650 -0.2682 -0.0986
 4214W        W20348  14.796   1.403   4.509 -0.1010  0.0608 -0.1036
 4215W        W20349   6.229   3.305  13.987 -0.2001  0.2143 -0.0270
 4216W        W20350   6.569  11.954   1.635  0.2035 -0.2427 -0.2990
 4217W        W20351  12.751   2.054   5.631  0.0189 -0.0141 -0.0267
 4218W        W20352   9.907  11.008   1.950 -0.0006 -0.0761 -0.0435
 4219W        W20353   4.422  10.904   2.595 -0.2007 -0.2894  0.0730
 4220W        W20354   3.877  12.268   3.596  0.1583 -0.0865  0.0669
 4221W        W20355   3.719   0.322   4.444 -0.2133  0.1222  0.1424
 4222W        W20356   7.493  10.452  11.315 -0.1196  0.1289  0.2236
 4223W        W20357   7.158   2.519   1.993 -0.0117 -0.0807  0.1160
 4224W        W20358   1.574  13.104   4.229 -0.0591 -0.1516  0.1463
 4225W        W20359  14.606   1.080  15.351  0.4082 -0.0826  0.0990
 4226W        W20360  15.686   5.083   5.341  0.0729 -0.0546 -0.1678
 4227W        W20361   6.366   9.236   2.347 -0.0255 -0.1751  0.3022
 4228W        W20362  14.112  11.091   3.654 -0.1852  0.2874  0.1532
 4229W        W20363   9.181  16.316   5.592  0.1955 -0.2547  0.1986
 4230W        W20364  16.737   4.538  11.993 -0.0796 -0.4432 -0.0666
 4231W        W20365   4.176   7.809  16.604 -0.1863 -0.0888  0.1805
 4232W        W20366   1.208  12.389  15.892 -0.1346  0.1302 -0.1454
 4233W        W20367   4.422   5.835  11.239 -0.1196 -0.1479  0.2506
 4234W        W20368   2.179   8.173  12.788  0.1893  0.0071  0.0827
 4235W        W20369  12.296  15.604  15.565  0.0307 -0.0216 -0.1018
 4236W        W20370  12.341  11.472  11.487 -0.0260  0.1283  0.0450
 4237W        W20371  15.215   6.435   0.442  0.1698 -0.0764 -0.0429
 4238W        W20372  14.220  10.873  15.546 -0.0647 -0.1186 -0.0774
 4239W        W20373   0.528   4.198   1.758  0.2452  0.0564 -0.1510
 4240W        W20374  12.627   7.742  16.060 -0.0764  0.0939 -0.0102
 4241W        W20375   6.956   3.741  16.078 -0.0187 -0.1891 -0.0517
 4242W        W20376   1.183   7.589   0.785  0.2470  0.0492 -0.0985
 4243W        W20377  13.239   8.046   0.960  0.0151 -0.1946 -0.0365
 4244W        W20378   4.532  17.963   6.002  0.0258 -0.3863 -0.1469
 4245W        W20379   2.252   4.154   5.995 -0.2849 -0.2139 -0.0291
 4246W        W20380  16.472   8.167  14.244  0.0903  0.1484 -0.0343
 4247W        W20381  10.773   4.833   5.392  0.3200  0.2439  0.0335
 4248W        W20382   7.975   8.226   2.084  0.1453  0.1693  0.2816
 4249W        W20383  11.307  17.851  11.627 -0.0806  0.2383 -0.1917
 4250W        W20384   0.917  11.887   0.478 -0.3260 -0.1951  0.0411
 4251W        W20385  13.541  12.814  12.006  0.0168 -0.2929 -0.0748
 4252W        W20386  11.147  11.686  11.871 -0.1355  0.0390 -0.2055
 4253W        W20387   4.433   9.314   6.091  0.1317  0.0885  0.0194
 4254W        W20388   1.168  10.127  11.218 -0.2669  0.1367  0.0478
 4255W        W20389   9.015  12.580  11.741 -0.1177 -0.1963 -0.1829
 4256W        W20390  17.055  15.876   3.225  0.2575  0.0085 -0.3919
 4257W        W20391  14.075   4.468   4.014 -0.1653  0.0266 -0.1132
 4258W        W20392   0.647   5.927   4.863 -0.3584 -0.1247  0.0086
 4259W        W20393  11.690  15.189  14.355 -0.2001 -0.1405  0.1096
 4260W        W20394  13.283   4.120  11.883 -0.2190  0.2609 -0.1284
 4261W        W20395  17.493   3.635   2.355  0.1505  0.0253  0.0857
 4262W        W20396   8.032   0.418   1.877 -0.1805 -0.3766  0.1671
 4263W        W20397  15.862  17.580   1.952  0.0562 -0.1103 -0.0904
 4264W        W20398   5.287   6.316  16.171  0.0588  0.1858 -0.0277
 4265W        W20399   4.350  15.962  12.930  0.1429  0.0639 -0.0678
 4266W        W20400   4.351  12.306   3.327  0.0190  0.0248  0.0093
 4267W        W20401  15.186   8.330  12.162 -0.1628  0.1493 -0.2020
 4268W        W20402  12.492  14.345   5.245  0.0763  0.1373  0.4225
 4269W        W20403  15.955  15.297   4.640  0.0445  0.0709  0.2929
 4270W        W20404   1.595  16.304   0.349 -0.0663 -0.1604  0.0169
 4271W        W20405  12.080   5.529   2.629 -0.1919 -0.1168  0.0387
 4272W        W20406   1.471   8.562   3.677 -0.2077  0.1231  0.1267
 4273W        W20407  11.520  14.017   3.367 -0.3065 -0.1110  0.1078
 4274W        W20408  12.502   0.536  12.052  0.0152 -0.1494  0.0192
 4275W        W20409   6.049  10.630  14.227  0.3875  0.0165  0.0055
 4276W        W20410   7.693  15.117   0.938 -0.0674  0.2517 -0.0733
 4277W        W20411   0.564  12.625  11.385  0.1668 -0.1451 -0.0105
 4278W        W20412   3.579   6.825  11.892  0.1337  0.0183 -0.1660
 4279W        W20413   3.773   6.025   1.292  0.3666  0.0992  0.0581
 4280W        W20414  13.379   8.028  13.701 -0.0697 -0.0339 -0.2496
 4281W        W20415   1.884   2.135  13.318 -0.0931  0.1549 -0.0253
 4282W        W20416   6.004   4.496   2.024  0.0401  0.1508  0.0067
 4283W        W20417  10.649   7.292  15.278 -0.0909 -0.0828 -0.3789
 4284W        W20418  12.032  14.429  11.578 -0.1589  0.2080  0.0425
 4285W        W20419   1.995  11.782  11.725  0.1413 -0.1721  0.0288
 4286W        W20420   6.872   6.341  13.684 -0.1401  0.0232  0.1087
 4287W        W20421  15.416  10.256   4.518  0.3383 -0.1758 -0.1532
 4288W        W20422   2.627   1.988   2.197  0.0410  0.0918 -0.1804
 4289W        W20423  13.220   9.802   4.052  0.0526 -0.1408  0.0229
 4290W        W20424   1.925   7.328   1.386 -0.3281 -0.1656  0.0808
 4291W        W20425  10.401  12.738   6.020  0.1953 -0.1428  0.1557
 4292W        W20426  15.913   2.037  11.646  0.3916 -0.1234  0.0832
 4293W        W20427   5.690   7.130  16.163  0.1488 -0.1542  0.2578
 4294W        W20428   5.923   8.850  13.630 -0.2184  0.1124 -0.0403
 4295W        W20429   6.138  14.647  13.445  0.2662  0.2271 -0.2080
 4296W        W20430   2.533  16.037   5.255  0.1807 -0.0400 -0.0335
 4297W        W20431   6.018  10.854   4.978 -0.2520 -0.0286  0.0687
 4298W        W20432  10.805  17.958  11.466  0.0987  0.2500 -0.2270
 4299W        W20433   9.281  10.194  16.001  0.2588  0.2865 -0.1609
 4300W        W20434   3.865   9.984   4.463 -0.0698 -0.0642 -0.3057
 4301W        W20435  13.477   6.930  16.284 -0.1926 -0.4206 -0.1274
 4302W        W20436   7.530   0.656   4.767  0.0499 -0.0402 -0.0954
 4303W        W20437   4.924   5.022   5.217 -0.0302  0.1397 -0.0176
 4304W        W20438  15.572   9.588   5.162  0.0123 -0.0175  0.0466
 4305W        W20439  11.245   1.160   5.279  0.0026  0.1764 -0.4000
 4306W        W20440   7.656  16.444  14.050  0.0075 -0.2157 -0.4343
 4307W        W20441   2.573  13.629   2.787  0.1271  0.0200  0.0333
 4308W        W20442  14.622  16.483   2.166 -0.1235 -0.1562 -0.2051
 4309W        W20443   8.424  11.943  12.411  0.0287 -0.2104 -0.0579
 4310W        W20444   5.019  16.416   3.104  0.0048 -0.0127 -0.0876
 4311W        W20445   2.332   5.301  12.206  0.2553  0.0317 -0.1039
 4312W        W20446   9.570  16.841  14.651  0.2771 -0.3386 -0.1504
 4313W        W20447   3.098  13.794   2.866 -0.2709  0.2486  0.2655
 4314W        W20448   3.202   5.654   0.260  0.0822 -0.2589  0.0784
 4315W        W20449  16.855  17.025   0.999 -0.1519 -0.6668  0.0251
 4316W        W20450   5.287   8.522  13.525 -0.0909 -0.1147  0.2082
 4317W        W20451   7.090   8.254  13.143  0.0828  0.2313 -0.0051
 4318W        W20452  10.291   5.184  16.127 -0.2825 -0.0558 -0.2179
 4319W        W20453   3.292  16.675  15.078  0.0303  0.1524  0.0024
 4320W        W20454   8.312   6.134   3.748 -0.0422  0.1204  0.2468
 4321W        W20455  10.433  12.765  11.341  0.0006 -0.2952  0.3919
 4322W        W20456  10.694  10.140   5.168  0.3005 -0.0572 -0.1613
 4323W        W20457   5.523  14.235  11.717 -0.0510 -0.1474 -0.0101
 4324W        W20458  15.502   6.910  12.082  0.1649 -0.2130 -0.1254
 4325W        W20459   7.014  12.289   3.426 -0.1260  0.0231  0.3819
 4326W        W20460  12.841  10.981  12.321  0.0430  0.0958 -0.0952
 4327W        W20461   3.139   5.944   1.361 -0.0888 -0.1771 -0.0138
 4328W        W20462   2.277  11.181   0.172  0.2044 -0.2180  0.0337
 4329W        W20463  17.500   0.077   3.317  0.0358  0.0665 -0.1762
 4330W        W20464   4.652  15.025  13.853  0.0968  0.1120  0.3136
 4331W        W20465   2.490   5.862  12.581 -0.1482 -0.2252  0.1171
 4332W        W20466  17.004   9.368   2.822  0.0822 -0.3323 -0.0339
 4333W        W20467   5.026  14.017   4.609 -0.0313  0.1035 -0.1547
 4334W        W20468  17.860   0.092   1.004 -0.1697  0.1356 -0.0394
 4335W        W20469   6.894  16.756  15.324  0.1468 -0.0881 -0.0227
 4336W        W20470  13.034   5.978  14.924  0.0487  0.1881  0.1945
 4337W        W20471  11.836   7.279   0.166 -0.1110 -0.0590  0.3384
 4338W        W20472  10.219  13.084  14.813 -0.2087  0.0593 -0.1060
 4339W        W20473  16.052   6.897  16.373  0.1787 -0.1311 -0.0785
 4340W        W20474  16.378   3.038  13.646 -0.1329 -0.2102  0.2197
 4341W        W20475   9.612  14.733   2.535 -0.0632  0.1301  0.0505
 4342W        W20476   2.850  11.305  11.778 -0.0110  0.1608  0.0952
 4343W        W20477   1.663   5.621  15.836  0.4222 -0.2790  0.0725
 4344W        W20478   3.544  17.584   1.736 -0.1648  0.0511 -0.2349
 4345W        W20479  14.933  17.822  15.662 -0.1605  0.1187 -0.0297
 4346W        W20480  13.081  16.685   2.852  0.1525 -0.1909  0.1062
 4347W        W20481  15.127   7.309   2.308  0.2019  0.1809  0.1128
 4348W        W20482  17.825  10.976  14.508 -0.0095 -0.0183  0.1795
 4349W        W20483   3.832  10.142  11.981 -0.0671  0.2752 -0.0463
 4350W        W20484   8.427   6.182  12.080  0.0828  0.3940 -0.0868
 4351W        W20485   4.862  12.026   0.331  0.0657  0.0510 -0.0620
 4352W        W20486   8.816  13.479  13.674 -0.0771 -0.2083  0.0186
 4353W        W20487  13.903  16.322  12.392  0.0445  0.1850 -0.0525
 4354W        W20488   5.824  14.335  12.730  0.3394 -0.2184  0.1931
 4355W        W20489   3.297  11.518  11.877 -0.1810 -0.2447 -0.1662
 4356W        W20490  13.289   0.288   0.415 -0.2429  0.2042  0.0279
 4357W        W20491   5.300  17.007  12.696  0.1583  0.0773 -0.1625
 4358W        W20492   0.478   5.432   1.084 -0.0037 -0.0083  0.0101
 4359W        W20493   0.126  11.621  16.366 -0.3293 -0.0733  0.2591
 4360W        W20494   1.309   0.777  16.261  0.0017  0.1620  0.3827
 4361W        W20495  13.022   3.850   0.939  0.0164  0.0553 -0.2230
 4362W        W20496  16.586  17.391   4.034  0.2031  0.0774 -0.4053
 4363W        W20497   1.291  17.810  16.298 -0.1413 -0.3144 -0.0601
 4364W        W20498  14.395  12.670   4.196 -0.3391 -0.2540  0.1243
 4365W        W20499  16.094   6.557  13.952  0.1299 -0.3259  0.1290
 4366W        W20500   6.046   2.760   2.387  0.2425  0.3812  0.3463
 4367W        W20501  12.937   9.640  12.349 -0.0507  0.3843 -0.1232
 4368W        W20502   0.662   2.569   2.495 -0.0973 -0.1933  0.0217
 4369W        W20503   8.846  11.964   5.472 -0.1398 -0.0698 -0.2619
 4370W        W20504  11.753  16.203  16.392  0.1749  0.2173 -0.1764
 4371W        W20505   0.092  13.522   5.005 -0.0181 -0.1334 -0.0069
 4372W        W20506   3.745  17.002  14.466  0.2770  0.0464  0.1121
 4373W        W20507  17.704  15.982  14.274  0.4994  0.3565 -0.0509
 4374W        W20508   0.757   3.339   0.282 -0.0115 -0.2951 -0.0059
 4375W        W20509   3.997  13.845   1.898 -0.1028 -0.4199 -0.7528
 4376W        W20510  11.119   2.105  14.100  0.1118  0.0206 -0.3967
 4377W        W20511   6.470   3.301  15.183  0.3917  0.0891  0.0959
 4378W        W20512  14.060   9.591   0.337 -0.1262  0.0259  0.1077
 4379W        W20513  13.292   4.003  16.281 -0.0994 -0.0028  0.0355
 4380W        W20514   3.336   2.018   2.889  0.0335 -0.2792  0.2635
 4381W        W20515  13.733  11.192  14.319 -0.0339  0.2680 -0.0741
 4382W        W20516  15.660  15.633  13.171  0.0516  0.1596 -0.2339
 4383W        W20517  16.373  16.952   2.419  0.0400  0.3226  0.2906
 4384W        W20518  14.813  13.126  16.383 -0.2151  0.0092 -0.2554
 4385W        W20519  13.902  11.145  15.807 -0.1256  0.1431 -0.0595
 4386W        W20520   3.972  12.079   0.661  0.0583 -0.3884  0.0970
 4387W        W20521   7.246  14.888   2.094 -0.2589 -0.0003 -0.3888
 4388W        W20522  13.458  10.291  11.247  0.0057 -0.2273  0.1144
 4389W        W20523   7.379  12.436  14.805 -0.0240 -0.1508 -0.1597
 4390W        W20524   1.160  12.746  14.613 -0.0255  0.3639  0.1049
 4391W        W20525   7.089   4.905  11.853  0.1375  0.2401 -0.0911
 4392W        W20526   5.095  12.480   0.828 -0.0357  0.1614 -0.0727
 4393W        W20527  12.790  15.183   4.897  0.0521  0.1399 -0.0750
 4394W        W20528   1.103   5.651  15.533 -0.0123 -0.2250  0.1941
 4395W        W20529   0.146  13.964  15.580  0.1187  0.0451  0.3770
 4396W        W20530   3.745   9.571  11.971  0.1231  0.1877 -0.0673
 4397W        W20531  14.144   3.637  12.308 -0.1286  0.2962 -0.1462
 4398W        W20532  12.294   3.589   4.728  0.2914  0.0934  0.1240
 4399W        W20533  13.528   9.320   3.352  0.3112 -0.1249 -0.3051
 4400W        W20534   5.309  17.019   5.847  0.3320 -0.2570  0.1747
 4401W        W20535  15.387   9.632  13.672 -0.1123 -0.1788  0.1023
 4402W        W20536   3.211   9.275   0.426  0.0252 -0.5059  0.1024
 4403W        W20537  13.767  13.480   1.364  0.1053 -0.2697  0.0177
 4404W        W20538  14.744   0.392  11.907  0.1168 -0.2152 -0.0499
 4405W        W20539  14.970   1.410   1.377  0.0551  0.1559 -0.1179
 4406W        W20540   7.791   1.412  12.719 -0.0689  0.4717 -0.0714
 4407W        W20541  13.444  14.630  15.410 -0.0642  0.1307 -0.1547
 4408W        W20542   1.133   5.712   2.431  0.1947  0.0651  0.2042
 4409W        W20543  16.829  11.812   2.177 -0.1127  0.0822  0.0700
 4410W        W20544   9.997   3.766   0.395 -0.0707 -0.0847 -0.2889
 4411W        W20545  11.623  17.651  16.042  0.0720  0.2700  0.0890
 4412W        W20546  11.244  11.029  13.502  0.3601  0.2874  0.0767
 4413W        W20547   4.015  11.988   4.532  0.0455 -0.3719  0.2535
 4414W        W20548  11.826   1.280  15.474  0.3064  0.0919 -0.1807
 4415W        W20549   4.825   9.357  16.342  0.0964  0.3958  0.0733
 4416W        W20550  12.202  16.204   1.996  0.3080  0.0929  0.2197
 4417W        W20551   3.147   9.422  14.097  0.3650 -0.2088 -0.1954
 4418W        W20552   0.736  12.977   5.309 -0.2281  0.1703  0.1375
 4419W        W20553  10.168  15.486   0.938  0.1776 -0.1301 -0.1627
 4420W        W20554   9.301  15.241   1.988 -0.0410 -0.0312 -0.2716
 4421W        W20555   1.636   1.787   6.227 -0.0850  0.1158 -0.0574
 4422W        W20556   7.141  12.042  12.917  0.3713 -0.0191 -0.0053
 4423W        W20557  10.092  16.275   2.399  0.0611 -0.1343 -0.0819
 4424W        W20558  11.564  13.225  12.115  0.0632 -0.0389  0.0568
 4425W        W20559   8.060  12.507  11.735 -0.0247 -0.0135  0.1684
 4426W        W20560  15.438   6.342   4.708  0.0207  0.1638  0.1887
 4427W        W20561   5.659   0.932   2.591  0.0648  0.3051  0.1078
 4428W        W20562   7.158  14.228  11.633 -0.0135  0.2172  0.2241
 4429W        W20563  13.730   1.149  14.681 -0.3372 -0.1772 -0.2292
 4430W        W20564  16.754   4.494   0.331  0.1019  0.0637  0.1325
 4431W        W20565   4.831   6.797  14.400 -0.1558  0.2827 -0.0747
 4432W        W20566   6.216  12.219  16.184 -0.2103 -0.0333  0.2267
 4433W        W20567  11.298  15.725  14.638 -0.1676 -0.1393  0.2868
 4434W        W20568   7.476  10.256  12.350  0.2254  0.0064  0.3353
 4435W        W20569   4.288  12.042  13.537  0.1412  0.4227 -0.0115
 4436W        W20570   8.544   3.069   5.020  0.0323  0.1435  0.0095
 4437W        W20571   3.654  14.674   4.364  0.1560 -0.0230 -0.2320
 4438W        W20572  17.180  17.182   3.708 -0.1851  0.1618 -0.1120
 4439W        W20573  16.779  11.069  14.930  0.1727 -0.0520 -0.0821
 4440W        W20574  15.259  14.136   3.416  0.0875 -0.1136 -0.2093
 4441W        W20575  14.499   2.837   4.908  0.0339 -0.3852 -0.0638
 4442W        W20576  13.851  17.516   0.669  0.2469 -0.0380  0.0124
 4443W        W20577  11.170   4.085  16.308  0.2681  0.0402  0.4421
 4444W        W20578  11.185   6.364   1.966 -0.2765  0.0712 -0.1707
 4445W        W20579  10.487   1.938   0.549 -0.0824  0.0471  0.1388
 4446W        W20580  13.990   1.651   1.276  0.3691 -0.3791 -0.2231
 4447W        W20581  16.547   2.662   3.423  0.3416 -0.1542  0.2101
 4448W        W20582  15.543  15.411  13.603  0.0829  0.1306 -0.3555
 4449W        W20583   6.332   3.227  13.532 -0.0626 -0.1653  0.0025
 4450W        W20584   2.356  15.484   2.464  0.0982 -0.2600 -0.0275
 4451W        W20585  17.614   9.676  14.391 -0.1331 -0.0458 -0.0708
 4452W        W20586  11.911  15.267   5.204  0.1338  0.1108  0.1448
 4453W        W20587  17.023   6.660   3.262 -0.0595 -0.0091  0.0560
 4454W        W20588   9.434  14.036   4.557  0.1681  0.1707 -0.0823
 4455W        W20589   8.241   2.050   3.971 -0.1756  0.0017  0.0443
 4456W        W20590   6.002  13.533  15.289 -0.0411  0.0210  0.0397
 4457W        W20591   4.088   2.833  13.646  0.0104  0.0322  0.2860
 4458W        W20592  15.481  16.724   2.145  0.1235 -0.0856  0.0839
 4459W        W20593   9.492   3.999   3.299  0.2126 -0.2447 -0.0041
 4460W        W20594  14.292   2.338  15.246 -0.1218 -0.0860 -0.0826
 4461W        W20595   5.181   8.921   0.366 -0.0609  0.0782 -0.0484
 4462W        W20596   4.434  13.764  13.812  0.1162 -0.0846 -0.0779
 4463W        W20597   1.509  16.708   0.962 -0.0261  0.1666 -0.2203
 4464W        W20598  14.737   6.429   0.686 -0.0112  0.3211  0.0708
 4465W        W20599  17.961  12.506  13.263  0.2683  0.1851 -0.0609
 4466W        W20600  11.750   3.498   0.564 -0.0392 -0.5058 -0.4709
 4467W        W20601  13.724   1.357   4.588  0.0634  0.1439 -0.2411
 4468W        W20602  16.470  12.865   3.851  0.1358 -0.0108  0.2565
 4469W        W20603  11.606  15.758   2.720  0.0665 -0.1616 -0.1352
 4470W        W20604  10.883  11.007   0.717 -0.0965 -0.0771  0.0624
 4471W        W20605   1.569  16.703  12.260 -0.2751  0.0606  0.0726
 4472W        W20606  10.288   4.212  16.242  0.0986 -0.0175 -0.0398
 4473W        W20607  11.698   8.573  11.277 -0.1498  0.3511 -0.1272
 4474W        W20608   7.095   9.781   0.222 -0.3093 -0.3272  0.2184
 4475W        W20609  12.526   8.469   0.471 -0.2227 -0.0163 -0.1307
 4476W        W20610  16.424  11.972  10.874 -0.0111  0.0088  0.0319
 4477W        W20611  10.383   8.184   5.717 -0.1683 -0.0509 -0.1071
 4478W        W20612  10.923   1.625  16.638  0.1117  0.0177  0.2678
 4479W        W20613   5.576  11.360   1.026 -0.1347  0.2045  0.3449
 4480W        W20614  10.603  14.914  14.651  0.5316 -0.0189 -0.1883
 4481W        W20615  15.087   3.709   3.922 -0.0217 -0.0666 -0.0086
 4482W        W20616  11.950   4.418   1.934  0.0499 -0.0272 -0.5529
 4483W        W20617   2.216   3.335   0.050  0.2137 -0.5358 -0.0158
 4484W        W20618   3.945  14.701   2.355 -0.2609  0.0898  0.2295
 4485W        W20619  10.640   8.606  16.368  0.2729 -0.2572 -0.2419
 4486W        W20620   7.237   6.293  14.048 -0.1049 -0.0430  0.2377
 4487W        W20621  15.227   8.150   5.271 -0.1447  0.1056 -0.2216
 4488W        W20622   3.417   1.405   1.105  0.0830  0.0209 -0.2310
 4489W        W20623  10.525   7.271  13.653  0.1454  0.0537  0.1363
 4490W        W20624  10.572  16.104  16.076 -0.1979  0.2560 -0.3316
 4491W        W20625  15.480  13.882   1.114 -0.1053 -0.0681 -0.2581
 4492W        W20626   8.042   0.028  12.296  0.0439  0.1140 -0.0185
 4493W        W20627   8.077   5.896  15.979 -0.2500 -0.5505  0.0259
 4494W        W20628  13.303   4.516   1.935 -0.1194 -0.3096 -0.0684
 4495W        W20629   3.929  13.439   4.373  0.1225  0.0522  0.0856
 4496W        W20630  11.047   2.581   3.028 -0.1234 -0.1477 -0.0084
 4497W        W20631   9.968  13.848   3.638 -0.2289  0.0538  0.1625
 4498W        W20632   8.557  12.821  12.488 -0.0822 -0.4033  0.2088
 4499W        W20633   7.553  17.160  16.079 -0.2851 -0.2380  0.2847
 4500W        W20634   8.054   5.219   5.837  0.4491 -0.1097  0.0455
 4501W        W20635   3.385  10.845   2.878  0.1134 -0.0094  0.2264
 4502W        W20636   0.504   0.892   2.892 -0.1862 -0.2745  0.1363
 4503W        W20637  17.702  12.820   2.639  0.0877  0.1848 -0.2488
 4504W        W20638  10.509  16.550   1.523  0.1949  0.1176  0.2226
 4505W        W20639  14.307  12.700   2.006 -0.2126  0.1426 -0.2320
 4506W        W20640  12.327  10.759  12.892 -0.5354 -0.1889 -0.1442
 4507W        W20641   2.063   7.149   5.570  0.2295  0.0419 -0.0760
 4508W        W20642   7.405  11.365   0.389 -0.0746 -0.1330  0.3937
 4509W        W20643   6.708   8.156   5.510 -0.1084  0.0606  0.2568
 4510W        W20644   4.371  16.722  13.311  0.0980 -0.0253  0.1106
 4511W        W20645   3.827   1.195   4.089 -0.0112 -0.1393 -0.0307
 4512W        W20646   3.501  11.112  14.464 -0.1808 -0.1280  0.3039
 4513W        W20647  13.239   5.128  12.323 -0.0322 -0.2467 -0.1608
 4514W        W20648   6.333   0.208  14.636 -0.3010 -0.0989 -0.1283
 4515W        W20649  16.399  16.083   3.544 -0.2585  0.1637  0.1944
 4516W        W20650  17.632  10.192  15.100 -0.2103  0.2245  0.1590
 4517W        W20651   3.099  11.314  15.885  0.1254 -0.4530 -0.1164
 4518W        W20652   1.904  15.111  15.327 -0.0576  0.0325  0.0167
 4519W        W20653  17.394  15.115   3.312  0.1561 -0.1199  0.0303
 4520W        W20654  11.041  16.937   3.993  0.0821 -0.0835 -0.1955
 4521W        W20655  11.321  15.214   2.027  0.1498 -0.0641 -0.1521
 4522W        W20656   7.682   2.381  12.307 -0.1176 -0.3804  0.1181
 4523W        W20657  10.733  11.126  15.118 -0.1292  0.2113  0.0683
 4524W        W20658   0.163   0.307  13.542  0.2975  0.0311  0.2870
 4525W        W20659   4.336  13.371  14.195  0.2381  0.0673 -0.0346
 4526W        W20660   7.451   3.548  14.992  0.1758  0.0034 -0.1313
 4527W        W20661   4.435   7.361  11.905 -0.1741 -0.1147  0.0816
 4528W        W20662   2.067  11.238  12.979  0.1329 -0.0307 -0.1175
 4529W        W20663   9.009   0.870   2.066 -0.0347  0.2140  0.3449
 4530W        W20664  10.926   0.547  13.975  0.0233  0.1401 -0.1270
 4531W        W20665  16.767  17.070   2.731  0.0110  0.0388  0.0406
 4532W        W20666   2.830  10.065   4.551 -0.0108  0.1771 -0.1543
 4533W        W20667   1.283  14.780   3.925  0.1719  0.2556 -0.1086
 4534W        W20668  15.810  10.741  14.720 -0.1077  0.1634  0.2241
 4535W        W20669   0.058   8.077   3.131 -0.0202 -0.1440 -0.0793
 4536W        W20670   6.838   2.988   5.375  0.0559  0.3461  0.2038
 4537W        W20671   8.358   4.870   1.596 -0.0706 -0.0956 -0.1170
 4538W        W20672  14.826   1.366  13.403  0.0990 -0.2032  0.0639
 4539W        W20673  14.723   5.229   3.520  0.0860 -0.0614 -0.1402
 4540W        W20674   7.817   9.811  12.988  0.2611  0.0532 -0.0015
 4541W        W20675   0.384   2.357   3.610  0.2240  0.2317 -0.0383
 4542W        W20676  17.969  11.196   1.785  0.1788  0.1619  0.0307
 4543W        W20677   2.141   5.125   5.639 -0.0540  0.2862  0.4965
 4544W        W20678   4.212   7.248  10.052  0.1296  0.1151  0.2768
 4545W        W20679   3.486   1.427   2.555  0.0117  0.1679  0.0515
 4546W        W20680   6.076   0.851  15.084  0.3030 -0.1066 -0.1510
 4547W        W20681   1.174   3.054   0.294  0.2558  0.1214  0.1208
 4548W        W20682   3.239   8.082   5.088  0.4757 -0.0240  0.1374
 4549W        W20683   2.183   6.264  11.218  0.2087 -0.2400  0.0465
 4550W        W20684   3.089   1.763  13.051 -0.0244 -0.1247  0.2331
 4551W        W20685   0.872   3.510   2.443 -0.1708  0.1766  0.3300
 4552W        W20686   6.794  10.219   3.541 -0.0605 -0.1082  0.2601
 4553W        W20687   6.064   3.891   3.783 -0.0761 -0.0955 -0.1036
 4554W        W20688   4.723   9.688   1.122  0.1040  0.0162  0.0089
 4555W        W20689   9.634  10.448   1.608  0.3053  0.1951  0.1121
 4556W        W20690  11.494  11.960   2.733 -0.0401 -0.0775  0.0681
 4557W        W20691   1.521   1.543  12.233  0.0140  0.0180  0.5667
 4558W        W20692  15.437  16.372   2.526 -0.4704 -0.1328 -0.0023
 4559W        W20693   5.502   5.812   2.150 -0.0930 -0.0581 -0.1754
 4560W        W20694  15.213   8.823   0.081  0.1411 -0.1657 -0.4492
 4561W        W20695  17.548   4.635   2.386 -0.2073 -0.1785 -0.0704
 4562W        W20696   6.773  12.238   3.012  0.3114 -0.1491  0.1937
 4563W        W20697   1.341   8.960  16.038  0.1033  0.0950 -0.2145
 4564W        W20698   9.578   7.155   3.698 -0.0287  0.2246  0.2325
 4565W        W20699  14.195  15.913  15.498  0.2034 -0.1170 -0.2020
 4566W        W20700   9.686   9.484   2.888 -0.0320  0.0839  0.3856
 4567W        W20701   2.156   9.408  16.177 -0.0756 -0.3347  0.2318
 4568W        W20702  17.890   8.379   4.937 -0.1363 -0.3670 -0.0445
 4569W        W20703  12.210   2.715   3.576 -0.0150 -0.1944  0.1379
 4570W        W20704   1.052  16.595   4.871  0.1121  0.1138  0.0432
 4571W        W20705   2.561   0.885  16.176 -0.0677 -0.0737 -0.1113
 4572W        W20706  12.017   5.652   2.017  0.0652 -0.3486 -0.0022
 4573W        W20707   7.176   0.479  14.244 -0.1033  0.0149  0.0325
 4574W        W20708  17.649   1.661  15.857 -0.2014 -0.1310 -0.0305
 4575W        W20709  14.212   8.007  15.541  0.0292 -0.3779  0.1770
 4576W        W20710   0.900  10.399  13.315  0.0303 -0.0774  0.0101
 4577W        W20711   8.007   7.318  16.321 -0.0027  0.1242 -0.0578
 4578W        W20712  13.557  11.546  12.045 -0.3085  0.0412 -0.1083
 4579W        W20713  16.053  17.918  12.715 -0.3925  0.0813  0.0325
 4580W        W20714  17.294   7.253  12.329 -0.2070 -0.1553 -0.4156
 4581W        W20715   6.428  15.198  11.226 -0.1363  0.1690 -0.2922
 4582W        W20716   1.482  17.135  12.740  0.1307  0.0876  0.0896
 4583W        W20717   9.941   1.332  14.565  0.0801 -0.0741  0.0231
 4584W        W20718   0.595   6.667  12.882 -0.2226  0.2974  0.2472
 4585W        W20719  17.741   6.374  14.357 -0.0887 -0.2032  0.2350
 4586W        W20720  15.543  10.831  16.365  0.1163  0.1021 -0.1774
 4587W        W20721   8.951  14.468   2.582  0.0377  0.0552 -0.1773
 4588W        W20722  11.752   9.610  13.150 -0.1513  0.1804 -0.0837
 4589W        W20723   4.526   6.550  15.661 -0.2025  0.1309 -0.1505
 4590W        W20724  16.441   3.680  12.835 -0.0220  0.0469  0.1159
 4591W        W20725   5.507   2.981   2.959  0.0413  0.0985  0.0408
 4592W        W20726  10.778   0.917  15.355 -0.1312 -0.2190  0.2094
 4593W        W20727  15.034   1.288  16.590 -0.0273  0.0315  0.0980
 4594W        W20728  15.945  12.635   5.708  0.0526 -0.1650  0.0783
 4595W        W20729  17.736  16.750   2.660  0.1837  0.0921  0.3924
 4596W        W20730  17.311  17.966   2.455  0.5395  0.2396  0.0712
 4597W        W20731   7.603   4.044  13.426 -0.3961 -0.2585  0.0532
 4598W        W20732   9.161   7.146  13.541  0.0665  0.3328  0.2130
 4599W        W20733   0.939   2.695  15.072 -0.3114 -0.1157  0.1506
 4600W        W20734   9.460   7.590  15.966 -0.0252  0.1698  0.0856
 4601W        W20735  12.891   7.934  13.325 -0.4888  0.1047 -0.3774
 4602W        W20736   6.449  13.950  16.553 -0.0833 -0.0864  0.3329
 4603W        W20737   4.386   3.639   0.070 -0.0771 -0.0314  0.3551
 4604W        W20738  10.518   3.842  12.203 -0.1883 -0.1857  0.1132
 4605W        W20739  17.124   1.335   2.741  0.0046  0.0104  0.4298
 4606W        W20740  10.645  16.439  12.517  0.1602  0.2462  0.0285
 4607W        W20741   7.759   8.108  13.039  0.1345 -0.0697 -0.0047
 4608W        W20742  13.597  12.502   1.535 -0.0410  0.1016  0.1192
 4609W        W20743   8.892  15.039   2.418 -0.0210  0.3654 -0.0684
 4610W        W20744   1.544   8.837   2.157  0.1179  0.1848 -0.0463
 4611W        W20745  12.966  10.349   3.851 -0.1866  0.0519 -0.3648
 4612W        W20746   7.188   1.631  13.880 -0.3437  0.2507  0.1346
 4613W        W20747  14.575  17.281   2.204 -0.0002  0.0478  0.0262
 4614W        W20748  14.724   9.843   3.219 -0.0773 -0.1624  0.1879
 4615W        W20749  10.092  12.638   2.199 -0.1896  0.1095 -0.3787
 4616W        W20750   8.957   8.589   0.901 -0.0963 -0.0187 -0.1276
 4617W        W20751   1.340  10.679  13.496  0.5505 -0.1447  0.0767
 4618W        W20752   0.066  16.694   0.080 -0.0415  0.1878 -0.0018
 4619W        W20753   1.125  15.347   3.865  0.4987 -0.1382 -0.2154
 4620W        W20754  17.221   4.495  14.362 -0.0594  0.0377  0.1376
 4621W        W20755   7.007   9.936   1.301  0.3704  0.2438 -0.0478
 4622W        W20756   4.608   8.017   3.491  0.2360 -0.0603  0.0463
 4623W        W20757  12.661   6.383   3.082 -0.3589 -0.1622  0.0642
 4624W        W20758   1.211  13.141   3.819  0.2266  0.2062 -0.0838
 4625W        W20759  13.305   2.255   4.823  0.1128 -0.0956  0.1178
 4626W        W20760  13.510   8.039   1.822  0.0310 -0.0455 -0.0143
 4627W        W20761   4.732   2.991  11.991  0.2634 -0.1385 -0.1261
 4628W        W20762  14.335   3.067  15.887 -0.1669 -0.2703 -0.0044
 4629W        W20763   0.340   8.085  11.895 -0.1500 -0.0074  0.0246
 4630W        W20764  12.946  11.305   0.056 -0.4308 -0.0870 -0.1369
 4631W        W20765  11.707   1.296   0.924 -0.1803 -0.0109  0.0355
 4632W        W20766  16.417   2.911  12.493 -0.1838  0.0137 -0.0282
 4633W        W20767  17.703   9.348  12.118  0.0022  0.0965  0.2451
 4634W        W20768  15.636  13.971  12.551  0.3302  0.1137  0.2573
 4635W        W20769   6.742  14.389   2.398 -0.0874 -0.1909 -0.2027
 4636W        W20770  11.913   7.963   0.922 -0.0566 -0.4323 -0.1107
 4637W        W20771   7.928   4.912  14.361  0.2313  0.1608  0.0237
 4638W        W20772  16.488   3.505  15.400 -0.0402  0.0187  0.0654
 4639W        W20773   2.701   7.788  14.161  0.0404 -0.3025 -0.1220
 4640W        W20774   5.101   0.874   3.928  0.3276  0.1282  0.0565
 4641W        W20775   4.489  12.813   3.285 -0.0644  0.2765 -0.0397
 4642W        W20776   9.350  11.286  13.619 -0.0585  0.0068  0.6414
 4643W        W20777  17.827  12.710  14.986 -0.0254  0.0618  0.0018
 4644W        W20778   4.117   8.128  12.319  0.0743 -0.0267  0.0975
 4645W        W20779  14.282  10.149  11.978  0.0534 -0.0632  0.3642
 4646W        W20780  12.402  13.672   5.522  0.1318 -0.0697 -0.2086
 4647W        W20781  15.903  16.077   4.268  0.3081 -0.2657  0.3026
 4648W        W20782  11.027   0.300   3.182 -0.1633  0.1236  0.2078
 4649W        W20783   0.421  15.309  14.643 -0.0560  0.0652 -0.1385
 4650W        W20784  14.518   2.341   4.816  0.0346  0.0952 -0.0193
 4651W        W20785   4.012  11.934  11.835  0.1318 -0.2622  0.1392
 4652W        W20786   1.957   6.525  16.305  0.1562  0.0547  0.0971
 4653W        W20787   8.590   3.792   3.232 -0.0116  0.3077  0.0679
 4654W        W20788  16.484  16.592   3.298  0.0953  0.0271  0.1287
 4655W        W20789  10.951   4.396   5.539  0.0279  0.3941  0.1456
 4656W        W20790   1.485  17.812  11.847 -0.0461  0.1533  0.0386
 4657W        W20791   2.813  11.958  14.462  0.2446 -0.0069 -0.4431
 4658W        W20792   3.417   8.551   5.331  0.0363 -0.1385  0.2989
 4659W        W20793   0.097   9.498   3.357  0.0073  0.0358 -0.1623
 4660W        W20794  13.021   6.855  16.366  0.3046 -0.0258 -0.2433
 4661W        W20795  11.936  11.060  12.830 -0.0507 -0.0452  0.1971
 4662W        W20796   8.792   3.591   5.823  0.1362 -0.4034  0.2180
 4663W        W20797   4.121   3.765  13.145  0.1098  0.1293 -0.0188
 4664W        W20798   2.436   7.144   0.419 -0.1059 -0.1722 -0.0114
 4665W        W20799   2.279  14.108   0.821  0.1716 -0.2309 -0.1777
 4666W        W20800   7.318   1.712   5.895  0.2308  0.2518  0.0095
 4667W        W20801   0.424   5.838  11.681  0.1455 -0.0749  0.1185
 4668W        W20802   0.065   5.484  14.779  0.0362 -0.0801  0.0220
 4669W        W20803   6.902   0.565  14.792  0.1203 -0.2614 -0.0528
 4670W        W20804   4.880   6.277  12.473 -0.2917 -0.0374 -0.0246
 4671W        W20805  10.279  12.560   5.099 -0.0829  0.1401 -0.1007
 4672W        W20806  17.468  17.442   5.772 -0.0807 -0.0449 -0.0550
 4673W        W20807  14.875   9.122  14.280 -0.1315  0.1487 -0.1893
 4674W        W20808   3.966  13.087  13.993 -0.0372 -0.1050  0.1696
 4675W        W20809   0.379   7.653  12.797  0.0606 -0.1897 -0.0439
 4676W        W20810   7.927  13.549   5.384  0.1400 -0.0769 -0.3259
 4677W        W20811   1.974   0.180   4.956 -0.2166 -0.1498  0.5411
 4678W        W20812   6.729   9.859  12.419  0.0641  0.0703  0.0546
 4679W        W20813   0.742   3.403  13.693 -0.1443 -0.1487  0.0132
 4680W        W20814   0.802   1.392   2.243  0.1887  0.2799  0.0734
 4681W        W20815   9.163   4.892   2.862  0.2278 -0.2657  0.0833
 4682W        W20816   3.674   8.918   2.516  0.0177 -0.0524 -0.3337
 4683W        W20817   0.911   3.881  15.029  0.2888 -0.4550  0.1033
 4684W        W20818  13.388  11.564   0.262 -0.1955 -0.1055  0.0080
 4685W        W20819  13.467   0.862   4.581 -0.0379  0.4277  0.1529
 4686W        W20820   4.719  11.214   3.353  0.0030 -0.1294 -0.0969
 4687W        W20821  16.571   9.038   4.275  0.1298  0.2159 -0.0374
 4688W        W20822  10.458   1.336  12.907  0.0796  0.0695  0.1173
 4689W        W20823   5.479  15.398  14.611  0.0308  0.1110  0.2325
 4690W        W20824   5.386   6.397   0.094  0.0072 -0.1703  0.2398
 4691W        W20825   4.741   1.757   1.886 -0.0055  0.0993 -0.3639
 4692W        W20826  15.773   3.073   0.295 -0.0570 -0.0232  0.0365
 4693W        W20827   5.610   5.365  12.838 -0.1552  0.2194 -0.1716
 4694W        W20828   4.290  10.884   0.380 -0.0227  0.1102  0.0472
 4695W        W20829  16.909  15.771  16.022 -0.2471  0.2688  0.2336
 4696W        W20830   7.994  11.564   0.004 -0.0776  0.0104 -0.1545
 4697W        W20831  15.410   3.788  15.641  0.3667  0.1390 -0.0778
 4698W        W20832   3.704  10.866   3.770  0.0763 -0.0077 -0.2555
 4699W        W20833   8.792   8.312   4.745 -0.0585  0.0496  0.2039
 4700W        W20834   6.747   8.041   1.796  0.0422 -0.0564  0.1844
 4701W        W20835  16.947  16.047   1.322 -0.2807  0.1842 -0.2729
 4702W        W20836  12.427  14.842   0.018 -0.0271  0.1076 -0.2106
 4703W        W20837   2.128   8.360  14.862  0.1525 -0.0141 -0.3124
 4704W        W20838   7.181  10.822   5.105  0.0103  0.2369 -0.3877
 4705W        W20839   4.877  13.881  10.479 -0.4121  0.1848 -0.1310
 4706W        W20840   3.620   3.726  16.214 -0.0451  0.1737  0.1592
 4707W        W20841  11.668  10.804   5.663 -0.0736 -0.0785  0.2570
 4708W        W20842   6.013  10.503   2.521 -0.2923  0.2093 -0.0959
 4709W        W20843   0.540   8.155   1.252 -0.0609 -0.1294  0.1635
 4710W        W20844   7.581  11.207   1.896  0.1354  0.0476 -0.2022
 4711W        W20845   5.943  10.534  16.517 -0.1135 -0.2439 -0.1018
 4712W        W20846   6.830  17.026   5.434 -0.1415 -0.0066  0.0873
 4713W        W20847   0.104   6.051   5.465  0.1185  0.0683  0.1025
 4714W        W20848  12.000  11.326   0.878  0.0604  0.0405  0.0352
 4715W        W20849   4.282   4.626  15.978 -0.2775 -0.1260  0.2906
 4716W        W20850   1.470   7.212   3.320  0.0771 -0.2848  0.0569
 4717W        W20851  15.399   5.537   0.589 -0.1242  0.0066  0.0835
 4718W        W20852   9.987  12.147  13.173 -0.1975 -0.2590  0.0811
 4719W        W20853   5.631   9.242  10.510  0.0088 -0.0680 -0.0032
 4720W        W20854   7.932  13.391  15.379  0.3732 -0.3111 -0.1112
 4721W        W20855  14.132   9.801  15.194 -0.0540  0.0451 -0.2196
 4722W        W20856  11.042   4.304   0.513  0.0547 -0.0561  0.1532
 4723W        W20857   8.028   4.411  13.546 -0.3545 -0.3682  0.0646
 4724W        W20858   1.782  16.633  15.863  0.4512 -0.1701  0.5566
 4725W        W20859  13.235   9.572  12.781 -0.0589 -0.1131  0.1668
 4726W        W20860   8.037  15.143  13.963 -0.1295 -0.1101 -0.2127
 4727W        W20861   8.502   3.210   2.968 -0.1732 -0.0574  0.1124
 4728W        W20862   4.807  14.350  16.469 -0.3066 -0.3183  0.5162
 4729W        W20863   3.722   3.567   1.754  0.4201  0.0701  0.0622
 4730W        W20864  11.346  10.985   3.438 -0.3601 -0.0321  0.0653
 4731W        W20865  17.457   5.574   1.062 -0.2365 -0.0838  0.1502
 4732W        W20866   4.743  10.327   1.803  0.1265  0.0105 -0.0706
 4733W        W20867   4.153  16.551  16.348  0.1491 -0.2640 -0.0672
 4734W        W20868   7.995   5.054   5.354  0.1292  0.2743  0.3961
 4735W        W20869   3.212  17.469   3.437 -0.1319  0.0171  0.0845
 4736W        W20870   2.181   0.008   4.512 -0.2896 -0.1749 -0.0768
 4737W        W20871  11.513  16.042   3.638  0.1084 -0.3040  0.1047
 4738W        W20872  13.360  15.290   4.700  0.4156 -0.1951  0.0939
 4739W        W20873  15.291   2.965  16.074  0.0131 -0.2809 -0.0805
 4740W        W20874   9.322   2.916   1.006 -0.0295  0.0620 -0.1972
 4741W        W20875  16.545  14.136   5.263  0.2890 -0.1366 -0.1593
 4742W        W20876  14.538  10.405   1.782  0.2034 -0.0232  0.1372
 4743W        W20877  14.085  13.355   6.213 -0.2046  0.1536  0.0825
 4744W        W20878  15.710   3.630   0.115 -0.1614  0.1284 -0.2656
 4745W        W20879   5.574   1.882  16.717 -0.2273 -0.1873  0.2544
 4746W        W20880   5.260   4.934  14.053  0.1563  0.0936  0.1157
 4747W        W20881   8.829   0.022  11.627 -0.0425 -0.0023  0.0827
 4748W        W20882   4.901  13.671   5.099 -0.1189  0.4904 -0.0451
 4749W        W20883  12.560  15.053   3.392 -0.0544 -0.0516 -0.2303
 4750W        W20884   8.998  13.938  14.833  0.2483  0.0674 -0.2090
 4751W        W20885   8.041  16.129  15.039  0.0025 -0.1768  0.1396
 4752W        W20886   3.864  15.834  15.931  0.0319  0.2430  0.2941
 4753W        W20887   0.436   4.787   4.049 -0.1973  0.0324  0.2943
 4754W        W20888   1.502   6.293  12.274  0.3043 -0.1852  0.0984
 4755W        W20889  10.422  14.941  10.243  0.0077  0.0449 -0.1235
 4756W        W20890   4.659  11.944   4.941 -0.0203 -0.0889  0.1802
 4757W        W20891   5.701   4.880   1.761 -0.0979  0.1573  0.0113
 4758W        W20892  10.100  14.458   5.232 -0.0298  0.0439  0.0382
 4759W        W20893  10.519   3.268   0.077  0.0510 -0.0781  0.7011
 4760W        W20894   0.526  15.556   1.353 -0.0498 -0.2632  0.0376
 4761W        W20895  11.685   4.089   5.889 -0.0824 -0.1249  0.0314
 4762W        W20896   4.885  14.591   2.545  0.3271 -0.0065 -0.2807
 4763W        W20897   2.286  15.732   1.365  0.1247  0.0541  0.0072
 4764W        W20898   2.487  13.475   4.094 -0.3040  0.0428  0.1518
 4765W        W20899  10.558   7.953  14.112 -0.2536  0.3445 -0.0622
 4766W        W20900  13.316  15.315   3.800  0.0511  0.2541 -0.1183
 4767W        W20901  11.589  14.621  14.932  0.0554 -0.2648 -0.0336
 4768W        W20902  12.453  12.610   4.935 -0.2832 -0.2346 -0.0377
 4769W        W20903   3.183  10.685  15.199  0.0958  0.1149 -0.0138
 4770W        W20904   3.076   4.359  16.467 -0.0893  0.2244  0.0712
 4771W        W20905   3.678  16.438  15.993  0.0049  0.1359  0.1160
 4772W        W20906  17.905  13.565  15.785  0.1475  0.0862 -0.1038
 4773W        W20907   8.433  12.173  11.861  0.0943 -0.1390 -0.0698
 4774W        W20908  16.980  17.597  13.067  0.3306 -0.0258  0.1407
 4775W        W20909  13.848  16.783  16.426  0.1359  0.0905 -0.2767
 4776W        W20910   0.857  11.234   3.486 -0.1242  0.0712 -0.0116
 4777W        W20911   6.944   2.149   2.248  0.0936  0.1426  0.0640
 4778W        W20912   5.983  17.073  14.108 -0.3135  0.0339  0.0478
 4779W        W20913   8.260  11.349  12.933 -0.1135 -0.1546 -0.1358
 4780W        W20914   1.854   6.289   2.364  0.2062  0.0259  0.0192
 4781W        W20915  13.618   0.356  12.361  0.2191 -0.2052  0.0828
 4782W        W20916  17.714   8.661  11.210 -0.2241  0.0687 -0.2640
 4783W        W20917   7.206  17.930  15.690 -0.2155  0.1626  0.0042
 4784W        W20918   9.899  11.524   4.405 -0.2696 -0.0479 -0.3570
 4785W        W20919  13.853  13.129  14.799 -0.0291  0.1363  0.0658
 4786W        W20920   5.684   9.776  14.048 -0.0938 -0.2526 -0.0936
 4787W        W20921   8.396  16.829   2.121  0.1340 -0.3299  0.0039
 4788W        W20922  13.028  15.988  16.101  0.0644 -0.1089  0.0235
 4789W        W20923   2.410  14.483   2.984  0.2129  0.1718  0.0773
 4790W        W20924   5.719   7.984  16.643  0.0295 -0.0780  0.3260
 4791W        W20925  13.725  14.458  14.098  0.3175 -0.1385 -0.0068
 4792W        W20926  16.211  11.982   4.468  0.3286 -0.3706  0.0458
 4793W        W20927  10.245  14.222   0.055 -0.0837  0.2068  0.1811
 4794W        W20928  11.606   8.376  16.207  0.2271 -0.0413  0.0335
 4795W        W20929   0.670  11.034  13.105 -0.3445 -0.4363  0.1636
 4796W        W20930  15.500   4.847  16.228 -0.2178 -0.4082  0.0018
 4797W        W20931  10.842   3.609  12.502 -0.1727 -0.0166 -0.0514
 4798W        W20932  12.213   1.090  16.626 -0.0832  0.1645 -0.1438
 4799W        W20933  17.073  16.062   5.432 -0.4014  0.1046 -0.4826
 4800W        W20934  13.564   6.806  12.475 -0.0430  0.4703 -0.1768
 4801W        W20935  16.600   7.153  12.423  0.0186  0.2283 -0.3489
 4802W        W20936  17.169   6.186   6.135  0.0718 -0.0257  0.1000
 4803W        W20937  17.889  11.481  15.358 -0.2495  0.0614  0.4175
 4804W        W20938   1.402   2.102   5.729 -0.1712  0.0465  0.1486
 4805W        W20939   8.749  14.151  10.496  0.2285 -0.3039  0.0544
 4806W        W20940   8.242  11.683   1.395 -0.1869 -0.2361  0.3341
 4807W        W20941   9.959  15.974  16.000  0.0181  0.0119  0.0714
 4808W        W20942  12.132   9.606   2.339 -0.1352 -0.0578  0.0766
 4809W        W20943   0.302  13.889   1.876 -0.1637 -0.1277  0.1540
 4810W        W20944   3.428  12.237  15.975  0.1116 -0.2272  0.0785
 4811W        W20945   6.347  15.153   3.413  0.0323 -0.1427  0.1137
 4812W        W20946   7.216  17.439  16.371  0.1527 -0.2347 -0.1592
 4813W        W20947  10.328   5.531  15.757  0.1094 -0.0655 -0.2726
 4814W        W20948  16.913  12.937   0.077 -0.0775  0.2248 -0.0673
 4815W        W20949   6.264   6.022   5.235  0.2466 -0.1226 -0.1155
 4816W        W20950  10.223  15.342  14.448  0.1550 -0.0822  0.1292
 4817W        W20951  14.821  10.039   4.960  0.1393 -0.0333 -0.3605
 4818W        W20952  14.887  10.186   6.462  0.2575  0.0917 -0.1063
 4819W        W20953   9.549   2.069   0.559 -0.1419  0.3094  0.1107
 4820W        W20954   9.902   0.717   0.185  0.1028 -0.1103 -0.1436
 4821W        W20955   5.447   2.865   5.695 -0.3382  0.0872 -0.1436
 4822W        W20956   6.199   0.977   2.178  0.2372  0.1223  0.1344
 4823W        W20957   9.349   2.788  15.297 -0.4845  0.1675 -0.2003
 4824W        W20958   5.119  11.662  13.382  0.1357 -0.0324  0.2874
 4825W        W20959   7.738  15.647   0.050 -0.1618 -0.1314  0.0490
 4826W        W20960   0.397  16.342  10.509 -0.0388 -0.1907  0.1426
 4827W        W20961  12.071   3.668   3.193 -0.2444  0.0595  0.0199
 4828W        W20962  10.826  14.660   0.755 -0.0809 -0.0603  0.2110
 4829W        W20963   2.426   8.919   2.731  0.1021  0.1344 -0.1678
 4830W        W20964  14.423  14.112  12.051 -0.2112 -0.0770  0.0765
 4831W        W20965   9.271   4.851  12.433  0.1492  0.0675  0.0983
 4832W        W20966   5.271   3.669  11.748 -0.0307 -0.3503  0.0828
 4833W        W20967  14.634   8.068  15.249 -0.0145 -0.1133 -0.1099
 4834W        W20968  12.240  14.664   0.526 -0.1745 -0.1477 -0.1439
 4835W        W20969   9.132  13.083  11.784  0.5062  0.0926 -0.0392
 4836W        W20970   2.313   4.717  13.928  0.0902 -0.1191  0.0489
 4837W        W20971   8.326  11.210  11.027 -0.0732  0.4097  0.0100
 4838W        W20972  13.311  10.147   3.549 -0.0356 -0.0101 -0.0458
 4839W        W20973  15.394  15.701   0.615 -0.2423  0.1529  0.2691
 4840W        W20974  10.123   4.210  14.252 -0.0871 -0.1906  0.2220
 4841W        W20975   8.610  11.613   2.013 -0.1610  0.0124 -0.0496
 4842W        W20976   7.184   4.417  14.787  0.0862  0.1430  0.0440
 4843W        W20977  16.639  15.488  13.105  0.2100 -0.0705 -0.0981
 4844W        W20978   7.972  10.108  15.942 -0.0986  0.0332  0.0647
 4845W        W20979   1.229  17.161   1.165  0.1121 -0.0592 -0.2351
 4846W        W20980  14.399  15.639  12.398  0.0742 -0.2030 -0.2898
 4847W        W20981  15.907   3.678  15.674 -0.1685 -0.1132  0.1397
 4848W        W20982   6.349  11.066   1.131 -0.2665  0.0865  0.2205
 4849W        W20983   5.073   5.744  13.962  0.0843 -0.1767 -0.1342
 4850W        W20984  14.200   3.432  14.182  0.2282  0.0095  0.1555
 4851W        W20985   1.019  16.933   0.737  0.0504 -0.3512  0.0976
 4852W        W20986   6.792   6.528   3.162 -0.1062 -0.1732  0.0802
 4853W        W20987  10.797   6.828  14.561 -0.1473  0.1481 -0.0004
 4854W        W20988  17.967   4.241  14.748 -0.2041  0.4885  0.0173
 4855W        W20989   3.855   8.445  13.383  0.0804  0.4861 -0.1211
 4856W        W20990  12.962  13.476   3.487 -0.0992  0.3415  0.2448
 4857W        W20991  16.840   3.070   4.092  0.0161  0.1674 -0.0500
 4858W        W20992  13.329   2.637   1.962 -0.4383  0.3466  0.1005
 4859W        W20993   8.234   2.085   1.154  0.1007 -0.0443  0.1516
 4860W        W20994   1.086  11.000  12.235 -0.0496 -0.0836 -0.0292
 4861W        W20995  14.346   5.518   0.617  0.1816  0.0007 -0.0709
 4862W        W20996  15.907   1.237  15.977 -0.0566  0.3295  0.0867
 4863W        W20997   4.387  15.897  15.037 -0.0643 -0.1678 -0.0014
 4864W        W20998  11.351   1.679   4.336  0.0260  0.0085  0.2615
 4865W        W20999   1.610   4.908  15.248  0.0430  0.1384  0.0706
 4866W        W21000  17.920   6.270   0.739 -0.2269  0.0583  0.2747
 4867W        W21001   0.860   4.854   4.274 -0.2019  0.0669  0.2657
 4868W        W21002   3.132  13.015   3.386 -0.2135 -0.0748  0.1890
 4869W        W21003   1.951  10.259  14.127 -0.1842  0.0225 -0.0316
 4870W        W21004   1.264  13.919  16.124 -0.1723  0.2091 -0.2737
 4871W        W21005   1.548  14.516  15.323  0.0574 -0.3071  0.2720
 4872W        W21006  10.062   1.429  13.278  0.2984  0.0480  0.2429
 4873W        W21007   0.770   8.632  11.248 -0.0051 -0.1137 -0.3178
 4874W        W21008  17.572   1.072   5.096 -0.1275  0.4273 -0.3004
 4875W        W21009   4.205   6.540   4.594  0.0611 -0.1761  0.0016
 4876W        W21010   4.920   5.329   1.270  0.0085 -0.0240  0.1416
 4877W        W21011   7.645   6.453  15.319 -0.1158  0.1460  0.2629
 4878W        W21012   4.190   1.021  15.333  0.0594 -0.0215 -0.1256
 4879W        W21013  16.938   3.917  12.282 -0.0300  0.0540  0.1571
 4880W        W21014   2.422   9.377   3.635 -0.0588 -0.0061  0.0566
 4881W        W21015   3.059  14.330   0.392  0.0087  0.2054 -0.1641
 4882W        W21016  10.595   2.154   4.734  0.4544  0.1233 -0.3726
 4883W        W21017  11.579   8.272   2.751  0.0837  0.2065 -0.0793
 4884W        W21018   5.053   8.541  13.966  0.0977 -0.1132 -0.0726
 4885W        W21019  16.385   7.194   5.566 -0.1097 -0.1215  0.1076
 4886W        W21020   0.688  12.308  12.678  0.2250  0.0896  0.1790
 4887W        W21021  16.482   7.670  14.232  0.0645 -0.3081 -0.0682
 4888W        W21022   9.377  14.225  12.474 -0.0024  0.0850  0.4473
 4889W        W21023   9.455   2.227  13.459  0.0918  0.0985  0.1028
 4890W        W21024  12.214  12.857  14.101  0.0467  0.0007  0.1389
 4891W        W21025  11.012   7.501   4.243  0.1726 -0.1353 -0.1267
 4892W        W21026   9.895   0.998  15.456  0.1692 -0.1262  0.3215
 4893W        W21027  11.256  12.556  11.120  0.2460 -0.0634  0.1283
 4894W        W21028  10.208   0.896  14.071  0.0997  0.3312 -0.0962
 4895W        W21029  11.033  12.169   0.022 -0.2009 -0.2596 -0.0415
 4896W        W21030  12.474   8.953  11.666  0.0561  0.0594  0.0298
 4897W        W21031   5.053   1.082   0.237 -0.0478 -0.3009 -0.1990
 4898W        W21032   2.759   9.919   1.387  0.2729  0.0537 -0.2537
 4899W        W21033   7.022   3.239   4.084 -0.0218 -0.0333 -0.0495
 4900W        W21034  11.589   9.955   3.612  0.0883  0.1037 -0.1938
 4901W        W21035  15.747  12.433   1.322  0.2024  0.0569 -0.0929
 4902W        W21036  10.223  10.572  14.418 -0.0545  0.3067 -0.0426
 4903W        W21037  15.194  15.645   2.994  0.0723  0.0901 -0.2903
 4904W        W21038  10.726  16.705  11.997  0.2120 -0.0013 -0.1242
 4905W        W21039   1.994  15.339  11.490  0.0290 -0.1234  0.2963
 4906W        W21040  12.689   0.783   5.352 -0.0141 -0.0958  0.1329
 4907W        W21041  10.053  10.089  12.983  0.0651  0.0502  0.1466
 4908W        W21042  12.829   3.716  15.675  0.2513  0.1499 -0.3207
 4909W        W21043   0.637   6.278   1.505  0.1239  0.1901  0.0864
 4910W        W21044  17.556   7.914  13.361  0.1740 -0.0423  0.0088
 4911W        W21045   2.833   3.010  14.235  0.0577  0.0993  0.0428
 4912W        W21046   0.519  16.554  14.262  0.1271  0.0239 -0.0281
 4913W        W21047   3.070  13.072  11.849  0.0407  0.0273 -0.0276
 4914W        W21048  12.119  11.853  16.462  0.1190  0.1724 -0.0590
 4915W        W21049   4.358  17.410   5.464 -0.1200  0.2189  0.3060
 4916W        W21050   5.893   1.280   1.182 -0.1678 -0.1204  0.4791
 4917W        W21051  11.948  14.814  14.543  0.2323 -0.1956  0.0058
 4918W        W21052   8.765   6.648   1.671  0.1393 -0.0209 -0.0561
 4919W        W21053  10.335   3.272  14.441 -0.1820  0.3434  0.1081
 4920W        W21054   7.332  15.960   4.760  0.0570  0.1088  0.1443
 4921W        W21055   2.587  16.465   0.171  0.1404 -0.2002 -0.2407
 4922W        W21056   5.476   7.787  16.181  0.4419  0.0692  0.3465
 4923W        W21057   5.460   8.878  15.454 -0.0553  0.2230 -0.3820
 4924W        W21058   7.117  13.982   3.882 -0.3244  0.2341 -0.4495
 4925W        W21059   8.328  17.704   2.616  0.1036 -0.1910  0.2394
 4926W        W21060  11.771   4.846  14.711  0.2565 -0.0278 -0.1273
 4927W        W21061  15.267   3.402  11.422 -0.0961  0.0820  0.3894
 4928W        W21062   7.368  10.836   3.696 -0.0460 -0.3205  0.3879
 4929W        W21063   9.425  11.360   4.280 -0.1132  0.0117 -0.1887
 4930W        W21064  10.960  16.381  14.488  0.0553  0.3321 -0.1408
 4931W        W21065  17.652  10.951  13.835 -0.1409  0.1563  0.2483
 4932W        W21066  16.718   8.970  13.205 -0.1639  0.2345  0.2036
 4933W        W21067  13.759  12.948   1.453  0.0296  0.1265  0.0080
 4934W        W21068   0.161  17.099  12.118 -0.0686 -0.0711 -0.0283
 4935W        W21069  12.461   5.359   0.907 -0.5661  0.0847  0.1444
 4936W        W21070   9.647   9.256  16.373  0.0525 -0.3764 -0.0252
 4937W        W21071   0.002  17.551   1.043 -0.1610  0.1469 -0.0014
 4938W        W21072  10.084   9.745   4.533 -0.1276  0.0811 -0.0550
 4939W        W21073   8.987  11.280   1.442  0.0620  0.0485 -0.0507
 4940W        W21074   9.381  11.865   5.615  0.0100 -0.1141 -0.1168
 4941W        W21075   1.449   5.461   3.238  0.1581 -0.0242  0.1771
 4942W        W21076   1.153   7.927  11.853 -0.0422  0.2429  0.0446
 4943W        W21077  11.136  13.634  15.000 -0.0305  0.0229  0.0765
 4944W        W21078   9.654   5.108   1.369  0.0428  0.0634  0.0249
 4945W        W21079  16.881   9.147  15.782  0.1452  0.0330  0.1688
 4946W        W21080   4.692   4.709   1.852 -0.1565 -0.0001  0.0705
 4947W        W21081   0.340   2.898  14.384  0.2734  0.3122  0.1492
 4948W        W21082   2.127   1.680   2.946 -0.3319  0.0765  0.0575
 4949W        W21083  14.486   6.732  14.078 -0.2034  0.3600 -0.3041
 4950W        W21084  15.621   5.443   4.982  0.0208 -0.3858 -0.1980
 4951W        W21085  12.841   3.968  12.395  0.0223  0.0378 -0.1183
 4952W        W21086   2.005   6.952  16.575  0.0125 -0.2348  0.0659
 4953W        W21087  10.266  11.115  12.522  0.0257  0.0393  0.2121
 4954W        W21088  12.996   2.097   2.562  0.2915 -0.2845  0.0278
 4955W        W21089   4.873   0.848  15.975  0.1808  0.0694 -0.2367
 4956W        W21090   8.858   2.142  16.623  0.2990  0.0804  0.0318
 4957W        W21091  15.088   1.802   4.342 -0.4640  0.0105 -0.0265
 4958W        W21092   5.367   3.923  12.790 -0.1114  0.1145 -0.1511
 4959W        W21093  15.053  12.708   1.265  0.2454 -0.0772 -0.2034
 4960W        W21094   8.829  16.715  10.691  0.0405 -0.1203 -0.0245
 4961W        W21095   5.153   0.111   6.519 -0.2709 -0.7295 -0.2893
 4962W        W21096   1.451  14.405   2.511  0.1218 -0.3062 -0.3519
 4963W        W21097  12.040  17.833  15.270  0.1079 -0.0564 -0.1187
 4964W        W21098   6.614  14.732   4.137  0.1736  0.0276  0.3393
 4965W        W21099  11.565   0.009  16.389 -0.0210 -0.0479 -0.0234
 4966W        W21100   5.934  14.434   3.472  0.1803  0.0219 -0.0863
 4967W        W21101   5.907   1.962  12.499  0.0381 -0.1943  0.2387
 4968W        W21102   3.585   5.439  15.110 -0.1815  0.0847  0.0082
 4969W        W21103  10.490  14.928   6.143 -0.1166  0.2079  0.2156
 4970W        W21104  17.077   1.041  12.298  0.2113  0.3739 -0.0198
 4971W        W21105   1.262  12.889  16.495  0.1488 -0.0907 -0.1777
 4972W        W21106  16.228  10.767   5.710 -0.0550  0.0618 -0.1117
 4973W        W21107   0.014  12.539  16.196 -0.0887  0.1406  0.1955
 4974W        W21108   7.192  11.684   1.766  0.0023 -0.0366 -0.0536
 4975W        W21109  11.883   2.350  15.139 -0.1436  0.1765 -0.0741
 4976W        W21110   4.425   6.987  15.924 -0.1468 -0.0551  0.0033
 4977W        W21111   9.858   8.546   0.658  0.1655 -0.1285  0.0106
 4978W        W21112   3.350  14.967  13.352  0.1553 -0.0192 -0.1891
 4979W        W21113   5.870  10.523   5.394 -0.0393 -0.0023  0.1524
 4980W        W21114  12.207   3.363  14.488  0.0820 -0.2697 -0.3582
 4981W        W21115  15.281   1.693  16.359 -0.0521  0.0941  0.1744
 4982W        W21116  16.402   2.011  13.728  0.2346  0.0135 -0.0420
 4983W        W21117   3.132   3.592  13.495  0.0610 -0.1920  0.0507
 4984W        W21118   6.210  15.543  16.504  0.1252  0.0477  0.0175
 4985W        W21119   2.761  14.783  12.571  0.2834  0.3460  0.0970
 4986W        W21120   0.003  17.075   0.840 -0.0349 -0.1064  0.1974
 4987W        W21121  11.454   3.573  15.499 -0.0233 -0.2226  0.2495
 4988W        W21122  16.731  17.910  12.650 -0.0238 -0.4913  0.1338
 4989W        W21123   1.120  16.832  12.524  0.0323 -0.1578 -0.0302
 4990W        W21124  12.441   6.822  15.336 -0.2122  0.4548  0.0851
 4991W        W21125   6.509  16.693   5.255 -0.0472 -0.0205 -0.4794
 4992W        W21126  17.017  10.149   2.136 -0.1582 -0.2377  0.0941
 4993W        W21127  13.087   6.915  12.433 -0.4727 -0.5147 -0.2254
 4994W        W21128   6.673  15.383   0.138  0.0189  0.0299 -0.1649
 4995W        W21129   3.207  16.890  13.776 -0.1303 -0.0521  0.4498
 4996W        W21130  15.380   7.056  16.080  0.2261  0.2445  0.0033
 4997W        W21131   5.653  15.261  12.477  0.2436 -0.0228 -0.3060
 4998W        W21132   3.269  14.468   5.130  0.1752 -0.1778  0.0300
 4999W        W21133   2.561   5.315   2.393  0.0369  0.1398 -0.4366
 5000W        W21134  13.700  13.038  11.513  0.3099 -0.0063 -0.0156
 5001W        W21135   8.681   7.960  10.551 -0.1205  0.1106  0.3561
 5002W        W21136   6.509   5.548   4.757  0.0491  0.0948  0.1562
 5003W        W21137  14.988   3.289  13.122 -0.0829  0.3182 -0.2411
 5004W        W21138   0.690   5.337  10.915  0.0215  0.3559 -0.0382
 5005W        W21139  12.460  12.989  12.258  0.0237  0.1256 -0.1293
 5006W        W21140   6.373   2.601  12.189 -0.1114 -0.0482  0.0192
 5007W        W21141  17.155  12.715   5.170 -0.0711  0.1847  0.0175
 5008W        W21142   3.447  12.315  13.031  0.3002  0.1206 -0.1250
 5009W        W21143   7.740  16.687  16.403  0.2218  0.1511 -0.3250
 5010W        W21144  17.328   2.492   1.632  0.1591  0.3609 -0.0560
 5011W        W21145  12.671  16.791  13.248 -0.1050 -0.1455 -0.1042
 5012W        W21146  16.553  14.288   1.834  0.3417 -0.1245 -0.1304
 5013W        W21147  17.723   6.165   1.294 -0.0476  0.1557  0.2639
 5014W        W21148  17.186   5.533   0.378  0.1775 -0.2000  0.3672
 5015W        W21149   4.732   4.914   3.350  0.3749  0.0126 -0.0597
 5016W        W21150  17.387   6.763  14.148 -0.0131  0.3058  0.0500
 5017W        W21151  10.841   9.440   3.890 -0.1912 -0.0634 -0.0103
 5018W        W21152  10.582   6.983   0.766 -0.1825  0.1839  0.3290
 5019W        W21153  12.129  11.419   1.414  0.0919  0.1468 -0.1483
 5020W        W21154   5.327  10.801  10.866  0.1176  0.1178 -0.1246
 5021W        W21155   6.512  11.388  16.263 -0.3327 -0.1903  0.3603
 5022W        W21156   0.673  16.884   4.611  0.2520 -0.0968 -0.2386
 5023W        W21157   5.350   3.921  15.516 -0.2623  0.0877  0.0485
 5024W        W21158  11.969   8.945   2.203  0.3081  0.1630  0.0700
 5025W        W21159  10.516   6.645   1.690  0.0050 -0.0161  0.1902
 5026W        W21160   3.234  16.294  12.906  0.3627  0.2596 -0.0682
 5027W        W21161  16.348   1.713   4.433  0.2571  0.1353  0.2743
 5028W        W21162  14.067  12.651   2.985  0.0809 -0.0187  0.2161
 5029W        W21163   9.713  11.688  13.603 -0.0151  0.1923 -0.0805
 5030W        W21164   4.664   6.244  11.097 -0.0753 -0.0843  0.2576
 5031W        W21165  11.158  14.239  12.975 -0.1096 -0.0850  0.0464
 5032W        W21166   3.819  16.657   5.444  0.0581  0.0866  0.1926
 5033W        W21167   4.948   3.367   1.932  0.1686  0.2423 -0.2141
 5034W        W21168  17.005   9.505  15.515  0.1971 -0.0220  0.1680
 5035W        W21169   3.298   1.546  15.208  0.3285 -0.0850  0.2208
 5036W        W21170  10.120  13.716  12.944  0.2571 -0.0473 -0.0958
 5037W        W21171  10.272   4.009  15.206  0.1727 -0.0769 -0.0142
 5038W        W21172  17.312   6.537   4.121 -0.2590 -0.0025 -0.0221
 5039W        W21173  12.029   5.443  12.023  0.1629 -0.0509 -0.0909
 5040W        W21174   0.742  12.591   2.105  0.2144 -0.3939  0.1028
 5041W        W21175   1.592  14.979  12.128  0.1079  0.0651  0.1711
 5042W        W21176  10.698  14.950  12.548 -0.1917  0.0962  0.2373
 5043W        W21177   7.604   6.959  16.275  0.0923  0.2008 -0.0596
 5044W        W21178   0.906  11.107  16.115  0.1816 -0.0267  0.3503
 5045W        W21179  13.433  10.299   4.031  0.1225 -0.1327  0.2865
 5046W        W21180   2.481   8.892   3.466 -0.2377 -0.2325  0.1732
 5047W        W21181  15.261   4.255  11.548 -0.0349  0.0576 -0.2025
 5048W        W21182   9.268   3.639  15.708  0.0475 -0.1926 -0.2808
 5049W        W21183  13.161   7.643   1.176  0.1857  0.2176  0.0779
 5050W        W21184  17.742  17.575   0.111 -0.0960 -0.2593 -0.0740
 5051W        W21185  15.556   8.869   2.744  0.0273  0.0350 -0.1019
 5052W        W21186   9.792   8.929  13.197 -0.0519 -0.2632 -0.1802
 5053W        W21187  17.369  12.197  16.677 -0.3829  0.0987  0.0143
 5054W        W21188   1.186   2.566   1.511  0.1187 -0.0236  0.1461
 5055W        W21189   7.201   1.219  14.199 -0.0604 -0.1345  0.1590
 5056W        W21190   4.261  10.992  12.965 -0.1050  0.0978 -0.1396
 5057W        W21191   3.697   7.874   1.620 -0.1294 -0.3474  0.0590
 5058W        W21192   5.657  14.519  15.953  0.1888 -0.0651 -0.2298
 5059W        W21193   5.865   4.627   1.247  0.0153  0.1347  0.0156
 5060W        W21194   1.590   4.682  14.672  0.0973 -0.3053  0.1770
 5061W        W21195   2.106  10.974   1.061 -0.1301 -0.1706 -0.0691
 5062W        W21196  14.105  11.215   2.774  0.0268 -0.2685  0.2906
 5063W        W21197  17.021   9.191  14.344 -0.2829  0.2239  0.1029
 5064W        W21198   4.087   4.218   2.157 -0.1678 -0.0348  0.0114
 5065W        W21199   2.844   9.841   0.822  0.1019 -0.0103 -0.1385
 5066W        W21200  12.102   4.887   2.685  0.2786  0.0856 -0.3213
 5067W        W21201  12.948  13.187  16.140  0.0746 -0.0088  0.3569
 5068W        W21202   9.108   8.633  13.342 -0.1665  0.1157 -0.1114
 5069W        W21203  11.677  11.261   4.495  0.0762 -0.2889 -0.6746
 5070W        W21204  15.105  12.797   3.516  0.0190  0.3729  0.2230
 5071W        W21205  15.845  10.769  15.234 -0.1844 -0.2393 -0.0599
 5072W        W21206  13.325   9.586  14.614  0.0612 -0.2689  0.0110
 5073W        W21207  10.635   6.622  11.903  0.0435  0.1009 -0.0064
 5074W        W21208   2.512   6.307  13.017  0.1599 -0.0179 -0.1850
 5075W        W21209   6.717   4.355  15.735  0.1123 -0.0304  0.5119
 5076W        W21210   1.649   2.327  14.531 -0.4813 -0.3231  0.1669
 5077W        W21211   2.332   2.810  12.445 -0.2519 -0.0987  0.2613
 5078W        W21212  11.502   2.566   4.832 -0.1601 -0.2497 -0.1034
 5079W        W21213   9.263   0.431  15.909 -0.1904 -0.0794 -0.3180
 5080W        W21214  17.666   5.706   2.359  0.3135 -0.3018  0.1212
 5081W        W21215   2.324  13.514  12.710 -0.2945 -0.0488  0.3117
 5082W        W21216   2.837  17.806  12.671  0.0747  0.1182 -0.1415
 5083W        W21217  10.589   7.080   5.583  0.2835  0.0129  0.0185
 5084W        W21218  17.139   9.008   2.029  0.1851  0.2698  0.2203
 5085W        W21219   6.269   0.247   4.267 -0.1040  0.2215 -0.0346
 5086W        W21220  11.364   0.311  13.881  0.0628 -0.0459 -0.0082
 5087W        W21221   1.217  16.394   0.703  0.0976  0.0458 -0.1754
 5088W        W21222   4.623  13.765   1.968 -0.0411  0.0484  0.1130
 5089W        W21223  15.763   8.199   1.573 -0.0470  0.2455  0.2053
 5090W        W21224  13.934  14.116   2.950 -0.1676 -0.1091 -0.1586
 5091W        W21225   6.506   4.557   3.000 -0.0744 -0.0758 -0.2822
 5092W        W21226   1.434   9.794  16.693  0.0386 -0.1193  0.0272
 5093W        W21227  12.590   1.036  14.942 -0.1933  0.5889  0.0798
 5094W        W21228  15.375   3.673  13.082  0.4064 -0.1828  0.1044
 5095W        W21229   0.778  10.592   4.191  0.0049  0.2594 -0.1156
 5096W        W21230   7.221  13.288   3.051 -0.0608 -0.0633 -0.1020
 5097W        W21231   8.356  13.442  10.749  0.0793 -0.0008 -0.2362
 5098W        W21232   5.863  15.033   3.374 -0.3496  0.0427 -0.0702
 5099W        W21233   9.430  10.617   0.085 -0.0809  0.2538 -0.0142
 5100W        W21234  17.037   1.327   1.342 -0.0405  0.1218 -0.2211
 5101W        W21235  15.519   3.304  11.887 -0.0876  0.0356 -0.2088
 5102W        W21236   0.317   4.643  15.101 -0.1161 -0.1051  0.2643
 5103W        W21237  13.511   9.368   5.195  0.0572  0.1903  0.4866
 5104W        W21238  12.777   8.153   4.685 -0.1930  0.1769  0.3590
 5105W        W21239  11.904   7.519   0.677  0.1216 -0.2844  0.0598
 5106W        W21240   1.668   6.241   4.780  0.4073  0.0064 -0.2705
 5107W        W21241  15.019   2.273   4.561 -0.3510 -0.2163 -0.1851
 5108W        W21242  17.486  15.534   0.068  0.1361  0.0688 -0.3243
 5109W        W21243   3.106   1.307   6.018 -0.0604 -0.1164  0.3196
 5110W        W21244   6.773   6.289   0.519  0.1407 -0.0464 -0.1863
 5111W        W21245  16.874   2.228   2.205  0.3122  0.2297  0.1052
 5112W        W21246   8.595   3.041   0.387  0.1819  0.0257  0.0637
 5113W        W21247  12.462   3.397  12.093 -0.2202  0.0009  0.4528
 5114W        W21248  13.180  16.878  13.604  0.3479 -0.0659  0.1654
 5115W        W21249  10.184  15.834  14.581 -0.0109 -0.1224 -0.1557
 5116W        W21250   3.215   0.303  13.870 -0.0890  0.1076 -0.3144
 5117W        W21251   1.094  11.830   5.244 -0.0768 -0.0618  0.2436
 5118W        W21252   5.357   2.367  11.369 -0.0163  0.1036  0.1091
 5119W        W21253   2.380   9.731   0.508 -0.1523 -0.2714  0.1675
 5120W        W21254   0.242   2.707  16.359  0.1475  0.0534  0.1034
 5121W        W21255   8.426   4.981   5.673 -0.3702 -0.0227  0.2211
 5122W        W21256  14.576   9.731   1.245 -0.1300  0.5487  0.1279
 5123W        W21257   4.836  12.385   1.801  0.1626 -0.2452 -0.2632
 5124W        W21258  15.946   9.294   4.981 -0.1532 -0.0021 -0.0487
 5125W        W21259   9.605  11.934  16.418  0.1550  0.2523 -0.1020
 5126W        W21260  11.741   4.751   2.298  0.0304  0.1145 -0.1830
 5127W        W21261   6.066   6.471  13.313  0.2693 -0.5030  0.0565
 5128W        W21262  13.496   7.743  11.669  0.0839  0.1548 -0.0169
 5129W        W21263   6.037   7.670  12.952  0.0546  0.2035  0.1478
 5130W        W21264   4.545   8.922   2.510 -0.0046  0.0793  0.2984
 5131W        W21265  12.102  16.590  11.409  0.0560 -0.0301  0.0521
 5132W        W21266   8.712  16.850  13.518  0.0778  0.1694 -0.3252
 5133W        W21267   1.123  17.089   4.748  0.2653  0.4188 -0.1214
 5134W        W21268   1.317  15.526  15.307 -0.0044 -0.1157  0.1400
 5135W        W21269   3.936   2.303   0.861 -0.3130  0.0529 -0.1341
 5136W        W21270   9.291   8.140  14.342 -0.0949 -0.0359 -0.1002
 5137W        W21271   9.335   7.788  14.773 -0.1493 -0.1523 -0.2962
 5138W        W21272   5.047  11.734  12.815  0.2409 -0.2039 -0.0390
 5139W        W21273   0.538   4.017   5.551  0.0175  0.0483 -0.2001
 5140W        W21274  16.795   2.923   1.428  0.0588 -0.3058  0.3805
 5141W        W21275  14.621  12.262  15.365 -0.2826 -0.0786  0.0407
 5142W        W21276   1.747   4.201   1.019  0.0315  0.1750  0.0703
 5143W        W21277  11.299   6.549   3.337 -0.0717  0.1585 -0.4557
 5144W        W21278   6.717   6.528  15.377 -0.1191 -0.2190 -0.0393
 5145W        W21279   3.751  10.524  15.460 -0.0702  0.1772 -0.2645
 5146W        W21280  17.541  10.771   4.538 -0.3699  0.2535 -0.3449
 5147W        W21281   0.460   9.675  13.574  0.0568  0.0020  0.0904
 5148W        W21282  14.695  13.932   2.536 -0.3654 -0.1694  0.0089
 5149W        W21283  14.491   4.816   3.577  0.2847  0.0265 -0.0799
 5150W        W21284   7.273  10.242  13.781  0.1932  0.0835  0.0102
 5151W        W21285  12.835  12.887  12.828 -0.1468 -0.2653  0.1819
 5152W        W21286  11.640   9.086   4.874 -0.1580 -0.2056  0.0741
 5153W        W21287  14.585  13.886  14.106 -0.1341  0.0397  0.0174
 5154W        W21288  17.454   4.916   4.731 -0.1740 -0.1314  0.0183
 5155W        W21289   6.967   3.485  15.245  0.0729 -0.2075  0.0478
 5156W        W21290  10.736   3.846  14.018 -0.1578  0.1162  0.2113
 5157W        W21291  12.308   2.401  11.802 -0.0732 -0.3480 -0.0844
 5158W        W21292  16.933  15.066  14.816  0.1315 -0.0402  0.3286
 5159W        W21293  14.975   7.194   2.803  0.2423 -0.1558 -0.1937
 5160W        W21294   4.339   1.057  13.117  0.0842 -0.1604  0.1736
 5161W        W21295  11.051  10.065   3.699  0.2629  0.0786  0.0678
 5162W        W21296  12.002   0.693  11.774 -0.1340  0.0307 -0.1203
 5163W        W21297  14.655   7.628   0.659 -0.1768  0.5629 -0.3412
 5164W        W21298  13.509   1.635   2.572 -0.1162  0.1405  0.0076
 5165W        W21299  12.640  12.519  13.865 -0.0358 -0.0430  0.3903
 5166W        W21300   5.997   3.456   4.426  0.0394  0.0895 -0.1568
 5167W        W21301   8.886   5.816   3.086  0.2969  0.0667  0.2564
 5168W        W21302   1.266  15.538  12.667 -0.2649  0.3476 -0.4974
 5169W        W21303   3.849  16.402  14.978  0.1998  0.1590 -0.0467
 5170W        W21304  17.221   4.524  15.328  0.1207 -0.3552  0.1102
 5171W        W21305  11.845  10.932  15.624  0.1381  0.0290  0.5227
 5172W        W21306  17.581  13.532   4.230  0.2068  0.1161  0.0276
 5173W        W21307  15.200  16.025   4.870  0.0871 -0.1153  0.3950
 5174W        W21308   0.873  10.121   4.279 -0.0314 -0.1492  0.1559
 5175W        W21309   2.850  16.240  13.640 -0.5521 -0.1290  0.0209
 5176W        W21310  15.690  10.700   3.226 -0.0259  0.0975 -0.0077
 5177W        W21311   2.145   3.481   1.082 -0.0833  0.2730 -0.2898
 5178W        W21312   9.656  13.981   4.052 -0.0680 -0.2597  0.0476
 5179W        W21313  10.314  13.145  11.072 -0.3947 -0.1903  0.1024
 5180W        W21314   0.137  12.689  15.461  0.1311 -0.3081  0.0138
 5181W        W21315  12.854  11.932  16.055  0.0807 -0.1685 -0.0762
 5182W        W21316  15.278  17.914   3.242 -0.1416 -0.1592 -0.3467
 5183W        W21317   0.987   3.974  13.443 -0.1454 -0.0242 -0.1462
 5184W        W21318  12.070  12.232  13.033  0.1618  0.2287 -0.1155
 5185W        W21319  11.274  14.911  14.092  0.1065  0.1360 -0.0043
 5186W        W21320  15.723   8.311  16.557 -0.1129 -0.1128 -0.1823
 5187W        W21321   8.976  15.846  12.070 -0.0028  0.0575 -0.0210
 5188W        W21322   0.642   9.617   2.111  0.0504 -0.1148 -0.1848
 5189W        W21323   5.119  14.374   6.020 -0.3501  0.4274  0.1347
 5190W        W21324   2.387   3.154  15.242 -0.0787 -0.1821 -0.0513
 5191W        W21325   3.915   4.221  13.298  0.0516 -0.0197 -0.0548
 5192W        W21326  12.405   6.245   0.940 -0.1221 -0.3892 -0.1364
 5193W        W21327  16.008   3.288   4.069 -0.1451  0.0431  0.2014
 5194W        W21328   1.177   8.579   1.822 -0.1869 -0.2009  0.2804
 5195W        W21329  16.511   2.706   0.572 -0.0051  0.2626 -0.1325
 5196W        W21330  10.461   9.932   1.843 -0.0641 -0.1945  0.1628
 5197W        W21331  12.465  11.233   1.073 -0.1179 -0.0247  0.0681
 5198W        W21332  10.500   5.854   3.146  0.1953 -0.2278 -0.1545
 5199W        W21333   7.618   0.564  13.988 -0.2778 -0.1129  0.0583
 5200W        W21334  13.264  16.209   2.940 -0.0993 -0.2169  0.0874
 5201W        W21335   9.236   4.174  11.611 -0.0531  0.4552  0.0440
 5202W        W21336  12.146   1.010  14.706  0.4760 -0.0883  0.3669
 5203W        W21337   3.649   6.367   5.246 -0.3197 -0.1437  0.0776
 5204W        W21338   6.726   3.406   3.555  0.2468  0.0285 -0.1473
 5205W        W21339  10.474  13.754   3.430 -0.1206 -0.0321  0.0514
 5206W        W21340   3.648   4.753   4.036  0.0673 -0.2640 -0.1541
 5207W        W21341  17.003   8.055   5.244  0.0597 -0.3872  0.1554
 5208W        W21342   5.456  11.599  15.957 -0.1122 -0.1897  0.3148
 5209W        W21343   6.143  17.161   2.593  0.1902  0.3047 -0.2735
 5210W        W21344   9.410   3.289  16.116  0.1167  0.2683  0.1653
 5211W        W21345  14.166  12.406  15.257 -0.1205  0.0979  0.2521
 5212W        W21346   0.621  12.255   0.629  0.1318 -0.0466 -0.0758
 5213W        W21347  10.631   5.290   0.107 -0.0832  0.0634  0.2077
 5214W        W21348   0.514  17.198  13.812 -0.0304  0.3117  0.1175
 5215W        W21349   9.934   6.622  13.795 -0.1618 -0.2538  0.2245
 5216W        W21350  13.667   1.153  15.227  0.0832  0.1777 -0.0530
 5217W        W21351   7.827   2.304   3.561 -0.0203 -0.1559 -0.2835
 5218W        W21352   3.034  16.498   4.352  0.2057  0.2451  0.2172
 5219W        W21353  13.371  17.546   4.921 -0.1075 -0.0497 -0.1824
 5220W        W21354   0.625  12.400   2.595  0.1352 -0.0242  0.0680
 5221W        W21355   8.008  17.056  15.211  0.2080 -0.1825  0.1269
 5222W        W21356  14.781   6.277  14.011  0.0294  0.0385  0.2203
 5223W        W21357   6.047  13.169   5.601  0.0406 -0.0403  0.1364
 5224W        W21358   8.080   3.323   0.991  0.2706  0.0815  0.5961
 5225W        W21359   1.991  15.361  13.571  0.0775 -0.2371  0.0981
 5226W        W21360   1.067   7.413  15.142 -0.1272  0.2853 -0.2334
 5227W        W21361  13.796   5.154   3.503  0.1660 -0.1389  0.0994
 5228W        W21362  16.984   8.067  16.271 -0.0144  0.1331 -0.0601
 5229W        W21363   1.779  16.356   5.690  0.3230  0.0502  0.0575
 5230W        W21364   6.358  11.927  15.398 -0.0983 -0.2716 -0.1350
 5231W        W21365   9.289   2.494   5.760 -0.1882 -0.3337  0.1519
 5232W        W21366  16.701  12.321   5.020 -0.4133  0.1622  0.2273
 5233W        W21367   4.316   5.044   2.058 -0.1783  0.0670  0.2439
 5234W        W21368   2.221   6.519  12.072 -0.2939 -0.2798 -0.1434
 5235W        W21369   5.005  14.670  14.147 -0.2177 -0.1765 -0.1243
 5236W        W21370   7.270   3.162   1.998  0.1519 -0.4373  0.1402
 5237W        W21371   1.293  15.237   4.764  0.2011  0.0976 -0.0523
 5238W        W21372   1.773   0.091   3.084 -0.2581 -0.1384 -0.0651
 5239W        W21373  14.708  14.328   1.931 -0.1255 -0.0550 -0.3215
 5240W        W21374  10.706   6.774   1.217  0.0327 -0.2478  0.4014
 5241W        W21375  15.078   1.834   4.887 -0.2143  0.1146 -0.2273
 5242W        W21376   9.682   3.740   1.693  0.0896  0.1308  0.3259
 5243W        W21377  12.042  15.260   3.163 -0.1756  0.0826 -0.2155
 5244W        W21378  17.605   6.621  16.436  0.2470 -0.0140 -0.0002
 5245W        W21379  13.933   8.191  13.587  0.3397  0.1652  0.0607
 5246W        W21380   3.481   4.517   0.389  0.0219  0.1798 -0.2412
 5247W        W21381   9.366  16.882   5.249 -0.0752 -0.0091  0.0206
 5248W        W21382   4.792  13.795   0.543  0.2934 -0.2544  0.1275
 5249W        W21383  14.624  14.018   1.147 -0.0493 -0.0732  0.0267
 5250W        W21384   7.256   7.499  13.791  0.1969 -0.1134  0.2426
 5251W        W21385   2.145  10.061  14.651  0.0544  0.0070 -0.0772
 5252W        W21386  15.999  13.025   6.064 -0.0059  0.3705  0.1136
 5253W        W21387   7.137   4.807   5.068 -0.0772  0.0304 -0.0045
 5254W        W21388   3.935  14.615   3.576 -0.1486  0.2905 -0.0401
 5255W        W21389  17.164   9.845  14.733 -0.0839  0.0092  0.0532
 5256W        W21390   6.672  14.505  15.777 -0.0914  0.3068 -0.2169
 5257W        W21391  12.221  17.010  13.006 -0.3646  0.2045  0.0015
 5258W        W21392  13.276  10.507  13.471  0.4186  0.0741  0.0163
 5259W        W21393   7.892   4.299  11.881 -0.1856 -0.0108  0.1686
 5260W        W21394   8.220  17.019   0.952  0.2313  0.1242 -0.2127
 5261W        W21395  17.942   3.805   2.207 -0.0185 -0.0871  0.1459
 5262W        W21396  14.935  14.452   1.046  0.2786 -0.0621 -0.2554
 5263W        W21397   6.395  14.484  15.319 -0.3120  0.0460 -0.1609
 5264W        W21398   4.322  16.387  13.673  0.0987  0.0806  0.1920
 5265W        W21399  13.788   7.906   0.573 -0.0331 -0.2308 -0.0612
 5266W        W21400   8.102   9.759  16.611 -0.0487 -0.0737 -0.1019
 5267W        W21401   0.775   3.407   4.507  0.0992  0.0593 -0.1083
 5268W        W21402   7.082  17.324   2.810 -0.1946 -0.1614  0.1211
 5269W        W21403  17.574  10.283   1.139 -0.3949 -0.0393 -0.1284
 5270W        W21404   8.309  15.368  16.566  0.1744 -0.0586 -0.0061
 5271W        W21405  14.433  16.308   4.425  0.1937  0.0086  0.0352
 5272W        W21406  12.375   7.171   0.977  0.1015 -0.0436 -0.0862
 5273W        W21407  15.024   8.844  11.643 -0.1905  0.2302 -0.0129
 5274W        W21408   7.199  17.828  11.779  0.1092 -0.0066  0.1069
 5275W        W21409  14.143   3.546   4.289  0.0379  0.2041  0.0896
 5276W        W21410  12.179   3.461   0.907  0.1874  0.2349  0.0407
 5277W        W21411  11.373   7.678   4.595 -0.1478  0.1668  0.0753
 5278W        W21412  16.292   5.206  13.857  0.0880  0.1109 -0.4447
 5279W        W21413   3.983   8.391  14.689  0.0454 -0.1307  0.3788
 5280W        W21414  16.707   1.554   0.077  0.0579  0.1024  0.0846
 5281W        W21415  14.624  11.154  16.371 -0.1673 -0.1512 -0.1492
 5282W        W21416  16.344   4.205  14.958  0.1650 -0.2240 -0.2928
 5283W        W21417   8.313  14.374   0.583 -0.1641 -0.2468 -0.2180
 5284W        W21418  14.200   3.959  10.790 -0.0833 -0.0473  0.2341
 5285W        W21419   8.124   5.359   2.864 -0.1123  0.1236 -0.0387
 5286W        W21420  13.776   0.846  12.577 -0.3246 -0.0181 -0.0370
 5287W        W21421   1.664  16.729  14.521  0.0010 -0.0121  0.1255
 5288W        W21422   0.058   6.130   2.172 -0.0738  0.2281 -0.0814
 5289W        W21423  12.228  10.515   3.380  0.0993 -0.0193 -0.2054
 5290W        W21424  13.648   6.868   1.398  0.1981  0.1870 -0.3568
 5291W        W21425   9.059  13.339  13.189 -0.2141  0.0832  0.1860
 5292W        W21426   9.820  11.993  12.624  0.0178 -0.1210  0.1638
 5293W        W21427  17.392   0.490  16.362 -0.2050 -0.1693  0.0103
 5294W        W21428   5.864  10.584   1.314  0.0394 -0.2147 -0.0417
 5295W        W21429  14.771   2.764   3.487 -0.0927  0.1065  0.0027
 5296W        W21430  17.289  11.613  12.034 -0.1462  0.0670  0.0477
 5297W        W21431   8.688  11.812   3.765 -0.1787 -0.3621  0.0006
 5298W        W21432  11.384  17.724   4.518 -0.2251 -0.2367 -0.2672
 5299W        W21433   9.826  16.627   2.664  0.0602 -0.0197 -0.1745
 5300W        W21434   6.518   4.877  11.095  0.1182  0.1364  0.0042
 5301W        W21435  15.009  11.646  14.168  0.0316 -0.4026  0.1241
 5302W        W21436   7.480   1.342   5.561  0.0951 -0.3304 -0.0210
 5303W        W21437  12.359   5.228   5.123  0.1401  0.2069  0.0676
 5304W        W21438   9.646   2.729   0.137 -0.1242 -0.0259 -0.5091
 5305W        W21439   9.285   4.791  15.002 -0.1069 -0.1463  0.0031
 5306W        W21440   3.748   4.188  15.023 -0.0268  0.0648 -0.2604
 5307W        W21441  12.575   3.434   0.563 -0.2327  0.0859  0.1215
 5308W        W21442  12.309   2.594  13.685 -0.0448  0.0823 -0.1265
 5309W        W21443   5.711   6.047  16.567  0.0957  0.2290  0.1471
 5310W        W21444   9.529   1.439  13.123  0.1428 -0.0503 -0.0925
 5311W        W21445  12.412  13.155   4.786  0.0293 -0.0297 -0.0248
 5312W        W21446  15.721  17.905   3.606  0.2289 -0.0302 -0.3500
 5313W        W21447   4.222   5.089  16.260  0.0601 -0.1307 -0.0064
 5314W        W21448   0.666   8.473   4.139 -0.0004  0.0465 -0.4451
 5315W        W21449   4.294  14.548  16.185  0.1801  0.1950 -0.0455
 5316W        W21450   2.794   0.981  12.232 -0.2040 -0.0276 -0.1692
 5317W        W21451   9.275   8.877   0.624 -0.0953 -0.0202  0.1586
 5318W        W21452   9.788   8.759   2.109  0.0410 -0.2472  0.0864
 5319W        W21453   3.548   4.641  14.986 -0.0678  0.0087  0.3000
 5320W        W21454   7.100   6.622   1.806  0.2003 -0.1993 -0.2186
 5321W        W21455  13.559   7.935  12.686  0.0344  0.1188 -0.1038
 5322W        W21456  17.335   0.497   6.327 -0.2271  0.0050 -0.0200
 5323W        W21457  17.881  12.401  12.276 -0.1814  0.1586 -0.3324
 5324W        W21458   5.032   7.448   2.382 -0.0054 -0.1324  0.0026
 5325W        W21459  13.728   6.509  16.519 -0.0977 -0.0518  0.0151
 5326W        W21460   2.958  14.144  13.635 -0.0945 -0.0563  0.0225
 5327W        W21461  10.310  11.850  12.925  0.0899 -0.0217 -0.1817
 5328W        W21462  10.981   2.063  12.932  0.1785 -0.0092 -0.0422
 5329W        W21463   3.558   3.709  12.654 -0.0260  0.0445 -0.1522
 5330W        W21464   1.479   7.809   1.185 -0.1606  0.0140  0.1783
 5331W        W21465   7.428  11.208   2.871  0.1792  0.0053 -0.2148
 5332W        W21466  10.965  17.040   5.026  0.0772  0.2598  0.1542
 5333W        W21467   9.350  12.159  15.915  0.1981 -0.1662 -0.0387
 5334W        W21468  10.255  10.757   1.665  0.1076  0.4253  0.1705
 5335W        W21469  10.059   5.480   3.768 -0.0460 -0.2707 -0.0823
 5336W        W21470   6.937  11.637  13.197  0.1533 -0.0179  0.2076
 5337W        W21471   4.168  12.543   4.539  0.4142  0.0306  0.0753
 5338W        W21472  14.018   6.266  13.492 -0.0492 -0.0295 -0.1249
 5339W        W21473  11.955   1.443  16.231 -0.0342  0.0326  0.1738
 5340W        W21474  14.558   8.361   0.202 -0.0550  0.0373  0.2614
 5341W        W21475   8.109  14.953   2.352  0.0658 -0.3970  0.0710
 5342W        W21476   3.153   2.192   0.268 -0.0828 -0.2890 -0.0155
 5343W        W21477  14.799   3.133   5.537 -0.1015 -0.4272  0.1001
 5344W        W21478  10.087   2.649   3.626  0.0622  0.2361 -0.2915
 5345W        W21479  13.952  11.588  13.117 -0.0886  0.1541  0.1194
 5346W        W21480   7.143   8.310   4.643  0.0063  0.1558 -0.0789
 5347W        W21481  17.851   6.382  16.059 -0.0113 -0.1941  0.0783
 5348W        W21482   8.294   2.597   1.187  0.1923 -0.1249 -0.1075
 5349W        W21483   2.715  16.875   1.854  0.1365  0.1669 -0.2670
 5350W        W21484  15.911   8.895  12.142 -0.0234 -0.0489  0.1974
 5351W        W21485   3.393   1.094   3.889 -0.4515 -0.2312 -0.0766
 5352W        W21486   2.776  14.214   3.632  0.2084 -0.1159 -0.0731
 5353W        W21487   7.478  15.649   4.333  0.2644  0.1430 -0.0103
 5354W        W21488   2.438  15.441   2.971  0.1470 -0.0451  0.0279
 5355W        W21489  14.426  17.697  13.601  0.1586 -0.1095 -0.2176
 5356W        W21490  14.699   6.945   4.723 -0.1641  0.1159 -0.2354
 5357W        W21491   6.467   0.733  15.467 -0.0314  0.0157  0.0956
 5358W        W21492  10.613   0.432   2.729 -0.4835  0.1627 -0.0814
 5359W        W21493  10.452   0.286  13.169 -0.1751  0.3208  0.3725
 5360W        W21494   2.422  11.660  13.144  0.2195  0.4873 -0.0027
 5361W        W21495   7.265   0.341  13.770  0.2695 -0.4357  0.0753
 5362W        W21496   1.003   6.196  13.254  0.3652 -0.0212  0.1953
 5363W        W21497   9.930   3.365  14.167  0.1841 -0.1750  0.2859
 5364W        W21498   4.570   6.873  12.703 -0.0800  0.0698 -0.5458
 5365W        W21499   3.724  16.342   5.849 -0.0763 -0.0218 -0.1384
 5366W        W21500   5.930   8.319  11.506  0.0711 -0.0473  0.2698
 5367W        W21501   4.087  17.674   0.419  0.3603  0.0896  0.2097
 5368W        W21502  11.541   7.549   2.654  0.2470  0.1306 -0.0237
 5369W        W21503   5.258   2.557   2.541  0.0098 -0.3619  0.2680
 5370W        W21504   1.510   2.857  11.517  0.4891  0.0883 -0.0870
 5371W        W21505  14.728   1.000  13.738 -0.0788 -0.2204 -0.0776
 5372W        W21506   7.569   3.863   0.219 -0.0475 -0.1156 -0.2816
 5373W        W21507   1.284  16.421   6.155  0.0450  0.1076  0.4308
 5374W        W21508  16.926   2.709  16.505 -0.1516 -0.3276 -0.0838
 5375W        W21509  11.761   2.416  13.682  0.0206 -0.4294  0.0813
 5376W        W21510  10.616   1.835  14.284 -0.0830  0.1012 -0.4482
 5377W        W21511  12.845  13.148   1.656  0.2272 -0.1448  0.2045
 5378W        W21512  11.940   0.873  11.248 -0.1661  0.1067 -0.0426
 5379W        W21513  13.717  12.641  15.158  0.0283 -0.0946 -0.0568
 5380W        W21514   2.278   5.381  10.414 -0.0165  0.2635  0.0262
 5381W        W21515  14.575  10.481  15.438  0.1220 -0.2267 -0.1328
 5382W        W21516  11.489   3.200  15.817 -0.0039  0.2406 -0.0625
 5383W        W21517   3.700  16.109  12.958 -0.1434 -0.1971  0.0310
 5384W        W21518   8.411  11.582  14.778 -0.0797  0.0083  0.0221
 5385W        W21519   8.946   6.914   6.083  0.1185  0.1312  0.1625
 5386W        W21520   4.667  16.766   0.469 -0.2904 -0.1351  0.0675
 5387W        W21521  13.154   4.271   4.475  0.1292 -0.0218  0.1134
 5388W        W21522   8.134   3.539   1.881  0.0810 -0.0990  0.3246
 5389W        W21523  12.907  11.608  13.889 -0.0592 -0.0421 -0.0666
 5390W        W21524   9.249  12.340   5.457  0.0966 -0.1707  0.0941
 5391W        W21525  11.406   8.593   4.815  0.3218  0.0011 -0.0015
 5392W        W21526  16.893  16.203   2.578  0.0103  0.1549 -0.1457
 5393W        W21527  16.345  10.951   2.759 -0.3081 -0.1453 -0.1739
 5394W        W21528   2.193  16.815   4.190  0.0480  0.2056 -0.2831
 5395W        W21529   7.980   3.025  13.345 -0.3411  0.1189 -0.1605
 5396W        W21530   0.433   8.985  14.671  0.1955 -0.2423  0.0095
 5397W        W21531  14.148   5.385  14.226 -0.0496  0.0723 -0.1942
 5398W        W21532  10.488   4.428   4.234 -0.2183 -0.2023  0.0336
 5399W        W21533   2.284  16.575  15.663  0.0040 -0.2085  0.0516
 5400W        W21534  11.082   4.564   5.054  0.0204  0.0305  0.0602
 5401W        W21535  10.088   4.240   4.892 -0.0162 -0.0641 -0.0609
 5402W        W21536  14.574  17.904  11.777 -0.1216 -0.1424  0.3740
 5403W        W21537  11.320  16.049   1.509 -0.1545  0.2706  0.1777
 5404W        W21538  15.419  10.322   0.449 -0.1416 -0.0828  0.0833
 5405W        W21539   2.516   7.938   1.120 -0.1370  0.1738 -0.2466
 5406W        W21540   1.967  10.274  15.662 -0.4945 -0.0923 -0.3217
 5407W        W21541   8.178   8.102   1.407 -0.1041 -0.1578 -0.1501
 5408W        W21542   3.883   2.436  13.015 -0.1370 -0.0163  0.1298
 5409W        W21543   3.437   6.230   1.808 -0.0557  0.2169  0.0483
 5410W        W21544  17.798  11.863  12.355 -0.1390 -0.2106  0.0736
 5411W        W21545  16.368   2.844   2.624  0.2788  0.1898  0.1082
 5412W        W21546  16.113   5.567   4.839 -0.3936 -0.4067  0.1450
 5413W        W21547  10.695  16.186   5.519 -0.1288 -0.0716 -0.2182
 5414W        W21548  17.681   4.084   4.954  0.0377 -0.0012  0.0871
 5415W        W21549   4.649   7.499   5.330 -0.0214 -0.3531 -0.0669
 5416W        W21550   5.391   3.177  13.239  0.2385  0.3062 -0.0673
 5417W        W21551   2.656  11.016  14.532 -0.1381  0.0085 -0.2126
 5418W        W21552   3.720   9.148  15.314 -0.2930  0.0964 -0.0970
 5419W        W21553   1.077   4.024  14.452  0.3254 -0.2705  0.1058
 5420W        W21554   0.552   3.160  11.580  0.0260 -0.0547  0.0821
 5421W        W21555  14.006  15.767   1.928 -0.2004  0.0152  0.0538
 5422W        W21556   6.844  14.443  16.668 -0.1774 -0.1903  0.1875
 5423W        W21557  11.601   1.483   2.563 -0.1113 -0.1864 -0.1028
 5424W        W21558  15.393  10.577   5.357 -0.1487 -0.2825  0.1461
 5425W        W21559  11.484   4.300   2.961  0.1057 -0.0266  0.1106
 5426W        W21560   7.692   8.164   3.774  0.3009  0.0465  0.0750
 5427W        W21561   1.494   7.623   3.578  0.0494 -0.0259 -0.0997
 5428W        W21562   7.169  12.443  13.894  0.1247 -0.0994 -0.1522
 5429W        W21563  14.668   8.952   0.205 -0.1895 -0.0633 -0.1129
 5430W        W21564  12.640   1.645   5.328 -0.1579  0.3882  0.0589
 5431W        W21565   1.673   1.403   5.548  0.0229  0.2218  0.0629
 5432W        W21566   5.648   2.526   2.169  0.3052 -0.2519 -0.0272
 5433W        W21567  13.303   3.072  14.014  0.0977  0.2533 -0.1655
 5434W        W21568  17.285  17.578  12.626 -0.0168 -0.1036 -0.0878
 5435W        W21569  10.842   7.732  16.244  0.3216 -0.2517  0.2436
 5436W        W21570  16.758   1.386   4.190  0.0028 -0.2233 -0.1404
 5437W        W21571  16.328   6.154  12.765  0.1233  0.0574  0.3570
 5438W        W21572   7.014   5.246  13.110 -0.0566 -0.3560 -0.1199
 5439W        W21573  14.570   8.995  11.931  0.2492  0.0914  0.1931
 5440W        W21574   1.091   9.711  12.649  0.0597  0.0331  0.2840
 5441W        W21575   1.465  14.165   3.329  0.0126  0.1852 -0.3059
 5442W        W21576   4.266   0.429   3.945 -0.2170  0.2661 -0.0340
 5443W        W21577   9.349   6.659  13.966 -0.2198 -0.2081 -0.2384
 5444W        W21578   5.442  17.167   3.545 -0.0161  0.2681 -0.2882
 5445W        W21579  10.020  14.156  10.278  0.2211 -0.1579  0.1924
 5446W        W21580  10.956  16.579   0.751 -0.0255  0.0831 -0.0207
 5447W        W21581   4.433   8.900   5.687 -0.0196 -0.0270  0.1110
 5448W        W21582   5.673  10.557   4.482  0.0035 -0.1970 -0.0517
 5449W        W21583   6.370  17.225   5.192  0.1052 -0.0157 -0.2415
 5450W        W21584  12.852   5.253   4.452 -0.1591  0.1084  0.0199
 5451W        W21585   7.817   1.047   5.834 -0.0801 -0.0918  0.2865
 5452W        W21586   1.697   0.567  12.986 -0.1164  0.2174  0.2200
 5453W        W21587  15.705  14.182  15.105 -0.0176  0.0360  0.0868
 5454W        W21588  11.854   9.194  14.508  0.0346 -0.0252  0.1107
 5455W        W21589   1.093   9.913  16.250  0.3513  0.3178  0.1410
 5456W        W21590   9.669  13.084  15.772  0.2263 -0.0071 -0.2791
 5457W        W21591   2.818  12.520  15.359 -0.0774  0.3484 -0.0331
 5458W        W21592   8.885   0.012   5.114 -0.0197 -0.1055 -0.0327
 5459W        W21593  12.144  15.230   0.708  0.1847  0.1082 -0.1765
 5460W        W21594   4.276   6.910  16.527 -0.0745 -0.0431  0.0243
 5461W        W21595   9.388  17.050   3.595  0.2095 -0.2969 -0.2896
 5462W        W21596  17.187  14.821  15.988  0.1923  0.0246  0.1103
 5463W        W21597  16.367   8.737  11.997  0.3029 -0.1063 -0.0163
 5464W        W21598  10.714  17.733   1.685 -0.1459  0.2092 -0.2039
 5465W        W21599  14.059   5.775  15.474 -0.1260 -0.0473  0.0435
 5466W        W21600  15.821  16.757   5.001  0.0430  0.1309  0.0555
 5467W        W21601  15.890   4.783  13.907  0.2219  0.2743 -0.3227
 5468W        W21602   9.292   2.413   1.194 -0.0296 -0.0417 -0.0871
 5469W        W21603  13.233  10.971  13.738  0.1216  0.1507 -0.1163
 5470W        W21604   2.974  12.218   0.710 -0.0690 -0.0282 -0.1935
 5471W        W21605   8.385   1.299  13.978  0.1610 -0.3021  0.1697
 5472W        W21606   6.766  15.072   3.757 -0.2162 -0.1950  0.0544
 5473W        W21607   0.638  17.321  12.078  0.0973 -0.0848 -0.2600
 5474W        W21608   3.288  14.313   0.856 -0.0745  0.1151 -0.0840
 5475W        W21609  14.362  10.795   3.043 -0.1487 -0.1511  0.0212
 5476W        W21610  16.990  16.550   1.461 -0.1483  0.1162 -0.0203
 5477W        W21611  10.709  14.024  11.638  0.0393 -0.0713  0.0244
 5478W        W21612  12.924   1.612  12.260  0.1173 -0.3193  0.1164
 5479W        W21613  16.459  17.383  14.308  0.2384 -0.0236  0.1229
 5480W        W21614   4.885   4.371   1.055 -0.2578  0.0465  0.2584
 5481W        W21615   5.798   2.456  14.129 -0.1913 -0.0141 -0.1051
 5482W        W21616   8.631   4.741   4.157  0.0422  0.0060 -0.0810
 5483W        W21617   5.236  14.645  15.254 -0.0861 -0.1095  0.1878
 5484W        W21618   9.193   0.703   3.957  0.0828  0.1179 -0.3106
 5485W        W21619  11.522  12.534  14.409  0.3465  0.2356 -0.0083
 5486W        W21620  11.036  12.438  13.568  0.1374 -0.0551  0.2245
 5487W        W21621   4.470  16.976   3.758 -0.2624  0.0069  0.1794
 5488W        W21622   6.870   2.089  14.661 -0.2322  0.0106 -0.0233
 5489W        W21623   3.567  15.353   0.847 -0.1008 -0.1887 -0.2416
 5490W        W21624   2.732  14.660   5.506  0.1806  0.0543  0.1018
 5491W        W21625  10.512   6.533  14.829 -0.0860  0.0320  0.0738
 5492W        W21626  15.168  12.973   2.342 -0.0433 -0.2436 -0.1457
 5493W        W21627  17.661   5.353  13.795  0.1861 -0.1715 -0.1143
 5494W        W21628   4.764  17.747   5.572 -0.0945 -0.3620  0.0262
 5495W        W21629   2.319   8.937   3.904 -0.1465  0.0975 -0.0220
 5496W        W21630  10.070  17.460  16.592  0.0897 -0.2129 -0.2341
 5497W        W21631   2.672   0.527   1.822  0.1172  0.3932 -0.1186
 5498W        W21632  11.918  13.787   2.938  0.3141  0.1437 -0.3512
 5499W        W21633   4.182   9.886  14.573 -0.2753  0.0501  0.0185
 5500W        W21634  13.350   6.983   4.996 -0.0751  0.1340 -0.0565
 5501W        W21635   6.364   2.986   2.012  0.0435 -0.1885  0.0934
 5502W        W21636  13.521   8.864  14.040  0.3054  0.0758 -0.1199
 5503W        W21637   9.258  10.310   4.132  0.0799  0.2741 -0.0663
 5504W        W21638  12.898   3.271  13.182  0.0867  0.0094  0.0708
 5505W        W21639  12.716  17.738  16.544 -0.0119 -0.3131  0.0460
 5506W        W21640   6.774  17.914  13.052 -0.2018 -0.0799 -0.3399
 5507W        W21641   7.726   9.052   6.030  0.1293 -0.3749  0.1969
 5508W        W21642   9.969  17.405  14.139 -0.0231  0.1023 -0.0301
 5509W        W21643   8.594   1.699  12.802  0.1137 -0.2293 -0.2501
 5510W        W21644   2.089   5.500   4.302  0.1136 -0.2065 -0.0589
 5511W        W21645   2.393  14.010  12.372 -0.0566  0.1799 -0.0499
 5512W        W21646   8.586   1.721  13.728  0.1526  0.3175  0.1733
 5513W        W21647   3.596   4.039   2.134  0.2111  0.0670 -0.6118
 5514W        W21648  15.007   4.172   2.597 -0.3039  0.1809  0.1744
 5515W        W21649  17.571   2.950  12.708  0.1163  0.0100 -0.0938
 5516W        W21650  10.524  16.849   2.206 -0.1894 -0.3228 -0.0222
 5517W        W21651   3.907  16.322  15.575 -0.1570  0.2625  0.0588
 5518W        W21652   5.499   3.501   4.478  0.0130 -0.1267 -0.2063
 5519W        W21653   9.247  16.667  11.048  0.2167 -0.1888  0.1239
 5520W        W21654  12.449  16.496   3.444  0.3026 -0.1753 -0.0926
 5521W        W21655  10.402   6.071   2.448  0.2646 -0.2944 -0.1530
 5522W        W21656   3.928   3.701   0.244  0.0200 -0.1630 -0.0775
 5523W        W21657  14.821   3.001  15.931 -0.1513 -0.1309 -0.3092
 5524W        W21658  15.452  12.925  15.291 -0.0061  0.0742 -0.1413
 5525W        W21659  13.406  15.692  12.271 -0.0161 -0.0804 -0.2358
 5526W        W21660  10.417  11.714   1.896  0.0050  0.2030 -0.4463
 5527W        W21661  11.076   3.977  13.350  0.4181  0.2687  0.2520
 5528W        W21662  13.089   5.594  15.668 -0.1431  0.0183  0.1194
 5529W        W21663  14.200  10.605   4.759  0.2280  0.1265  0.1974
 5530W        W21664  16.493   2.769  16.720  0.1223  0.1720 -0.0800
 5531W        W21665   3.576  17.882  14.580  0.3570 -0.1032 -0.0817
 5532W        W21666  10.431   2.623   3.221  0.3131 -0.2077 -0.3140
 5533W        W21667  15.508  14.686  15.108 -0.1175 -0.0436  0.0594
 5534W        W21668   4.351   3.256  12.934  0.3368  0.2312  0.4101
 5535W        W21669  10.915  14.984   2.711 -0.0737 -0.0419  0.1222
 5536W        W21670  15.077   0.764  16.722 -0.1482 -0.1726  0.4467
 5537W        W21671  16.785   1.895  12.108  0.0590  0.0604 -0.3806
 5538W        W21672  17.547  14.320   3.848 -0.0589 -0.1446  0.0994
 5539W        W21673   2.554  12.771  13.896  0.2450  0.2301  0.0718
 5540W        W21674   1.973  13.483  16.034 -0.1005  0.1076 -0.3522
 5541W        W21675  11.299  13.113   0.528  0.1951 -0.3071  0.1817
 5542W        W21676  10.897   8.048  11.420  0.0191  0.1999 -0.0330
 5543W        W21677  14.996  12.985  14.241 -0.0638 -0.0677 -0.0606
 5544W        W21678  10.360   4.729   1.946  0.0113 -0.0461 -0.0052
 5545W        W21679   6.381   3.930   5.413 -0.2271  0.5776 -0.2852
 5546W        W21680   5.371   3.533  15.814  0.3057  0.2249 -0.1953
 5547W        W21681   1.894  15.928   3.699  0.1094 -0.1449  0.0339
 5548W        W21682  11.148   3.154  16.647  0.0194 -0.1682  0.0380
 5549W        W21683  12.548   3.691   1.240  0.2456  0.2127  0.0283
 5550W        W21684  14.406  13.908   4.374  0.1046 -0.0334 -0.0510
 5551W        W21685   0.941   9.768   5.181  0.1332 -0.1530  0.0971
 5552W        W21686   0.001  14.520  11.894 -0.1865 -0.2029 -0.2508
 5553W        W21687   9.276  16.224  13.836  0.2471 -0.0173  0.0536
 5554W        W21688   5.641   8.060  12.918  0.2058  0.0633  0.0029
 5555W        W21689  11.999   7.328  13.937  0.1535  0.0454  0.2757
 5556W        W21690  14.031  17.542   2.760 -0.0379  0.0144  0.1706
 5557W        W21691   4.241   4.862   5.428  0.0399 -0.1209  0.2912
 5558W        W21692  17.797   6.181   3.391  0.0647  0.1374 -0.2221
 5559W        W21693  15.455  14.457   4.598 -0.1341 -0.2509 -0.2361
 5560W        W21694   4.899   3.693   2.801 -0.4790 -0.4049  0.0033
 5561W        W21695   1.416   2.536   4.263 -0.2473 -0.1369 -0.0268
 5562W        W21696   5.987   2.835   5.668 -0.1264 -0.1886  0.0020
 5563W        W21697   9.477   5.198  16.566 -0.0383  0.2681  0.0308
 5564W        W21698  11.420  10.602   0.217 -0.3778  0.2597  0.2879
 5565W        W21699   7.556   6.069  13.323 -0.1730  0.0192  0.1416
 5566W        W21700  13.343  15.699   0.222  0.2798 -0.1239 -0.0082
 5567W        W21701  16.621   6.994   1.757 -0.0700  0.0820  0.0510
 5568W        W21702   5.095   5.989  12.847 -0.0674 -0.1903  0.0512
 5569W        W21703  11.352   1.267  14.551  0.2214  0.1725  0.0312
 5570W        W21704  13.462   5.127  16.171  0.0743 -0.1623 -0.0233
 5571W        W21705  16.777   5.256   4.379 -0.1517  0.0764  0.3511
 5572W        W21706  14.654   2.574  12.060 -0.2569  0.0471  0.3381
 5573W        W21707   1.983   8.601   4.046 -0.1082  0.2648 -0.3504
 5574W        W21708  15.730   4.095   4.932  0.0544 -0.0945  0.0922
 5575W        W21709  11.609   4.448  12.249  0.2354 -0.0766  0.0751
 5576W        W21710  17.554   5.466  15.620  0.1395 -0.1745  0.3945
 5577W        W21711   3.768   7.418  13.426 -0.0416  0.1084 -0.1449
 5578W        W21712  10.148  10.619   4.444 -0.0026 -0.0795 -0.0142
 5579W        W21713   8.878  10.691  11.617 -0.1511 -0.0251 -0.0019
 5580W        W21714  16.297  17.272   2.065  0.1143 -0.2426  0.0266
 5581W        W21715   3.075  11.214   2.541  0.2258  0.0020  0.1601
 5582W        W21716   1.045  16.653  14.320 -0.1429  0.1364  0.0289
 5583W        W21717  14.008   7.206   3.900 -0.1927 -0.1674 -0.2111
 5584W        W21718  11.411  10.499  11.307  0.0546 -0.2853 -0.2035
 5585W        W21719   1.127   6.037  12.485 -0.1153  0.2500 -0.1637
 5586W        W21720   1.890   7.414   0.041  0.1036  0.3105 -0.1524
 5587W        W21721  16.598   1.160  15.423 -0.2034  0.0862 -0.0329
 5588W        W21722  14.954  10.540   2.642  0.1250 -0.0895 -0.0714
 5589W        W21723   3.930   8.854  16.278  0.3506  0.0092 -0.0493
 5590W        W21724  10.777   3.289   4.446 -0.0176  0.0773 -0.0037
 5591W        W21725   1.014  12.223   1.509 -0.1244 -0.0296 -0.0393
 5592W        W21726   6.749  12.719  13.856  0.0181 -0.3096  0.1882
 5593W        W21727  16.246  13.305  14.427 -0.0480  0.1404  0.1278
 5594W        W21728  12.301  10.294  12.627 -0.0478  0.3358 -0.1431
 5595W        W21729  10.903  10.875   3.204  0.0759 -0.2264  0.1937
 5596W        W21730   9.252  17.286   3.987  0.1146 -0.0913 -0.1723
 5597W        W21731  17.867   2.150   2.955 -0.2820 -0.1032  0.1899
 5598W        W21732   9.889   0.666  15.893 -0.2685  0.0388  0.2867
 5599W        W21733  12.040   7.538  15.356  0.1418  0.0976 -0.0636
 5600W        W21734  15.471  16.227  16.068  0.1401 -0.1132  0.0478
 5601W        W21735   9.091   9.692   0.094  0.3020 -0.0357 -0.3956
 5602W        W21736   8.193  14.864   0.622 -0.0225 -0.0254  0.1473
 5603W        W21737   5.467   1.734   1.026  0.1257 -0.1084 -0.1096
 5604W        W21738   1.881   2.670   4.497 -0.0147 -0.2582  0.1527
 5605W        W21739  16.885  11.273   5.296  0.0753 -0.2573  0.1214
 5606W        W21740   2.295  15.753  11.567  0.0974  0.1743  0.1898
 5607W        W21741   1.587   6.266   1.258  0.0462 -0.2580  0.0824
 5608W        W21742  15.736  11.588   5.680  0.0777  0.0670  0.0857
 5609W        W21743   0.682   3.932  15.925  0.0185 -0.1595 -0.0351
 5610W        W21744   9.599   1.781  13.549 -0.2742  0.1445 -0.2629
 5611W        W21745   2.495  17.899   1.133  0.0120  0.0194 -0.1653
 5612W        W21746   3.895  13.356  14.468  0.0622 -0.2431  0.0868
 5613W        W21747  13.480  12.057  12.306 -0.2171  0.2176  0.2862
 5614W        W21748  15.751  17.617  12.255  0.2815 -0.1586  0.1824
 5615W        W21749   6.864   4.720   3.381 -0.2426  0.0298  0.1339
 5616W        W21750  11.761   3.565  14.285  0.0640 -0.0802  0.3497
 5617W        W21751   5.600  14.571  13.472 -0.1981  0.2024  0.2521
 5618W        W21752  10.334   9.500   3.637  0.1840 -0.1813  0.3319
 5619W        W21753  14.916  14.318   3.759 -0.0595 -0.2241  0.2351
 5620W        W21754   5.173   5.648   2.546 -0.1178 -0.2927  0.2001
 5621W        W21755  15.154  16.598  13.156 -0.0129  0.1775  0.0746
 5622W        W21756   5.422  12.816   4.401 -0.0590  0.2338 -0.2546
 5623W        W21757   0.298  14.449   5.210  0.1689  0.0219  0.2166
 5624W        W21758   1.200   5.579   1.732  0.0088 -0.2871 -0.2994
 5625W        W21759  16.043   9.889   3.878  0.3147 -0.0130 -0.0407
 5626W        W21760  10.099  15.372   0.413 -0.0240  0.0519  0.3279
 5627W        W21761   0.554   2.868   2.968  0.4198 -0.0785 -0.1997
 5628W        W21762  13.875  10.065   4.699 -0.1126 -0.0385  0.1297
 5629W        W21763   8.678  11.035  12.630  0.2668 -0.4208  0.0363
 5630W        W21764  13.637  13.887  14.476 -0.3874  0.2772  0.0464
 5631W        W21765  11.183   9.323  12.505  0.0369  0.0918 -0.0794
 5632W        W21766  10.500   9.944   2.902 -0.0951 -0.2624 -0.0674
 5633W        W21767  11.339   8.508   4.187  0.1208  0.0397 -0.0383
 5634W        W21768  17.202  12.207   4.883 -0.0277 -0.1154 -0.1699
 5635W        W21769   2.406   9.593  13.449 -0.2551  0.2573 -0.1999
 5636W        W21770   2.687   7.263   4.322 -0.0718  0.1169  0.2569
 5637W        W21771  12.066  14.496  12.817  0.3525  0.1041  0.2053
 5638W        W21772   2.465  13.000   3.926 -0.0997 -0.1453  0.0062
 5639W        W21773  16.111   8.566  14.182 -0.1577  0.2589  0.0902
 5640W        W21774   6.639   5.490   4.245  0.0435  0.0342 -0.1008
 5641W        W21775  11.424  11.489   1.065  0.0155 -0.0766  0.2372
 5642W        W21776  16.433  14.111  15.740 -0.1323  0.3217 -0.4278
 5643W        W21777  16.892  11.270   2.073 -0.0260 -0.0075 -0.0349
 5644W        W21778   6.788   5.768   1.357 -0.0757 -0.0787 -0.2138
 5645W        W21779  11.011  14.213   1.861 -0.0333 -0.0193  0.0621
 5646W        W21780   6.481   1.702   1.682 -0.0719 -0.3291  0.3834
 5647W        W21781   2.896  16.391   5.307  0.1732  0.2929 -0.0619
 5648W        W21782   8.863   6.813   4.135  0.1478  0.0734  0.0264
 5649W        W21783  15.072  15.430  16.040 -0.0897 -0.0247  0.0070
 5650W        W21784  14.985   7.745  15.972  0.0616  0.0167  0.0308
 5651W        W21785   2.366  15.033   6.431 -0.1104 -0.1338  0.1103
 5652W        W21786   9.745   0.036   3.704  0.1766 -0.6259  0.3012
 5653W        W21787  14.379   3.265   2.332 -0.2164 -0.0684 -0.3678
 5654W        W21788   5.458  16.868  14.041 -0.1000 -0.0734 -0.0550
 5655W        W21789   3.304   6.481   3.411  0.0661  0.2442  0.1065
 5656W        W21790  13.927   1.864   2.766  0.0095  0.2264  0.0521
 5657W        W21791   7.852   4.247   3.439  0.1709  0.0065 -0.3926
 5658W        W21792  11.682   5.929   1.349  0.0644 -0.0316  0.0570
 5659W        W21793   0.898  11.385   2.577  0.3596 -0.3283  0.1808
 5660W        W21794  16.470  11.510  13.325 -0.0337  0.3521 -0.0258
 5661W        W21795   6.046  13.803   0.957 -0.0773  0.0111  0.0727
 5662W        W21796  14.230  11.773   2.479  0.1105 -0.5941 -0.1725
 5663W        W21797  15.724  17.879   2.332 -0.2973  0.3204  0.1417
 5664W        W21798  16.498  10.431   2.709 -0.3833  0.0465  0.2308
 5665W        W21799   4.071   4.402   3.307  0.3782 -0.1056 -0.3840
 5666W        W21800   3.505  12.820  11.805 -0.1178 -0.1762 -0.0564
 5667W        W21801  11.944   0.500   3.828  0.0225 -0.0861 -0.1017
 5668W        W21802   8.885   3.647  12.873 -0.0937 -0.2637  0.1881
 5669W        W21803  14.458   3.075   1.846  0.0826  0.0039 -0.1269
 5670W        W21804   4.712   9.598   2.096  0.1030  0.0122  0.0231
 5671W        W21805   6.746   3.819   0.914  0.3162 -0.3848 -0.2583
 5672W        W21806  10.683   5.421  12.559  0.0137 -0.2974  0.1113
 5673W        W21807  12.719  11.900   0.707  0.2794 -0.3376 -0.0432
 5674W        W21808  14.153   2.136  13.162  0.0749  0.2034  0.0144
 5675W        W21809   1.358   5.473   3.720  0.2104 -0.0170  0.3294
 5676W        W21810   7.083   5.427   3.585 -0.0616  0.3285 -0.2608
 5677W        W21811  16.547   9.649   3.551 -0.3583  0.1282  0.3530
 5678W        W21812   6.138   7.093  11.999  0.0569 -0.4391  0.1945
 5679W        W21813  16.093   4.784   5.317  0.0133 -0.2319  0.2030
 5680W        W21814   7.356   9.202   4.867 -0.0480 -0.0188 -0.0967
 5681W        W21815  14.841  12.084   1.977  0.3430 -0.1008 -0.2345
 5682W        W21816  17.940  14.384  14.604 -0.0027  0.1028 -0.1142
 5683W        W21817   1.689  11.435   3.056  0.1386  0.0448 -0.2004
 5684W        W21818  11.659  11.493  12.741 -0.0974  0.1190  0.1574
 5685W        W21819  16.918   3.458  12.040  0.0736  0.3267 -0.1706
 5686W        W21820  13.131  12.255   5.901  0.2736  0.1836  0.1707
 5687W        W21821   3.360  15.519  12.508  0.1055  0.1818 -0.3610
 5688W        W21822   4.513   5.800   3.912 -0.2178 -0.0245 -0.0349
 5689W        W21823   7.781   5.980   5.483  0.0379 -0.0485 -0.0412
 5690W        W21824   5.316  16.184   3.968  0.0589  0.2521  0.1076
 5691W        W21825   7.927  15.745   2.660 -0.3098  0.0425 -0.2877
 5692W        W21826  17.818   7.432  16.342  0.0518 -0.0880 -0.1527
 5693W        W21827  17.484  14.486   5.556  0.0105  0.0919 -0.0189
 5694W        W21828   6.785   2.430  14.320  0.0660  0.2751  0.0792
 5695W        W21829   4.310  17.410   4.309  0.1457  0.0544  0.1501
 5696W        W21830  11.070  15.992   4.673 -0.1502 -0.3115 -0.0442
 5697W        W21831  17.324   2.309   3.075 -0.1733  0.2779 -0.2290
 5698W        W21832  12.546   9.191  15.006  0.0242  0.0106  0.0856
 5699W        W21833   0.802   5.037  11.305 -0.0280 -0.3841  0.0011
 5700W        W21834  12.922   7.871   5.154 -0.1331 -0.2175  0.0010
 5701W        W21835  10.611   1.950  14.842 -0.2066  0.1234  0.0894
 5702W        W21836  10.364   8.490  14.213  0.0536 -0.1231  0.0153
 5703W        W21837   0.856  14.065   1.131  0.0091  0.0770  0.2117
 5704W        W21838  13.603   5.489   2.233  0.0562  0.1370  0.1281
 5705W        W21839   2.767  12.181  11.404  0.1399  0.0263 -0.0187
 5706W        W21840  12.416   3.285   0.116  0.2571  0.0796 -0.0349
 5707W        W21841   2.046   8.370   0.228 -0.0223 -0.0558  0.0346
 5708W        W21842  13.434   5.427   3.923 -0.1420  0.0328 -0.1772
 5709W        W21843  10.911   1.659   0.412 -0.0809 -0.1391 -0.0753
 5710W        W21844   1.399  14.060   6.038  0.1441 -0.2240 -0.0821
 5711W        W21845  14.513   6.235  14.400 -0.1662 -0.1653 -0.3306
 5712W        W21846   1.662   9.030   4.912 -0.1967  0.1618  0.1715
 5713W        W21847  13.773  13.660  16.677 -0.0813  0.2751 -0.0162
 5714W        W21848   7.653   5.105   4.950 -0.0905 -0.2378 -0.2544
 5715W        W21849   4.351  10.761   3.443  0.0274  0.0106  0.0557
 5716W        W21850   0.183   8.583   5.470 -0.1615 -0.1540 -0.1924
 5717W        W21851   0.612   2.424   5.758  0.2549 -0.1170 -0.1856
 5718W        W21852   1.022   7.044   0.870 -0.2406  0.0163 -0.1922
 5719W        W21853   8.338   2.980   3.805  0.1769 -0.1189 -0.0934
 5720W        W21854  14.567  12.908  15.990 -0.2108  0.1481  0.0218
 5721W        W21855   5.961   6.509   0.138  0.0611 -0.0919  0.0282
 5722W        W21856   7.152  16.364   1.731 -0.1616  0.0707  0.1051
 5723W        W21857   1.187   3.618  14.233 -0.0376 -0.3698 -0.0442
 5724W        W21858   9.874   5.377   1.760  0.1616  0.0333 -0.1510
 5725W        W21859   3.634  13.354  15.698 -0.1523  0.3956  0.2667
 5726W        W21860   8.930   0.572  14.493  0.0586 -0.2785  0.0694
 5727W        W21861   4.637   6.231  14.596  0.4346  0.0997  0.1891
 5728W        W21862   6.703   0.509  14.080 -0.0032  0.3076 -0.2129
 5729W        W21863   0.488  13.969  16.051 -0.2788  0.1651 -0.0599
 5730W        W21864   0.176  12.776   5.215  0.0106 -0.0670  0.0213
 5731W        W21865  11.909  15.409  11.816 -0.2914  0.0568  0.2468
 5732W        W21866  10.917  15.772  15.075  0.0287  0.2127  0.4286
 5733W        W21867   0.505  14.456   5.885  0.0056 -0.2369  0.1046
 5734W        W21868   0.978   7.274   0.427  0.0780 -0.0887 -0.1640
 5735W        W21869   6.064  16.251   0.970  0.0939  0.1518 -0.2033
 5736W        W21870  14.915   6.133   1.683  0.0373 -0.1973 -0.0082
 5737W        W21871  10.246  13.439   1.107 -0.0431  0.4149  0.0641
 5738W        W21872  16.868   6.189  14.818  0.2944  0.1658 -0.0032
 5739W        W21873   0.144  14.546  13.604  0.0283 -0.2911 -0.1943
 5740W        W21874  11.151  12.296   1.277 -0.1849 -0.2790 -0.4908
 5741W        W21875  17.432   3.690  12.171 -0.2934 -0.1446 -0.0342
 5742W        W21876   3.868   9.563   2.421 -0.3308  0.2680  0.1376
 5743W        W21877  12.966  11.108   4.326 -0.1991  0.2618 -0.2095
 5744W        W21878   0.474  17.188   5.396 -0.0208 -0.2579  0.1047
 5745W        W21879   0.709   6.699  14.583 -0.2742  0.0528  0.1707
 5746W        W21880  13.102  13.765   0.600 -0.1005  0.0611  0.4256
 5747W        W21881  11.626  12.107   1.477 -0.2002 -0.3737 -0.3241
 5748W        W21882  17.890   8.634  13.590  0.3621  0.4204  0.0895
 5749W        W21883   1.814   4.911   2.346 -0.4680  0.0582  0.1747
 5750W        W21884   7.297   1.272  13.446 -0.2223  0.0668 -0.0020
 5751W        W21885  13.819   4.370   1.229  0.2301  0.1350 -0.0670
 5752W        W21886  11.696   3.993   3.285 -0.0027 -0.1863  0.2023
 5753W        W21887   3.383   3.926  15.750 -0.0255 -0.1901 -0.1688
 5754W        W21888   1.688   5.309   1.372 -0.0470  0.1116  0.1491
 5755W        W21889  10.418   6.864   2.885  0.1302 -0.0526 -0.1697
 5756W        W21890  16.370  12.333  14.930 -0.2719  0.0224 -0.0644
 5757W        W21891   2.923  12.012  11.987 -0.1917 -0.1979  0.3538
 5758W        W21892   6.759  13.110   4.989 -0.1882 -0.0237  0.1439
 5759W        W21893   6.586  14.169  14.901  0.0661  0.2178  0.2027
 5760W        W21894   6.492   1.607   1.154 -0.1186 -0.0384  0.1017
 5761W        W21895   1.550   7.094   5.852 -0.2265  0.0525  0.2270
 5762W        W21896   9.642   4.481  16.542  0.2690  0.1451 -0.0231
 5763W        W21897   2.634   7.809  16.153 -0.2528  0.1644  0.0971
 5764W        W21898   2.826  10.772  16.168 -0.0521  0.3129 -0.0468
 5765W        W21899  10.277   7.061   4.588  0.0112 -0.1680 -0.0065
 5766W        W21900  15.888  10.005  11.686  0.0246 -0.0341 -0.1156
 5767W        W21901   3.038  15.981  14.469 -0.3181  0.0278  0.0797
 5768W        W21902   8.011   0.526   4.948  0.1640  0.0659  0.1225
 5769W        W21903  11.598  17.152  15.719  0.2107 -0.1059  0.1153
 5770W        W21904   8.413  16.316  14.684 -0.2120  0.0580  0.0515
 5771W        W21905  16.329   7.868  11.762 -0.0474  0.4190  0.0656
 5772W        W21906   9.589  13.228   2.133  0.0015  0.0731 -0.0010
 5773W        W21907   8.055   1.635  13.825 -0.2562 -0.1386  0.0383
 5774W        W21908   9.531  11.091   3.887 -0.0751 -0.1347  0.0373
 5775W        W21909   6.901   3.725  14.376 -0.1274 -0.1827  0.2196
 5776W        W21910   5.877  12.625  16.424 -0.1997  0.1836  0.0344
 5777W        W21911   8.358  15.259   5.063 -0.1799  0.4669  0.0616
 5778W        W21912   3.383  11.616   4.202 -0.2601  0.0644 -0.3724
 5779W        W21913  15.565   3.237  16.485  0.1639 -0.1273  0.0743
 5780W        W21914   7.977   4.511  12.467 -0.1438  0.1594 -0.2958
 5781W        W21915  14.414   8.191  11.458 -0.0765 -0.3470  0.1343
 5782W        W21916  15.820   9.417   1.704  0.0488 -0.3607  0.0219
 5783W        W21917  15.437   4.796  14.719  0.0156  0.2312  0.0010
 5784W        W21918  15.577  10.934  12.591  0.2652  0.3232  0.0169
 5785W        W21919   6.810  16.759  14.372 -0.1777  0.1272 -0.0172
 5786W        W21920   0.523  15.840   5.093 -0.0491  0.1761 -0.0312
 5787W        W21921   1.827  15.784   1.063  0.0106 -0.0060 -0.2666
 5788W        W21922   0.267   3.579  16.125 -0.2314 -0.3170 -0.1717
 5789W        W21923  12.728   4.892   0.697 -0.0695  0.1416 -0.0221
 5790W        W21924   9.990   2.716   2.700  0.0458  0.0234  0.1176
 5791W        W21925   9.689  15.520   2.636  0.1295 -0.5230  0.1226
 5792W        W21926  14.582  16.372   0.181 -0.1295  0.2908 -0.0459
 5793W        W21927  17.584  10.154  11.623  0.0067 -0.1450  0.2907
 5794W        W21928   4.213   6.633   2.039  0.2828  0.0065 -0.1295
 5795W        W21929   7.320  10.328   5.004 -0.1352  0.0892 -0.2043
 5796W        W21930   0.837   7.397   1.202 -0.1730  0.1095 -0.3293
 5797W        W21931   0.289  15.597   1.849 -0.0736 -0.4030 -0.1758
 5798W        W21932  12.517  14.828  15.781 -0.1980 -0.1962 -0.2945
 5799W        W21933  15.780   8.038   0.210  0.0442  0.3189  0.2058
 5800W        W21934   3.279  12.258  11.522  0.2572  0.1410 -0.3008
 5801W        W21935   4.768   5.313  14.730  0.0973 -0.0665  0.0426
 5802W        W21936  15.942   8.422   3.964 -0.1244 -0.2980 -0.3414
 5803W        W21937   1.341   9.563  13.580  0.1416  0.0636 -0.2776
 5804W        W21938  10.525   3.005  16.357 -0.0924 -0.2344 -0.0204
 5805W        W21939  10.651   8.684   3.629  0.3412  0.1192 -0.1519
 5806W        W21940  10.495  14.691  15.622 -0.3256  0.0412 -0.1087
 5807W        W21941  15.535  12.971   2.915  0.2097  0.1740 -0.2236
 5808W        W21942   5.076   7.149  12.596 -0.0894  0.1235 -0.2018
 5809W        W21943  12.743   8.329   5.315 -0.0713  0.0140 -0.0519
 5810W        W21944  11.044   6.049  13.448  0.3418  0.0417 -0.2857
 5811W        W21945   6.330   2.548   1.705 -0.0669  0.1021  0.0625
 5812W        W21946  14.759   1.815  14.145 -0.0692 -0.0351 -0.1432
 5813W        W21947   0.073   7.988  12.306 -0.2151  0.2470  0.1823
 5814W        W21948   8.015  16.587   5.309  0.1379  0.2369  0.1312
 5815W        W21949   3.442  14.557   3.888  0.1332 -0.1454 -0.1689
 5816W        W21950   2.473  17.764   5.694 -0.1177  0.1071 -0.0752
 5817W        W21951   0.159   2.657  11.639  0.0693 -0.1880  0.1061
 5818W        W21952   8.177  16.478   0.890  0.1956  0.1835  0.3529
 5819W        W21953  10.248   7.041   1.354 -0.1283 -0.1545 -0.1593
 5820W        W21954  17.270   1.351  16.006 -0.0740 -0.0737 -0.1954
 5821W        W21955   7.428  10.359   3.975  0.4601 -0.2166 -0.0416
 5822W        W21956  14.372   2.442   3.675 -0.2415  0.1083  0.0820
 5823W        W21957   2.893  12.900   2.041 -0.2080 -0.2039 -0.1579
 5824W        W21958  15.257   1.674  15.737 -0.1341  0.2618 -0.0865
 5825W        W21959   8.426  16.206   5.226  0.0584  0.0496  0.2195
 5826W        W21960   1.041   1.559   5.470  0.0813  0.0884  0.3383
 5827W        W21961  13.450  13.441   3.285  0.0555 -0.0744 -0.0649
 5828W        W21962   2.717   1.323  16.437 -0.2385 -0.0755 -0.2276
 5829W        W21963  11.579   3.685  10.947  0.2386  0.7092  0.1091
 5830W        W21964  13.507  12.999  16.126 -0.0482 -0.0237  0.2489
 5831W        W21965   0.164  10.201  14.957 -0.2734  0.1946 -0.1540
 5832W        W21966   7.623   1.268   4.375 -0.1432 -0.2221  0.0734
 5833W        W21967  11.727   1.210   5.094  0.2062  0.1000 -0.4148
 5834W        W21968  14.707   3.891   1.673 -0.1953 -0.1174 -0.2158
 5835W        W21969  17.582   0.169   5.334  0.0416  0.1468 -0.0559
 5836W        W21970  16.053  10.971   4.615  0.1641  0.0368 -0.1307
 5837W        W21971   9.944  14.501  11.759 -0.0580  0.0602  0.1281
 5838W        W21972   0.807   3.451  16.106  0.1230 -0.0654 -0.0087
 5839W        W21973  13.624  16.852  15.350  0.0889  0.0825 -0.3351
 5840W        W21974  13.362  15.351  11.869 -0.0265  0.2274  0.1556
 5841W        W21975  13.705  14.384  14.594 -0.3474  0.2251 -0.1819
 5842W        W21976   7.850   1.172  16.212  0.1046  0.1551 -0.2627
 5843W        W21977   5.211   9.506   1.863 -0.0165 -0.1446 -0.0109
 5844W        W21978   7.586  12.874   5.846  0.1207 -0.1972 -0.2037
 5845W        W21979   3.448   4.063  13.553  0.2864 -0.1730 -0.2340
 5846W        W21980   1.533   2.384   0.408 -0.0598  0.0539 -0.2539
 5847W        W21981   3.995   5.872  12.507  0.1033 -0.1062 -0.1031
 5848W        W21982   5.515   7.995  11.457  0.0177 -0.0485 -0.0784
 5849W        W21983  10.180   2.739  14.983 -0.4719 -0.0023  0.0852
 5850W        W21984  13.877   2.926   4.149 -0.2261 -0.0945  0.1389
 5851W        W21985  13.404  13.153   4.943 -0.0388  0.2035  0.0027
 5852W        W21986   2.397   6.321   2.608 -0.0942 -0.0390  0.2940
 5853W        W21987   9.718  16.611   2.038  0.1401  0.0577  0.0207
 5854W        W21988  16.430   1.230  14.949  0.3116 -0.0289  0.1044
 5855W        W21989   0.068  12.160   0.549  0.2623 -0.0113 -0.3068
 5856W        W21990  17.904   6.421   2.805 -0.0277  0.3128 -0.0289
 5857W        W21991  14.278   1.272  13.558  0.1241  0.2036 -0.1560
 5858W        W21992   9.848  12.319  12.240 -0.2300 -0.1473  0.0433
 5859W        W21993   6.864   3.905   5.336  0.1547 -0.2684 -0.2343
 5860W        W21994  16.154  10.363  14.646 -0.0899  0.1289  0.0524
 5861W        W21995   0.324  10.145   1.408  0.2121 -0.2653  0.3123
 5862W        W21996   0.293   8.234   0.212  0.1257  0.1595 -0.3953
 5863W        W21997   7.120   0.223  15.190 -0.4593 -0.1014  0.1687
 5864W        W21998  10.031  11.891   4.037  0.0621 -0.3837  0.2165
 5865W        W21999   6.979   4.930  11.315  0.1351 -0.0168 -0.0402
 5866W        W22000   5.649  12.094   1.405  0.3997 -0.1723 -0.0514
 5867W        W22001   0.973   9.916   0.145 -0.0751 -0.1605  0.2207
 5868W        W22002  12.794   4.353   4.119 -0.0223 -0.0994  0.0302
 5869W        W22003   1.063   8.858   2.367 -0.0045  0.2730 -0.1247
 5870W        W22004   3.742   8.729  13.819 -0.3381  0.0259  0.0220
 5871W        W22005   9.298  12.402   3.940 -0.0259  0.0131 -0.0365
 5872W        W22006   9.543   1.964  16.455  0.0100 -0.1372  0.2703
 5873W        W22007   9.358   2.651  16.397 -0.0281 -0.3879 -0.2774
 5874W        W22008  12.054   0.296   2.385  0.2372  0.1905 -0.2239
 5875W        W22009   2.932   1.676   1.669 -0.1413 -0.0583 -0.2171
 5876W        W22010   3.252   1.936   4.358 -0.0591  0.0025 -0.4095
 5877W        W22011  10.327  14.040  14.140 -0.2205 -0.1624  0.2167
 5878W        W22012  10.825  11.331   3.949 -0.0243 -0.2653 -0.2016
 5879W        W22013   6.995   4.031   2.207 -0.1550  0.3092 -0.2072
 5880W        W22014   8.946  15.481  16.202  0.0226 -0.2798 -0.1932
 5881W        W22015   6.095  11.479  13.276  0.1634  0.2159  0.0400
 5882W        W22016   5.578   0.582   3.641 -0.0463  0.1584  0.1125
 5883W        W22017   1.794   7.054  15.658 -0.1618  0.0851 -0.1356
 5884W        W22018  12.078   3.080   3.892  0.0814  0.0272  0.1466
 5885W        W22019  11.765  13.481  15.691  0.0120  0.1173 -0.0609
 5886W        W22020   7.368   0.332   0.093 -0.1293 -0.1091  0.0146
 5887W        W22021   2.994   3.900   6.065 -0.3186  0.1487 -0.0843
 5888W        W22022   5.727   9.761  15.426 -0.1193  0.2356  0.0050
 5889W        W22023  12.292  17.375   1.091  0.1068 -0.2138  0.0118
 5890W        W22024   2.231  12.105   2.937 -0.0420 -0.0298  0.1344
 5891W        W22025  17.505  13.233  14.058 -0.0456  0.0929  0.0956
 5892W        W22026  13.863  11.839   4.197 -0.1344 -0.4957 -0.2025
 5893W        W22027   6.349  11.882   0.836 -0.1038  0.1228  0.1647
 5894W        W22028  11.235   9.884   3.257 -0.2078  0.0670 -0.0055
 5895W        W22029   3.857  15.394  12.505  0.1398 -0.0106 -0.0223
 5896W        W22030   3.073  11.198   1.059  0.1684  0.0179 -0.3622
 5897W        W22031  17.785   1.021   5.586 -0.1336 -0.0348  0.0875
 5898W        W22032   4.966   9.532  14.821 -0.1179 -0.1184 -0.0466
 5899W        W22033   3.860   1.389   2.221 -0.1081 -0.3479  0.0354
 5900W        W22034   0.308   4.072  12.522 -0.0485  0.5324  0.1156
 5901W        W22035   0.226   2.131  14.283  0.1941 -0.4241  0.2550
 5902W        W22036  15.919   9.724  11.269 -0.1747 -0.1409  0.0210
 5903W        W22037  16.625   6.218  16.339 -0.2432  0.0612  0.3714
 5904W        W22038  12.771   3.442   3.954  0.1715 -0.0067 -0.1385
 5905W        W22039  13.305  14.700  12.601  0.0675 -0.2173 -0.2230
 5906W        W22040   1.894  13.201   4.631  0.1983 -0.0377  0.0397
 5907W        W22041  15.992  11.624  14.809 -0.2112 -0.2916 -0.0864
 5908W        W22042   1.446  12.174   5.288  0.1231 -0.0837  0.0030
 5909W        W22043   9.140  12.462   4.958  0.1767 -0.0110  0.0341
 5910W        W22044   6.637  16.997  14.870  0.0846 -0.0709  0.1000
 5911W        W22045   4.780   6.454   3.674 -0.1946  0.3293  0.0129
 5912W        W22046   8.352  10.412   0.147  0.2120 -0.0491 -0.0226
 5913W        W22047   2.174  17.892  16.395 -0.3548  0.1950 -0.1082
 5914W        W22048  12.064  13.445   1.233 -0.0851  0.0017 -0.2512
 5915W        W22049   4.704   9.359  11.766  0.1809  0.1246 -0.2593
 5916W        W22050   0.913  17.208  15.011  0.1977 -0.1596  0.1951
 5917W        W22051  16.414   7.208   0.506  0.3254  0.2151 -0.0405
 5918W        W22052   0.408   2.166   4.959  0.0264 -0.1060 -0.1821
 5919W        W22053   7.153  13.105   5.890  0.1043 -0.1247  0.0468
 5920W        W22054   7.035  14.464  10.701 -0.2828 -0.4845  0.0735
 5921W        W22055   5.858   6.783  12.306 -0.2306  0.0182  0.0689
 5922W        W22056   6.711   7.675  14.198 -0.3090  0.2414  0.2397
 5923W        W22057  11.399   4.497   3.801 -0.1256 -0.0031  0.0455
 5924W        W22058   6.886   8.957   0.508  0.2807  0.0286  0.0667
 5925W        W22059   9.090   1.855   0.335 -0.1587  0.0431 -0.1638
 5926W        W22060  11.285   3.836  11.641  0.0179 -0.0820 -0.1345
 5927W        W22061  17.151   1.284  12.734 -0.2099  0.1737  0.1772
 5928W        W22062   0.460   1.363  15.585  0.0543 -0.0613  0.1748
 5929W        W22063  17.434   8.590  12.182 -0.2197  0.1528  0.4916
 5930W        W22064  16.205   4.422  11.290 -0.1111 -0.0547 -0.2921
 5931W        W22065  10.277  14.976  13.994 -0.2224 -0.0944 -0.1074
 5932W        W22066   7.623   2.075   1.080 -0.1845 -0.1901 -0.1124
 5933W        W22067   6.854   6.205   2.750  0.0679  0.1963 -0.0153
 5934W        W22068  16.063   7.819  11.345 -0.0523 -0.0076 -0.0509
 5935W        W22069  12.036   3.904   1.878  0.0390  0.2163  0.0813
 5936W        W22070  16.902  11.483  15.265 -0.3237 -0.3314  0.1755
 5937W        W22071   8.204   5.686  13.756 -0.0680 -0.1106  0.0431
 5938W        W22072   7.919  13.551  16.258  0.2706 -0.2465  0.2141
 5939W        W22073   1.714   5.839   4.076  0.0276 -0.0754  0.0793
 5940W        W22074   8.182   3.311  14.523  0.1957  0.0123  0.1771
 5941W        W22075   4.675  12.418   4.725  0.3585  0.2380  0.2514
 5942W        W22076  17.535   9.841   0.804 -0.1565  0.3475 -0.2284
 5943W        W22077  11.354   0.801  13.901  0.1315 -0.2601 -0.2703
 5944W        W22078  10.205   5.732   2.125  0.3715 -0.1236  0.0787
 5945W        W22079   7.296   8.112   2.646  0.0334 -0.0574 -0.0924
 5946W        W22080   6.956   0.491   0.437 -0.2830 -0.0355  0.0040
 5947W        W22081  14.191   4.580  15.017 -0.3375  0.1267 -0.0018
 5948W        W22082  17.408  16.383   0.564  0.3082 -0.0282 -0.4250
 5949W        W22083   0.351   5.564  12.085  0.0590  0.2310 -0.3559
 5950W        W22084   6.998  11.909   0.056  0.0618  0.4566 -0.1261
 5951W        W22085   1.941  12.185  12.880  0.1456 -0.0601  0.0079
 5952W        W22086  10.956  15.051   5.945  0.0950  0.0825 -0.1521
 5953W        W22087   9.050  16.032   2.870  0.1582  0.0356 -0.2909
 5954W        W22088   3.766   7.088  16.652 -0.4596 -0.1423  0.1694
 5955W        W22089   3.963   7.578   3.076  0.0179  0.1854  0.1296
 5956W        W22090   6.049   5.912   3.127 -0.4589 -0.1962  0.0639
 5957W        W22091  10.266   0.212  14.979  0.2431 -0.3886  0.1283
 5958W        W22092   6.291   4.755   3.437 -0.2547 -0.1635 -0.0620
 5959W        W22093  11.870  13.627   3.412 -0.3188 -0.1867 -0.1555
 5960W        W22094  15.384   7.076   0.342 -0.2010 -0.0291 -0.2286
 5961W        W22095   2.036   2.330   6.375  0.1553 -0.0620 -0.1033
 5962W        W22096  17.828   4.826   2.765 -0.0224  0.3298  0.0046
 5963W        W22097   4.568  13.398  13.521 -0.0872 -0.1278 -0.6353
 5964W        W22098   6.034  17.401  14.686 -0.0009  0.1555 -0.2146
 5965W        W22099   7.962   9.126  12.829  0.4413 -0.2752 -0.0673
 5966W        W22100   3.592   8.025  15.815 -0.2677 -0.0761  0.1325
 5967W        W22101   7.850   0.849   4.467 -0.0746  0.0762 -0.1517
 5968W        W22102   2.048   7.798   1.305 -0.0628  0.1353  0.1357
 5969W        W22103  16.230   8.783   0.838  0.1899 -0.3015  0.1474
 5970W        W22104  11.046  13.313  15.986  0.3972  0.1370 -0.1338
 5971W        W22105  11.469  11.263   5.002 -0.1241 -0.0748 -0.3702
 5972W        W22106   1.744  10.584   4.004  0.2866 -0.3464 -0.0805
 5973W        W22107   0.252  15.882   2.702  0.0542 -0.1914 -0.2127
 5974W        W22108  13.030  17.761   1.338 -0.0713 -0.0842  0.1681
 5975W        W22109  11.499   1.970   4.694 -0.0371  0.0892  0.5099
 5976W        W22110  11.470   7.470  15.602 -0.1365 -0.0164  0.1083
 5977W        W22111   7.335  13.562   0.175  0.1564 -0.0251  0.3153
 5978W        W22112  11.382  14.068   6.404  0.1567  0.1157  0.0996
 5979W        W22113   5.635  12.450   0.471  0.0495 -0.1049 -0.1916
 5980W        W22114   5.741  13.339  13.067  0.1511  0.0515 -0.1643
 5981W        W22115   9.526  13.058  13.545  0.2326 -0.1920 -0.2004
 5982W        W22116   3.617  15.863   5.478  0.1502  0.0365  0.1220
 5983W        W22117  16.352  10.209  16.445 -0.0674  0.0366 -0.1848
 5984W        W22118  14.859   9.167   1.102  0.3419 -0.0508  0.4201
 5985W        W22119  14.767  12.089   4.919 -0.0251  0.0080  0.1785
 5986W        W22120   2.407  10.402  14.399 -0.1812  0.0052 -0.2463
 5987W        W22121   3.470   7.302   2.304  0.0686 -0.1425  0.0970
 5988W        W22122   8.273   9.488   1.602  0.0070  0.3914 -0.1962
 5989W        W22123   9.500  11.447  14.657 -0.1420 -0.2417 -0.0052
 5990W        W22124   9.134   1.684  13.308  0.3929  0.2631  0.2755
 5991W        W22125   3.660   8.433   1.626 -0.1195 -0.0432 -0.3050
 5992W        W22126  12.225  13.977  11.540 -0.3912  0.0776  0.1057
 5993W        W22127   0.752   9.310   1.598  0.2282  0.1054 -0.1594
 5994W        W22128  15.762   9.870   0.104  0.1462 -0.2837 -0.2075
 5995W        W22129  12.766  13.920  13.752  0.0148 -0.1399  0.0350
 5996W        W22130   9.542   9.577  11.003 -0.1281 -0.3837 -0.0105
 5997W        W22131   4.652   9.946   5.043  0.0619 -0.2037  0.1946
 5998W        W22132  10.156   5.108  11.916 -0.0325  0.2629 -0.2789
 5999W        W22133   7.312  11.394  16.123  0.2540  0.1323 -0.1626
 6000W        W22134   4.631  14.090   0.115  0.0134 -0.1038  0.0343
 6001W        W22135   1.008  10.522  12.389 -0.1620  0.0750 -0.2089
 6002W        W22136  15.501   9.686  15.588  0.3198  0.0396 -0.0029
 6003W        W22137  10.544  14.093   5.822 -0.1474 -0.1813 -0.1265
 6004W        W22138  11.424   6.093   4.276 -0.0741  0.3072  0.0318
 6005W        W22139  11.557   8.251   1.194 -0.0818  0.1754  0.1373
 6006W        W22140   9.035  17.510   3.189  0.1057 -0.1511 -0.1273
 6007W        W22141   5.703  12.113  13.802  0.2631 -0.0769 -0.1461
 6008W        W22142   0.305   7.849   0.544 -0.0318  0.0931  0.0499
 6009W        W22143   9.990   6.923   0.365  0.1057  0.0501  0.1231
 6010W        W22144   7.086   5.215  15.189  0.0146  0.0434 -0.0917
 6011W        W22145  14.136   6.368   5.237 -0.1276  0.1128  0.1881
 6012W        W22146   7.195   7.241   1.600  0.2123 -0.1811 -0.0467
 6013W        W22147  12.986  14.334  13.548 -0.1312 -0.2727 -0.0264
 6014W        W22148   2.764  10.087   5.026 -0.3007  0.0398 -0.1133
 6015W        W22149  12.823   5.497   1.377 -0.1151  0.0453 -0.0027
 6016W        W22150  16.390   8.103   4.527 -0.2852 -0.2401 -0.0396
 6017W        W22151   1.562   3.362  14.040 -0.3897 -0.0305  0.0358
 6018W        W22152   8.637  11.629  14.177  0.0252  0.0278  0.1391
 6019W        W22153  10.240  14.295  15.259 -0.1760 -0.1490  0.2026
 6020W        W22154  17.859  14.849   1.816 -0.0816 -0.1530  0.1904
 6021W        W22155   8.419   1.423   1.082  0.0911  0.0231 -0.0974
 6022W        W22156  17.704  11.545   6.359 -0.4350  0.3830  0.1282
 6023W        W22157   1.599   7.526   0.514  0.0817 -0.1786 -0.0259
 6024W        W22158   9.248  13.962  15.264  0.0219 -0.0436 -0.2002
 6025W        W22159   7.558  13.044  15.183  0.0828  0.4378 -0.0234
 6026W        W22160   6.374   6.598   1.083  0.1432  0.0225 -0.2043
 6027W        W22161  16.017   3.450   0.541  0.1464 -0.1189  0.1801
 6028W        W22162  13.169  15.621   0.698 -0.2388  0.1648 -0.3433
 6029W        W22163   8.415   6.315  16.012  0.0721 -0.2183 -0.1386
 6030W        W22164  16.287   7.223   0.014  0.2493  0.2420  0.1568
 6031W        W22165   7.066   2.182   5.332  0.1954 -0.0427 -0.1186
 6032W        W22166   3.502  14.500   1.351  0.1573  0.0013 -0.0492
 6033W        W22167   3.312   9.123  16.521  0.0001  0.5306 -0.0522
 6034W        W22168  12.139   7.469   2.632  0.2230 -0.2481  0.0461
 6035W        W22169   9.434  15.795   3.001 -0.2242  0.2842 -0.0695
 6036W        W22170  10.653  12.384   4.791  0.2051  0.1482  0.0932
 6037W        W22171   7.839  15.158  14.444 -0.1919 -0.1298 -0.1046
 6038W        W22172   4.867  12.718   2.708  0.1064 -0.2444 -0.1999
 6039W        W22173   4.019  10.102   2.295 -0.1245 -0.0251 -0.2354
 6040W        W22174   7.897   7.057  12.946  0.1292  0.1100  0.1815
 6041W        W22175   5.006   0.320   4.288  0.1189 -0.2239  0.1748
 6042W        W22176   1.286  12.195   2.828 -0.1962  0.1421 -0.1845
 6043W        W22177  16.735  11.097  16.467  0.3340 -0.0840 -0.3409
 6044W        W22178  10.474   5.073  15.107  0.2069  0.1996 -0.0811
 6045W        W22179   9.283   4.482  15.399 -0.1550  0.0780  0.1759
 6046W        W22180   8.922  14.612  16.381 -0.3568 -0.1161  0.1630
 6047W        W22181  13.636   3.043   0.177  0.0001 -0.0349 -0.1772
 6048W        W22182  10.046  11.538  12.601  0.1681  0.0379 -0.1430
 6049W        W22183   9.560  15.568   0.266  0.0597  0.4202  0.2951
 6050W        W22184  16.952   8.562   1.391  0.0561  0.0213 -0.2417
 6051W        W22185   3.583   3.083   4.430  0.0861  0.0563 -0.0271
 6052W        W22186   1.420  17.439   2.463 -0.1353  0.0751 -0.4581
 6053W        W22187  15.745  14.263   0.549  0.0984  0.3327  0.1184
 6054W        W22188   3.126   3.746  13.005 -0.1108 -0.1091  0.4809
 6055W        W22189  14.819   6.932  15.673  0.1708  0.0118 -0.1387
 6056W        W22190   5.802  10.176   3.595 -0.4346 -0.0326 -0.0127
 6057W        W22191  14.414  13.764  16.131  0.1644  0.0691 -0.1073
 6058W        W22192   0.626   0.576   2.069 -0.0418 -0.0413 -0.2159
 6059W        W22193   2.764  15.494   3.541 -0.1826  0.0127 -0.0745
 6060W        W22194  17.958   2.693  14.997  0.0033  0.2128  0.0241
 6061W        W22195  10.517  11.896   3.861 -0.0153  0.2281 -0.4460
 6062W        W22196  13.897   4.168   2.337  0.1692 -0.0862 -0.2886
 6063W        W22197   2.299   5.001  13.528 -0.0859 -0.5461  0.1388
 6064W        W22198  12.084   5.104  13.448  0.2882 -0.0206 -0.0201
 6065W        W22199  15.877  16.691  14.294  0.1955 -0.0294 -0.0259
 6066W        W22200  12.872   4.166  10.690 -0.1569  0.2108 -0.2920
 6067W        W22201   6.988  11.021  12.018  0.0862  0.1449  0.3930
 6068W        W22202  15.122   8.105   3.808 -0.0124  0.4013 -0.0367
 6069W        W22203  15.397   4.446   2.667 -0.3078  0.3045 -0.0908
 6070W        W22204   6.927  12.027  14.051 -0.2922  0.0099 -0.0930
 6071W        W22205   3.610   1.948   5.256  0.1534  0.2621 -0.0868
 6072W        W22206   5.447  16.244  12.825 -0.1693 -0.0090  0.1436
 6073W        W22207   6.659   8.519   1.088  0.0488  0.1937  0.0326
 6074W        W22208   5.887   6.923   5.154 -0.2412 -0.0357 -0.0831
 6075W        W22209  16.727   1.684   1.518 -0.2020  0.2218 -0.2346
 6076W        W22210   8.370   2.578   0.480 -0.2930 -0.2562  0.7284
 6077W        W22211  14.866   6.783   1.198  0.1126  0.0717  0.2396
 6078W        W22212   1.743   4.060  16.071 -0.0666 -0.0681 -0.2026
 6079W        W22213   6.273   8.054   2.014  0.1530 -0.1322  0.0209
 6080W        W22214   1.453   7.695   4.136  0.0186 -0.0960  0.0230
 6081W        W22215   6.732   0.358   4.191  0.1010  0.0079 -0.0077
 6082W        W22216   7.690  11.311  14.155 -0.1351 -0.2104 -0.1532
 6083W        W22217   9.206   0.409  14.938 -0.0581  0.1226 -0.0528
 6084W        W22218   2.820   3.399  11.128 -0.1854 -0.0992 -0.0169
 6085W        W22219   9.898   3.945   2.553 -0.4589 -0.1905  0.0203
 6086W        W22220   5.679   8.458  13.767 -0.2156 -0.1690  0.1361
 6087W        W22221  15.582   7.058  11.446 -0.1202 -0.2522 -0.0751
 6088W        W22222  11.998   8.730   5.639  0.0660  0.3943 -0.3265
 6089W        W22223  15.550   0.219   0.807 -0.1333  0.1004  0.2827
 6090W        W22224   7.603   3.269  13.719  0.0131  0.0605  0.0809
 6091W        W22225   3.313   5.262   4.227 -0.1149  0.1789 -0.0705
 6092W        W22226  13.227   3.878  12.897 -0.0748  0.0305 -0.0260
 6093W        W22227   0.270   4.476   3.660  0.1222  0.1388 -0.0077
 6094W        W22228   7.336  10.371   2.223  0.0438 -0.1289 -0.4028
 6095W        W22229  17.230  12.693   5.668 -0.0390 -0.3151  0.1928
 6096W        W22230  10.817   6.115  12.974  0.1155 -0.0578 -0.3902
 6097W        W22231  17.161   9.487   3.326  0.2137  0.0162 -0.2128
 6098W        W22232   8.348   8.500   0.649 -0.1604 -0.2148 -0.1979
 6099W        W22233  11.366   6.070  15.057 -0.2664  0.1247  0.0347
 6100W        W22234   9.946   1.093  12.879  0.0196 -0.2343 -0.0065
 6101W        W22235  17.876  12.499   2.208 -0.1185 -0.0579 -0.3038
 6102W        W22236   5.347   4.175   5.194  0.2196  0.0791  0.0354
 6103W        W22237   1.994   4.285  16.592 -0.0786 -0.1122 -0.0534
 6104W        W22238   1.763   2.928   0.397 -0.0477  0.0495 -0.3666
 6105W        W22239   2.765   7.119   0.029  0.1012 -0.1054 -0.1566
 6106W        W22240   6.022   8.238  12.614  0.0307 -0.0171 -0.3472
 6107W        W22241   7.705  14.805   4.627  0.0652  0.0615  0.4164
 6108W        W22242   9.682   0.594   1.349  0.0859  0.2389 -0.0304
 6109W        W22243  17.453  12.641   4.690 -0.1274  0.2402 -0.1306
 6110W        W22244   9.768  15.322   1.665  0.1704 -0.1376 -0.0098
 6111W        W22245   6.198   1.678  15.695  0.2972  0.0689 -0.2415
 6112W        W22246   0.917  16.350   1.703 -0.0511  0.1202  0.1017
 6113W        W22247  11.120   0.219  11.017  0.3090 -0.0044  0.2958
 6114W        W22248   6.621  17.280   0.772 -0.2017 -0.0600  0.2154
 6115W        W22249  16.592   8.462  13.363 -0.1172  0.4330  0.4397
 6116W        W22250   2.220   2.399  12.014  0.1086 -0.0257  0.0170
 6117W        W22251   5.405  10.393  12.430 -0.5416  0.0725 -0.2971
 6118W        W22252   9.465   7.972   0.010 -0.0832 -0.1541  0.0327
 6119W        W22253  16.965   6.601   1.778  0.0386  0.2010 -0.2322
 6120W        W22254  11.578   7.289   1.517  0.2699  0.0353 -0.0657
 6121W        W22255  13.547   0.637  15.300 -0.2349 -0.1369  0.0263
 6122W        W22256   9.458   4.335   3.795  0.1457  0.0675  0.0115
 6123W        W22257   9.997   7.951   4.849 -0.0514  0.1359 -0.0757
 6124W        W22258   4.675  11.816  13.248  0.1451 -0.1958  0.1793
 6125W        W22259   9.967  10.845   0.949 -0.1466  0.2795 -0.2124
 6126W        W22260   0.895   7.249   4.174  0.1096 -0.0385  0.1106
 6127W        W22261  17.175   1.140  15.476  0.0152 -0.0788  0.0246
 6128W        W22262  11.224  12.227  11.612 -0.1598 -0.0404  0.0651
 6129W        W22263  15.217   9.692   4.805 -0.4160 -0.1126 -0.0989
 6130W        W22264   2.466  17.044  11.440  0.1244  0.1732 -0.1652
 6131W        W22265   7.504   7.412  14.444  0.1273  0.0793  0.0254
 6132W        W22266   9.163   5.701   2.544  0.0631 -0.1256  0.2106
 6133W        W22267  12.093   3.696   5.715 -0.0281  0.0787  0.2733
 6134W        W22268   9.965  10.233   2.157 -0.0186 -0.1606 -0.0848
 6135W        W22269  12.351  12.660  13.072 -0.1200 -0.0545  0.1959
 6136W        W22270  10.809   9.183  12.835 -0.3258 -0.1968 -0.1196
 6137W        W22271   5.605   8.759  15.993  0.0926 -0.0732 -0.1407
 6138W        W22272  10.447   8.931   5.324  0.0759  0.0419 -0.1635
 6139W        W22273  10.465  10.789  12.181  0.2108  0.0201  0.0611
 6140W        W22274   8.166  11.408  13.422 -0.1985  0.0349 -0.1930
 6141W        W22275   6.406  16.234   2.141  0.0448  0.1579  0.0148
 6142W        W22276   9.809  17.049  12.750  0.0559 -0.2192  0.2986
 6143W        W22277   3.420  17.184  13.051  0.1378 -0.1700  0.0841
 6144W        W22278   5.567  14.247   4.617  0.2435  0.3066 -0.1346
 6145W        W22279   7.119   6.158   1.311  0.0356 -0.0877  0.3205
 6146W        W22280  10.515  14.412   2.037  0.1361  0.0792 -0.0101
 6147W        W22281  15.367   1.575  13.402  0.1897  0.0121  0.1142
 6148W        W22282   3.771   3.799  14.264 -0.0323 -0.0656  0.0432
 6149W        W22283   5.857   9.939   0.891  0.2960  0.0723  0.1712
 6150W        W22284  17.784   1.967  13.723 -0.2137  0.0263 -0.2380
 6151W        W22285   7.755  16.992   3.943 -0.3038 -0.0379  0.0314
 6152W        W22286   3.568   9.279   5.930 -0.2150  0.1680  0.0413
 6153W        W22287  12.825   1.138   2.246  0.0000 -0.1522  0.0591
 6154W        W22288   2.682  13.744  13.926  0.0693  0.1728  0.3174
 6155W        W22289  13.283  12.193  12.799 -0.3935  0.0089 -0.4386
 6156W        W22290   4.189   3.294  12.310  0.4014  0.0898  0.1158
 6157W        W22291  10.251  13.770  11.657 -0.1033  0.0519  0.0901
 6158W        W22292  16.646  16.234   5.659 -0.1145 -0.1914  0.3580
 6159W        W22293  16.839  14.833  15.450  0.0891  0.2733  0.1485
 6160W        W22294   5.305  12.751   2.412  0.1131 -0.0498 -0.0968
 6161W        W22295   9.670   4.325   0.294  0.1647 -0.0208 -0.1906
 6162W        W22296  15.506  17.604  14.414  0.2560 -0.0086 -0.0134
 6163W        W22297   5.957   1.603   4.338  0.0862 -0.0251  0.2138
 6164W        W22298  10.434   1.405  11.280 -0.4344  0.0589 -0.1847
 6165W        W22299  14.766  15.873   4.609 -0.2846 -0.3142  0.1067
 6166W        W22300   4.626  10.997  16.715 -0.0961  0.1545  0.0456
 6167W        W22301  10.573   3.682  13.133  0.0343  0.0413  0.0503
 6168W        W22302   0.491  11.093   3.850 -0.0836  0.0419 -0.0167
 6169W        W22303  14.178   9.279   5.142 -0.0525 -0.2554  0.0145
 6170W        W22304  10.621   3.414  11.982  0.0215  0.0629  0.0641
 6171W        W22305  12.399   8.232  12.813  0.0524 -0.0264  0.0471
 6172W        W22306  16.064  16.389   1.564  0.2622  0.0773 -0.1311
 6173W        W22307   8.118  15.688   3.548 -0.1628 -0.0784  0.1348
 6174W        W22308   5.537  17.094   5.430 -0.1339 -0.1143  0.3135
 6175W        W22309   2.366   3.047   3.275  0.1155 -0.0289 -0.1951
 6176W        W22310  15.577  12.928   5.795  0.1451  0.0463 -0.2340
 6177W        W22311  11.735   8.428   5.259  0.0168 -0.0024  0.0151
 6178W        W22312  14.634   5.595  16.302  0.1261 -0.0616  0.2225
 6179W        W22313   5.959  16.443  15.273  0.0382  0.2909  0.1995
 6180W        W22314   2.439   5.804   2.590  0.0860 -0.0405  0.0767
 6181W        W22315  14.508   4.325   3.748  0.0816  0.1722  0.3722
 6182W        W22316  12.511   3.952   0.774  0.1520  0.3532 -0.0808
 6183W        W22317  13.350   3.558  13.279  0.3854 -0.1577 -0.2825
 6184W        W22318  12.519   3.282   1.955  0.0305  0.1593  0.0949
 6185W        W22319   1.380   3.172  12.358 -0.0272 -0.0069 -0.0833
 6186W        W22320   3.121   5.963  14.386  0.2447  0.0125  0.0127
 6187W        W22321  12.835  17.366   3.326  0.3607  0.2588 -0.0912
 6188W        W22322   9.945   6.636   1.587 -0.1057 -0.0414  0.2539
 6189W        W22323   4.455  13.483   4.429  0.2105  0.1555 -0.2372
 6190W        W22324   6.922   9.959  11.547  0.2416 -0.0734  0.4631
 6191W        W22325   9.419  11.601   1.260  0.4207  0.1588 -0.0608
 6192W        W22326  15.102  14.157   1.428 -0.5417 -0.1258  0.0070
 6193W        W22327  10.444  16.004   0.205  0.0542 -0.1441 -0.1486
 6194W        W22328   1.501   3.127  13.227 -0.1936 -0.2482 -0.0618
 6195W        W22329   4.599  13.635  15.730  0.0205  0.1219 -0.0580
 6196W        W22330  10.912  14.603  16.441 -0.1073  0.2767  0.1221
 6197W        W22331  15.196  13.127   4.392  0.1249 -0.0218 -0.0124
 6198W        W22332   0.890   7.279  13.363  0.0845  0.3698  0.0083
 6199W        W22333  17.584   9.025  13.436 -0.0197  0.0998 -0.2237
 6200W        W22334   1.796   6.251  13.585 -0.2746 -0.3049 -0.2093
 6201W        W22335   9.157   2.350  12.331 -0.1255 -0.1618 -0.0388
 6202W        W22336  13.211  15.008  15.717  0.2590  0.0567  0.1826
 6203W        W22337   3.112  12.706  12.710 -0.1247  0.1654 -0.3812
 6204W        W22338  17.335   4.175  12.269 -0.0094 -0.1488  0.2259
 6205W        W22339   0.851  16.240   3.598  0.2808  0.0417 -0.0852
 6206W        W22340  13.972  17.149  12.476  0.0085 -0.1619 -0.0906
 6207W        W22341   8.753   3.678  12.034 -0.1057  0.1372  0.1736
 6208W        W22342  16.767   1.893  11.050 -0.0074 -0.1501 -0.3306
 6209W        W22343  12.738   2.972   4.214 -0.0003 -0.0181  0.0258
 6210W        W22344  12.107  12.698  15.710  0.0672  0.0266 -0.1549
 6211W        W22345  11.474  10.610  15.854 -0.0314  0.0997  0.2138
 6212W        W22346  17.521   5.867  13.674  0.1258 -0.1682 -0.2288
 6213W        W22347   6.129   9.843  11.820 -0.1172  0.1453  0.2325
 6214W        W22348  15.943  13.894   1.477 -0.2186 -0.0524 -0.0843
 6215W        W22349  11.513   9.075   1.697 -0.0717 -0.2420  0.2845
 6216W        W22350   5.726  13.647   1.284  0.3129  0.2655 -0.1611
 6217W        W22351  14.004  12.915  16.092  0.0121 -0.0858  0.0140
 6218W        W22352   5.222  14.147  14.292  0.0323 -0.0787  0.2739
 6219W        W22353  13.026  12.581  15.966  0.1706  0.0647  0.0048
 6220W        W22354   5.605   3.170   1.231  0.1376 -0.0552  0.2986
 6221W        W22355   5.383   2.231  13.372  0.1324 -0.0761  0.3280
 6222W        W22356  13.805  13.014   5.507 -0.1014 -0.1652  0.1748
 6223W        W22357   6.460  11.212   4.576  0.0540 -0.3914  0.2354
 6224W        W22358  16.136   2.486  12.498 -0.2863  0.0315 -0.0331
 6225W        W22359   1.173  17.900   1.179 -0.3900  0.2231  0.1905
 6226W        W22360   9.980   8.448   4.695 -0.0161  0.0090 -0.1144
 6227W        W22361   6.248  14.415  12.407  0.1855  0.3761 -0.1469
 6228W        W22362   4.331   2.676   0.960  0.1824  0.0400  0.0227
 6229W        W22363   9.225   9.770  11.796  0.3519 -0.2827 -0.0821
 6230W        W22364  12.400  12.054   4.516  0.0245 -0.2036  0.0973
 6231W        W22365   0.069   7.707   5.231 -0.0256  0.2526  0.1598
 6232W        W22366   3.834   8.107   0.779  0.1749 -0.1187  0.0629
 6233W        W22367  12.390   7.750   2.349  0.0359 -0.0806  0.2405
 6234W        W22368   7.158  11.669   4.726 -0.1725 -0.0706 -0.6031
 6235W        W22369   2.715   4.950  14.935  0.0632 -0.0228  0.1237
 6236W        W22370   4.426   3.155   5.164  0.1976  0.1140 -0.1487
 6237W        W22371   9.664   7.560   5.430 -0.1015  0.1469  0.4231
 6238W        W22372  11.314  12.411   2.345  0.4455  0.1606 -0.1852
 6239W        W22373   2.928  10.551   4.696 -0.1248 -0.1392 -0.0263
 6240W        W22374   9.578   7.256  13.298 -0.2124  0.0081  0.0403
 6241W        W22375   6.338  12.951  12.082  0.0106 -0.3477  0.1596
 6242W        W22376   6.492   9.616  11.447 -0.0812  0.2926 -0.1053
 6243W        W22377   2.763  12.524   4.201 -0.0733 -0.1617  0.0408
 6244W        W22378   1.795   1.843  13.778  0.1866 -0.0020  0.4405
 6245W        W22379  10.968  15.747   5.101 -0.0650  0.0305 -0.0710
 6246W        W22380  12.109   2.024   2.197 -0.1120  0.0243  0.0354
 6247W        W22381  12.110   9.501  14.863  0.1479  0.1704  0.2010
 6248W        W22382  11.219  13.684  15.605 -0.2463  0.0792 -0.0467
 6249W        W22383   5.167  15.855  11.759  0.0773 -0.2880  0.2565
 6250W        W22384  11.652   8.072   4.903  0.2555 -0.0748  0.1378
 6251W        W22385  17.101   9.317   5.390 -0.0101 -0.0920 -0.0694
 6252W        W22386   6.636   6.075   4.737 -0.0849 -0.0394  0.2311
 6253W        W22387  16.245   4.360   0.298 -0.0724  0.1013  0.3138
 6254W        W22388   3.519  15.393   4.594  0.0660 -0.1379  0.0253
 6255W        W22389   8.938  14.770   0.749 -0.2139  0.0452  0.2985
 6256W        W22390   3.061   0.995  16.524 -0.0636 -0.0499 -0.0004
 6257W        W22391   7.182  14.733  14.168  0.0941 -0.0874 -0.2511
 6258W        W22392  12.775  10.319  13.509 -0.1388  0.0414 -0.0289
 6259W        W22393   2.163  15.014   3.878  0.0854  0.1036 -0.0560
 6260W        W22394  15.952  12.841   4.655 -0.1640 -0.1096  0.2154
 6261W        W22395   3.968  15.543   4.698 -0.3035 -0.1882  0.0179
 6262W        W22396  16.320   1.267   1.754  0.1215 -0.0073  0.0515
 6263W        W22397   7.323  12.423  12.649  0.2640  0.1113 -0.2096
 6264W        W22398   8.091   8.078  15.521 -0.0964  0.1089 -0.2717
 6265W        W22399   2.333   1.160  12.432 -0.0234  0.3534 -0.1804
 6266W        W22400  15.149   7.450   0.529  0.0862 -0.0412 -0.3966
 6267W        W22401   1.079   6.255   4.719  0.1301 -0.2074 -0.2529
 6268W        W22402   5.727   3.450  14.016  0.1196 -0.1556  0.0972
 6269W        W22403   0.064  10.802  14.096  0.3928 -0.1549  0.1775
 6270W        W22404   9.447   3.907   0.372 -0.0336 -0.3044 -0.0780
 6271W        W22405   1.468   0.993  14.522  0.0074  0.2867  0.1670
 6272W        W22406   1.700   8.440  12.785 -0.0914 -0.2284 -0.1698
 6273W        W22407   6.841   5.638  14.748  0.0668 -0.1683  0.0234
 6274W        W22408  16.916   4.439  12.454 -0.1133  0.3467  0.0661
 6275W        W22409   6.351  10.337   0.084 -0.0336 -0.0106 -0.0359
 6276W        W22410   9.786  10.445   5.157  0.0206  0.0329  0.0650
 6277W        W22411  12.919   0.446   4.054  0.2136 -0.0705 -0.1769
 6278W        W22412  16.035  15.605  15.639 -0.3400  0.1848  0.0502
 6279W        W22413  17.345  13.181   5.446 -0.2868 -0.0105 -0.2973
 6280W        W22414  10.418   4.826  14.167 -0.0968  0.0475 -0.0042
 6281W        W22415   9.297   7.752  14.058  0.1009  0.1806  0.1467
 6282W        W22416   4.218   2.894  12.625  0.3681 -0.3417 -0.0369
 6283W        W22417  14.903   7.951   0.279 -0.0539  0.0263  0.0296
 6284W        W22418   1.126  15.673  13.451 -0.1708  0.0137 -0.0126
 6285W        W22419  15.683   1.538  12.376 -0.3214 -0.1053  0.1671
 6286W        W22420   3.430  11.274   1.714  0.0082 -0.4600 -0.1871
 6287W        W22421   6.959   7.909   3.143 -0.1502  0.1167  0.1145
 6288W        W22422   5.241   8.160  14.212  0.2335  0.0051  0.2535
 6289W        W22423   1.595   8.512  13.277  0.0443 -0.2504  0.0082
 6290W        W22424  12.790   7.427   1.645  0.0612 -0.2393 -0.1844
 6291W        W22425  16.661   0.760  12.419  0.2797  0.0178  0.0115
 6292W        W22426   8.424  12.671   0.646  0.0648  0.3041  0.0614
 6293W        W22427  10.976  15.857  12.706  0.0666  0.1957  0.0815
 6294W        W22428  17.092  16.028   0.822  0.0840 -0.0564  0.0290
 6295W        W22429   5.354  10.306  15.707 -0.0380  0.3166 -0.1042
 6296W        W22430   6.282  13.278   6.370  0.0698  0.0353 -0.0195
 6297W        W22431  11.817  17.341  15.243 -0.1974  0.1544 -0.0445
 6298W        W22432   5.799   7.725  14.184 -0.4009  0.3663 -0.0030
 6299W        W22433  13.349   5.188  15.266  0.1636  0.1406 -0.0301
 6300W        W22434  11.140  14.599   1.448 -0.0308 -0.0935 -0.0231
 6301W        W22435  12.939   3.037  15.434 -0.3628  0.0181 -0.1462
 6302W        W22436  14.314  10.537  12.922  0.0042  0.0586  0.1704
 6303W        W22437  16.234   6.024  15.738 -0.0054 -0.0580  0.1645
 6304W        W22438  11.710  10.925   2.712  0.1824 -0.1295 -0.3753
 6305W        W22439   8.500  13.415  15.309 -0.0621  0.1855 -0.1706
 6306W        W22440   8.412  17.589  13.371 -0.2795 -0.1787 -0.3797
 6307W        W22441   0.036   4.385  16.660  0.0169 -0.1428 -0.1034
 6308W        W22442  16.598   2.254   0.129  0.0243  0.1487  0.0398
 6309W        W22443  15.262   0.787   2.589  0.0507  0.1675 -0.1645
 6310W        W22444   4.182   7.741   2.391 -0.2247  0.1531  0.4252
 6311W        W22445  11.820   6.180   4.569  0.0147 -0.2255 -0.0408
 6312W        W22446   5.717   1.136   2.099  0.0288  0.0218 -0.0651
 6313W        W22447  12.701   8.918   3.878  0.1156 -0.0421 -0.0435
 6314W        W22448   9.170  14.911   3.565  0.2050 -0.0138  0.0737
 6315W        W22449   1.488  10.871   1.741 -0.0337 -0.0379 -0.0395
 6316W        W22450   2.482  12.075   3.388 -0.1410 -0.0272  0.0455
 6317W        W22451   1.790   0.403   1.621 -0.1511  0.1716  0.0000
 6318W        W22452   9.679   7.345   0.258 -0.0922 -0.0006  0.0125
 6319W        W22453  13.790   8.583  15.970  0.0971 -0.1353 -0.0941
 6320W        W22454   8.707   7.569   0.739  0.0107  0.2040 -0.2148
 6321W        W22455  10.087   5.202  14.734 -0.1499 -0.0147 -0.1152
 6322W        W22456   6.021   0.671  11.577  0.1178  0.0908 -0.0231
 6323W        W22457   0.631   8.431  15.484 -0.0682 -0.2998 -0.1992
 6324W        W22458  14.567   9.139   0.682  0.1841 -0.1995 -0.1840
 6325W        W22459  11.095   8.295   5.712  0.5362  0.1753 -0.1315
 6326W        W22460   2.605   5.372  14.612  0.1904 -0.1662 -0.0760
 6327W        W22461  13.016   1.974   5.162 -0.0212  0.1268  0.0421
 6328W        W22462   9.532  15.255  10.503  0.2081 -0.1028  0.1911
 6329W        W22463  14.954   0.672  16.183 -0.1166  0.2772 -0.0143
 6330W        W22464  13.254   1.957  13.644  0.0033 -0.0752 -0.1332
 6331W        W22465   9.427   9.120  12.319 -0.2333 -0.0159  0.2145
 6332W        W22466  12.303   2.814   2.191  0.2197 -0.0147 -0.0159
 6333W        W22467   8.841   2.545   0.204 -0.3119  0.1700 -0.1643
 6334W        W22468   9.212   1.147  13.354 -0.4758 -0.0603  0.1372
 6335W        W22469  16.189   8.865  13.012 -0.4288 -0.1168 -0.0384
 6336W        W22470   1.021  14.328  12.003  0.0636  0.0561  0.1197
 6337W        W22471  14.816  17.338  12.709 -0.2340  0.7056 -0.3051
 6338W        W22472   5.894  13.751  15.748 -0.0867 -0.0030 -0.0323
 6339W        W22473   3.627   1.812  13.798  0.0463  0.0482  0.1685
 6340W        W22474  16.979   2.681   3.053  0.1010 -0.1839  0.0543
 6341W        W22475   9.639   5.468  13.144 -0.0684  0.3432  0.0421
 6342W        W22476   9.681   5.026   0.798 -0.2808  0.1522  0.0447
 6343W        W22477   9.080  13.928   0.967 -0.1230  0.0166 -0.3671
 6344W        W22478   5.431  15.416   4.624  0.0164  0.0961  0.3688
 6345W        W22479   1.718   1.469   1.650  0.1021  0.0832  0.3240
 6346W        W22480   1.205  12.804  12.900  0.4235 -0.3369 -0.1867
 6347W        W22481   1.026  11.305  13.660  0.1276 -0.1479  0.2709
 6348W        W22482   0.685  11.579   3.905  0.2500 -0.0993 -0.0595
 6349W        W22483   4.571   9.638   0.460  0.1714 -0.2109  0.3927
 6350W        W22484   8.097  16.015  12.171 -0.1308 -0.0697  0.3043
 6351W        W22485  14.702   7.755   2.104 -0.3930 -0.1680  0.1323
 6352W        W22486  11.568  13.706   1.272  0.0133 -0.0671  0.1345
 6353W        W22487   2.299   1.354  16.180 -0.2596  0.1195 -0.4573
 6354W        W22488  17.727  13.697  12.439 -0.3308 -0.0976 -0.2118
 6355W        W22489   5.650  17.832   4.832  0.2484  0.0630 -0.0137
 6356W        W22490   5.815   8.173   1.823  0.0930  0.1648 -0.2618
 6357W        W22491   3.625  14.772   1.736  0.2286  0.1718 -0.2060
 6358W        W22492   3.148  17.534  15.443  0.2214  0.1011 -0.1170
 6359W        W22493   4.012   3.113   5.449  0.1515  0.1357  0.1957
 6360W        W22494  10.136   1.491   4.089  0.1557  0.1242  0.0259
 6361W        W22495   6.685  11.291  11.081  0.0018  0.2337 -0.2488
 6362W        W22496  15.260  14.193  13.278  0.1792  0.0360  0.1599
 6363W        W22497  12.534   4.321   0.195 -0.1823 -0.0053  0.1594
 6364W        W22498   2.342  10.890  11.683  0.0079  0.3836 -0.1109
 6365W        W22499   3.863   8.315   1.203  0.1320  0.1333  0.1287
 6366W        W22500   1.960   5.722  13.784 -0.0835 -0.0095  0.1492
 6367W        W22501   5.872   5.907   3.742 -0.2712 -0.0340 -0.0757
 6368W        W22502   5.281  13.071  15.727  0.0488  0.0690  0.1534
 6369W        W22503   7.223   3.902  15.343 -0.0171  0.0293  0.0409
 6370W        W22504   9.664   4.164  15.102 -0.1944  0.5656 -0.1277
 6371W        W22505  14.882   6.329  11.500 -0.1661  0.2001 -0.1124
 6372W        W22506  11.583   0.543  16.544 -0.1826  0.0148 -0.1703
 6373W        W22507  14.109   8.087  12.474  0.0490  0.1871 -0.2682
 6374W        W22508   8.714  11.009   3.218  0.1145 -0.1042  0.1641
 6375W        W22509   6.709  16.051  10.662 -0.0054  0.3589 -0.1580
 6376W        W22510   6.795  13.727  14.758 -0.0534  0.0819  0.0928
 6377W        W22511   0.960   9.589  14.821 -0.2238  0.0872  0.0067
 6378W        W22512  13.350   0.835   0.617  0.0348 -0.0966 -0.0047
 6379W        W22513   6.467   0.307   0.400  0.2990 -0.0339 -0.0398
 6380W        W22514   6.739   0.329   6.002  0.0394 -0.2224  0.0500
 6381W        W22515  14.235   0.465   3.719  0.1123 -0.0378  0.0727
 6382W        W22516   6.956  12.813  14.288  0.0772 -0.1469 -0.1824
 6383W        W22517   2.811  11.909   4.366  0.1581 -0.0360 -0.1235
 6384W        W22518  15.627  10.555  10.837  0.1620 -0.0547  0.1385
 6385W        W22519   7.652   8.046   1.238 -0.0698  0.1694 -0.3829
 6386W        W22520   2.563  11.225   6.502  0.1138  0.2552  0.1161
 6387W        W22521  13.629  15.595   0.611  0.1036 -0.2093  0.1835
 6388W        W22522   7.711  17.802  16.614  0.1845  0.0815 -0.2285
 6389W        W22523  16.295   1.233   4.319 -0.3014  0.0927 -0.2399
 6390W        W22524   6.977  13.749  11.937  0.0949  0.0406 -0.0333
 6391W        W22525  16.973  11.217   4.802 -0.2481  0.0136  0.1343
 6392W        W22526   2.861   2.910   3.065 -0.2055  0.1528  0.0074
 6393W        W22527   9.513  13.632   3.736 -0.0709  0.1672  0.0763
 6394W        W22528   1.467  14.555   4.323  0.0993 -0.1887 -0.1587
 6395W        W22529  12.623  14.119   4.294  0.1306 -0.2520  0.0044
 6396W        W22530   3.995  10.370  14.646 -0.2192 -0.4009  0.0133
 6397W        W22531   3.903   3.510   4.502 -0.1837 -0.0993  0.0092
 6398W        W22532  10.325   3.094  13.986 -0.2188  0.1457 -0.0423
 6399W        W22533  14.013   0.556   1.141 -0.0645  0.2432 -0.0201
 6400W        W22534   7.587   1.043   2.248 -0.0091  0.0015 -0.1027
 6401W        W22535  10.609  10.296   2.129  0.4942 -0.0117 -0.0031
 6402W        W22536   8.494  17.355   3.383 -0.2793  0.3223  0.3610
 6403W        W22537  13.422  13.385   2.765  0.1873 -0.0226 -0.3207
 6404W        W22538   7.957  17.573  13.205  0.1056  0.0699 -0.0129
 6405W        W22539   3.417  15.242  15.499  0.4210  0.1014 -0.1283
 6406W        W22540   6.883   8.649  12.339  0.0225 -0.2526  0.1625
 6407W        W22541  14.299   5.470   5.493 -0.1060  0.2398  0.0525
 6408W        W22542   8.579  11.287   0.649  0.0879  0.0124 -0.1133
 6409W        W22543   3.260  16.287   3.262  0.1160  0.2709 -0.0220
 6410W        W22544  17.610   5.732  13.212 -0.0502  0.1220  0.1401
 6411W        W22545  12.513   4.880  13.663 -0.1746 -0.1311  0.2866
 6412W        W22546  15.512   4.213  13.198 -0.0406  0.0937 -0.4161
 6413W        W22547   5.598  11.188   2.391 -0.0855 -0.0360  0.3175
 6414W        W22548   5.621  14.463  12.250  0.0838 -0.2161  0.2190
 6415W        W22549   5.220   0.241   3.806 -0.0466 -0.1662  0.1435
 6416W        W22550  11.541   2.962  14.557  0.2845  0.0429 -0.2071
 6417W        W22551   1.309   3.725   2.502 -0.0017  0.3223  0.3798
 6418W        W22552  14.148  17.288   4.180  0.0318 -0.0050 -0.2505
 6419W        W22553  15.891  12.724  14.972 -0.2925 -0.1600  0.2742
 6420W        W22554   9.367  13.617   1.183  0.0123  0.0486  0.1439
 6421W        W22555  10.624  16.535   3.237  0.3866 -0.2412 -0.0224
 6422W        W22556  11.011  10.825  16.702  0.1090 -0.2646  0.2952
 6423W        W22557   2.657  11.347   2.804 -0.0900 -0.0292 -0.0128
 6424W        W22558  16.156   6.363  16.459  0.5437  0.1784  0.2016
 6425W        W22559   5.016  16.993   3.758  0.1658 -0.0877 -0.2284
 6426W        W22560  14.903   6.056  15.234  0.0266 -0.0235  0.3055
 6427W        W22561   8.014  14.437   5.401 -0.2344  0.0502 -0.4273
 6428W        W22562  15.927   6.273   3.165 -0.1783 -0.0661 -0.0303
 6429W        W22563   8.295   1.150   4.130  0.1711  0.0904  0.0808
 6430W        W22564  16.932  15.509  11.406 -0.0753 -0.0669  0.1848
 6431W        W22565   1.855   4.143  13.414 -0.2794 -0.0240  0.2326
 6432W        W22566   4.129   7.299   1.087 -0.0046 -0.1307  0.0012
 6433W        W22567   8.857   5.982  16.096 -0.1755 -0.0487  0.2205
 6434W        W22568   0.353   8.914  10.483 -0.2873 -0.2460  0.1152
 6435W        W22569  10.318  17.922  16.335  0.1563  0.2260  0.0033
 6436W        W22570   7.385   2.141   4.428 -0.0583 -0.1263 -0.1442
 6437W        W22571  13.450  15.500  12.732 -0.1214 -0.0712 -0.1409
 6438W        W22572   3.486   3.981  11.548 -0.0387  0.2143  0.0866
 6439W        W22573  13.939   0.717  14.903 -0.0474 -0.0655 -0.0944
 6440W        W22574  17.768   2.294   1.802 -0.0501 -0.2379  0.0141
 6441W        W22575  14.599  14.651  12.009  0.0256 -0.0845  0.2973
 6442W        W22576  10.800   0.850  12.282 -0.0393 -0.2777 -0.2497
 6443W        W22577  17.779   3.151   6.061  0.0104 -0.2489  0.0894
 6444W        W22578   8.957   3.741   1.101 -0.1056 -0.0165  0.0448
 6445W        W22579  16.775  16.199  13.871  0.0108 -0.1668 -0.1500
 6446W        W22580   6.504  12.293  13.739  0.1532  0.2013 -0.1834
 6447W        W22581   8.216  12.878   1.072  0.1174  0.1489  0.1097
 6448W        W22582  14.306   4.841   5.298  0.2787  0.1763 -0.2654
 6449W        W22583  13.915  13.489   2.881  0.2776  0.4014  0.2155
 6450W        W22584   0.693  13.654  12.750 -0.2073  0.3392 -0.2300
 6451W        W22585  13.453   6.450  15.554  0.1144 -0.0357 -0.3005
 6452W        W22586   6.403   5.325   6.055  0.1856  0.0707 -0.3265
 6453W        W22587  10.442  14.774   1.759  0.1322 -0.0072  0.2714
 6454W        W22588   3.401  11.834   1.843  0.1583 -0.1365 -0.4784
 6455W        W22589   7.436   5.079  14.584 -0.1801  0.2077 -0.1298
 6456W        W22590  13.015   1.937  14.099  0.0238  0.1496 -0.0942
 6457W        W22591  11.454   4.248   5.413 -0.0116  0.3562 -0.0394
 6458W        W22592  14.098  13.587  13.310 -0.1886  0.0991  0.1387
 6459W        W22593  11.156   7.777  14.758 -0.1201  0.2441 -0.0881
 6460W        W22594  13.011  12.035   2.720 -0.2317  0.2830 -0.1533
 6461W        W22595  16.500   8.641   0.428  0.3258 -0.0775  0.1745
 6462W        W22596  15.321   7.076   1.241 -0.1301  0.1091 -0.2810
 6463W        W22597   8.753  14.805   0.270 -0.0673  0.0851  0.0469
 6464W        W22598   8.551   6.092  15.602  0.0834 -0.0742  0.0940
 6465W        W22599   5.415   9.365  14.840  0.4785  0.1685 -0.0305
 6466W        W22600   2.847  13.664  16.350 -0.2501 -0.2558 -0.1838
 6467W        W22601  11.536   9.658   5.656  0.5390 -0.1922  0.0917
 6468W        W22602  15.217   9.175  10.745  0.1274 -0.0787 -0.2596
 6469W        W22603   0.971  10.284   0.574  0.0655 -0.1270  0.1452
 6470W        W22604  15.129   9.908  13.226  0.3136  0.0775 -0.2881
 6471W        W22605   5.546   0.420  15.252  0.1604  0.0476  0.1141
 6472W        W22606   9.449  17.505  13.972  0.0880  0.0990  0.0154
 6473W        W22607  13.389  14.415  12.098 -0.0316  0.2779 -0.1102
 6474W        W22608  12.939  13.675   2.067 -0.1151  0.1376 -0.2529
 6475W        W22609  10.188  16.855   0.557  0.0997 -0.1115  0.0206
 6476W        W22610   4.972  15.202   3.739  0.2517 -0.1620 -0.2313
 6477W        W22611  14.394   7.319   3.553  0.0247  0.1531 -0.1027
 6478W        W22612   7.009   2.034  15.139  0.1378 -0.1104  0.1811
 6479W        W22613   7.057   1.605   4.379  0.2007 -0.0158  0.0355
 6480W        W22614   1.290  10.784  13.986  0.0293 -0.1751 -0.2788
 6481W        W22615  13.112   5.100  11.210 -0.2454 -0.0840 -0.1117
 6482W        W22616   2.519  10.525   2.269 -0.2881 -0.2601 -0.4224
 6483W        W22617  10.688   7.154   1.563  0.2183  0.0111  0.4782
 6484W        W22618  10.357  12.532   0.718  0.0939 -0.0288 -0.2666
 6485W        W22619   9.631   5.473  14.596 -0.0019  0.0183  0.0811
 6486W        W22620  15.034   2.406  13.300  0.1083  0.2975 -0.0561
 6487W        W22621   7.602  14.047   5.229 -0.1411 -0.1678 -0.2763
 6488W        W22622   1.875  13.045   0.955  0.1059  0.1172  0.0543
 6489W        W22623  11.039   9.585  16.543  0.1344  0.2971 -0.0156
 6490W        W22624  17.364  12.533   2.239  0.1339  0.1906 -0.0762
 6491W        W22625   1.374   7.538   2.090  0.1539 -0.1297  0.2013
 6492W        W22626  17.304   9.374   1.482 -0.1003  0.1457 -0.3632
 6493W        W22627  17.010  11.022   1.651 -0.2429 -0.3845  0.4096
 6494W        W22628  13.693  13.363   5.883 -0.0997 -0.0704 -0.2282
 6495W        W22629  17.893   8.327  13.117 -0.1793 -0.0882 -0.2002
 6496W        W22630   3.756  10.541  11.613  0.2197 -0.1776 -0.0906
 6497W        W22631  13.676  15.041   1.916 -0.1842  0.0626  0.1343
 6498W        W22632  10.256  14.159  11.924 -0.1189  0.1610  0.1625
 6499W        W22633   2.416   5.286   4.018 -0.1020 -0.1066 -0.0683
 6500W        W22634  14.035   7.403   2.667 -0.1063  0.1284 -0.0776
 6501W        W22635   0.824  11.825  15.456  0.3618 -0.0685 -0.1232
 6502W        W22636   3.870  13.808  15.398  0.0606  0.1815 -0.3035
 6503W        W22637   5.721  14.586  15.279 -0.2535  0.1986 -0.0741
 6504W        W22638   4.518  13.143  16.198 -0.2186  0.0636  0.1245
 6505W        W22639  12.328  16.762   2.156  0.2427  0.2919 -0.1716
 6506W        W22640   4.317   3.221   4.688  0.1922 -0.0692 -0.4607
 6507W        W22641  17.555   2.711   2.045 -0.0807 -0.2472  0.0989
 6508W        W22642   1.504  14.747   2.157  0.1855  0.1730  0.2317
 6509W        W22643  12.119   0.086   3.449 -0.3302  0.2235 -0.0378
 6510W        W22644   2.456  15.066   5.204 -0.1648 -0.1945 -0.0075
 6511W        W22645   1.981  16.642   2.667  0.0133  0.1292  0.0705
 6512W        W22646   2.316  15.050   5.722  0.3056 -0.2710  0.0271
 6513W        W22647   7.360  12.995   3.406 -0.4476 -0.2009  0.1596
 6514W        W22648  11.053   0.143   1.827 -0.1702 -0.2811 -0.0166
 6515W        W22649  14.687  12.654  15.025  0.0035 -0.0152 -0.2197
 6516W        W22650   4.210   7.307   4.163 -0.1250 -0.1110  0.0486
 6517W        W22651   2.497   4.152   3.972  0.1485 -0.4329 -0.3725
 6518W        W22652   7.883  10.369  11.036 -0.2396 -0.0190 -0.1243
 6519W        W22653  15.425  11.821  13.942 -0.4786  0.1993 -0.1378
 6520W        W22654  11.987   9.839  15.413 -0.0783 -0.2810 -0.0837
 6521W        W22655   5.689   4.349   1.679  0.1221  0.1044  0.4479
 6522W        W22656   0.742   4.427   4.647 -0.1246  0.0040 -0.1010
 6523W        W22657   8.966   3.556   6.467  0.0809  0.0184 -0.0151
 6524W        W22658  12.746   7.929   0.819  0.0703  0.1352  0.0884
 6525W        W22659   2.765   1.951  11.795 -0.0841  0.1439 -0.2446
 6526W        W22660  12.511  15.976  11.931  0.2252  0.0279 -0.0469
 6527W        W22661  11.640  15.081   3.918 -0.1385 -0.2814  0.0367
 6528W        W22662   7.613   9.022   5.293  0.0693  0.2938 -0.0694
 6529W        W22663   0.311  12.773   2.191  0.0186 -0.0575 -0.0026
 6530W        W22664  12.843   0.885  11.802  0.3675  0.2439 -0.3252
 6531W        W22665   6.323   6.805  14.065  0.0052 -0.0624  0.0557
 6532W        W22666   6.006   5.153  14.721 -0.1463  0.2178 -0.0569
 6533W        W22667   8.710  12.804  13.021  0.2659  0.2077  0.1839
 6534W        W22668   1.219  10.088   3.725  0.0222 -0.0634 -0.0205
 6535W        W22669   9.993   8.793  11.318  0.1227 -0.0849 -0.0815
 6536W        W22670   0.616   7.658   2.457  0.0216 -0.0348 -0.0876
 6537W        W22671   4.118  12.158  13.959 -0.0622 -0.2340  0.0412
 6538W        W22672  10.084   8.502  15.728  0.2197 -0.1654 -0.1393
 6539W        W22673   7.817   8.977   3.078  0.0114 -0.1607 -0.0201
 6540W        W22674   4.570  12.400   5.247 -0.0191 -0.1042  0.0807
 6541W        W22675   7.261  14.764  13.484 -0.1407  0.2396 -0.2989
 6542W        W22676  10.455   2.765   1.829 -0.2349  0.1124 -0.4252
 6543W        W22677  14.187  11.010   1.910 -0.0432  0.4288  0.0517
 6544W        W22678   2.692  17.533   1.327 -0.1464  0.2109 -0.0410
 6545W        W22679   1.062   0.444  13.931  0.2301  0.0577  0.0022
 6546W        W22680   6.411   6.940   5.045 -0.0098 -0.1016  0.0144
 6547W        W22681   7.400   3.767  14.382 -0.1094  0.2288  0.2737
 6548W        W22682   6.064   4.089   1.730  0.0415  0.0496  0.1963
 6549W        W22683   5.387  10.027   3.340 -0.2884 -0.1204 -0.3823
 6550W        W22684   2.995   5.983   1.895 -0.2201  0.1126 -0.0855
 6551W        W22685   7.953   6.440  15.915  0.2134  0.2974 -0.0615
 6552W        W22686  13.679   7.718   4.752  0.0549  0.0875  0.1667
 6553W        W22687  10.884  11.251   3.457  0.0736 -0.4626  0.1044
 6554W        W22688  15.176  17.712   0.482  0.0165 -0.0888 -0.0658
 6555W        W22689   2.067   5.234  15.648  0.3494  0.0575  0.1462
 6556W        W22690   4.283   2.425   1.407  0.2472  0.4480  0.2117
 6557W        W22691   7.893  14.626   3.199  0.0192  0.0685  0.1043
 6558W        W22692   1.137  17.189   1.683  0.5219  0.0009 -0.0654
 6559W        W22693   6.998  13.780  15.227 -0.2337 -0.2017  0.1034
 6560W        W22694  10.392   7.937  11.456 -0.0076 -0.1756  0.1116
 6561W        W22695  15.263   9.796   3.222 -0.0626  0.0606 -0.2160
 6562W        W22696   6.934   6.347   2.272  0.0366 -0.0123  0.0139
 6563W        W22697  17.125  16.244  11.976 -0.1417  0.0624 -0.2953
 6564W        W22698   8.269  17.667  12.001 -0.1043 -0.0472 -0.2887
 6565W        W22699  17.699   6.175   5.028 -0.0970 -0.0643 -0.1518
 6566W        W22700   6.096  17.293   3.722  0.2084  0.0674  0.1051
 6567W        W22701  10.939   9.029  16.595 -0.0337 -0.0414 -0.0276
 6568W        W22702   1.755   5.427   5.223 -0.3013 -0.2094  0.1257
 6569W        W22703  11.436  14.059  14.906 -0.1994 -0.1994 -0.2780
 6570W        W22704   5.455  12.642  11.736 -0.1832 -0.0896 -0.2616
 6571W        W22705   3.568   9.228  13.926 -0.1847  0.0189  0.1594
 6572W        W22706   0.987   5.807  14.495  0.0708  0.1451  0.2937
 6573W        W22707  17.872   0.306   4.923  0.0797  0.0379  0.0143
 6574W        W22708  12.836   4.244  12.849 -0.1990 -0.0033  0.1835
 6575W        W22709  11.123   0.190  14.283 -0.1598  0.0478  0.0444
 6576W        W22710   4.904   9.545  15.339 -0.1969 -0.0397  0.0334
 6577W        W22711  17.355  16.010  14.679 -0.0284  0.1430 -0.2862
 6578W        W22712  13.199   4.996  11.697  0.0654  0.4205 -0.2951
 6579W        W22713   6.938  10.501   3.968 -0.0370  0.0796 -0.1587
 6580W        W22714  13.863   8.592  11.610 -0.1685  0.1936  0.0214
 6581W        W22715   5.735   0.265   2.016  0.0421 -0.2931 -0.1361
 6582W        W22716  15.062   2.157  12.189 -0.1308 -0.1763 -0.0184
 6583W        W22717  14.217  14.213  15.201 -0.1652 -0.2987 -0.1046
 6584W        W22718  11.824  13.602  12.367 -0.0723  0.1337  0.1613
 6585W        W22719   4.702  10.975   4.796 -0.2224 -0.1717  0.1778
 6586W        W22720   7.564   5.203   5.697 -0.0103 -0.1308 -0.2315
 6587W        W22721  13.592   6.691  14.350  0.1257 -0.0680  0.1819
 6588W        W22722   2.643   2.020  15.810  0.1109  0.0328  0.0729
 6589W        W22723  10.183  11.158   4.653 -0.0540 -0.1995 -0.1216
 6590W        W22724   8.048   2.634  12.912  0.4734  0.1183 -0.0759
 6591W        W22725  17.680  15.354  15.298  0.3429 -0.0902 -0.4312
 6592W        W22726  12.971   6.307   3.609 -0.0553  0.1755  0.2254
 6593W        W22727   7.610  12.573  15.375 -0.3598 -0.0859  0.0990
 6594W        W22728  16.806  13.730  13.987 -0.1792 -0.0770  0.1100
 6595W        W22729  12.179   1.974   1.319  0.3266  0.1144 -0.0166
 6596W        W22730  17.171   6.337  16.149  0.1317  0.2182  0.0068
 6597W        W22731  15.324  10.806   4.748  0.1446  0.0484 -0.2399
 6598W        W22732   4.552  14.883  12.029 -0.0316 -0.2768 -0.0561
 6599W        W22733  13.561  14.763   0.578 -0.1271  0.2013  0.4778
 6600W        W22734   6.390   3.774   4.393  0.0959  0.0314  0.3004
 6601W        W22735   4.170   4.672   4.071  0.0961 -0.1996  0.2193
 6602W        W22736  14.233  10.248   5.570  0.1611 -0.1599 -0.0290
 6603W        W22737  11.931   6.699  14.983 -0.1815 -0.1980  0.0579
 6604W        W22738   2.978  16.305  14.996  0.1052  0.2098  0.0359
 6605W        W22739   3.400  10.945   0.821 -0.6420 -0.1363  0.1129
 6606W        W22740  10.877   1.495   3.919 -0.2032 -0.4111 -0.1923
 6607W        W22741   1.792   3.179   4.570  0.1826 -0.1747 -0.2854
 6608W        W22742   9.697   5.871   0.360  0.0936 -0.0162 -0.0514
 6609W        W22743  15.543   0.814  14.459  0.1483  0.2132 -0.1126
 6610W        W22744   2.895   8.560   2.019  0.0375 -0.2492  0.0464
 6611W        W22745   9.697  11.553  14.103  0.0444 -0.3092  0.1043
 6612W        W22746   2.518   5.411  16.479  0.0412  0.5247  0.1892
 6613W        W22747  12.466   4.380  11.623 -0.0918 -0.3407 -0.1208
 6614W        W22748  17.625  13.511   5.182  0.1499  0.1492  0.1171
 6615W        W22749  10.387  11.886  11.450  0.0369 -0.1070 -0.0665
 6616W        W22750   9.773  17.149  16.314 -0.1966 -0.5679  0.1990
 6617W        W22751  17.272   0.175   2.878  0.5872 -0.0041 -0.1528
 6618W        W22752   8.071   3.999   2.022 -0.2289 -0.0556  0.0494
 6619W        W22753   6.913   0.379  16.693  0.1697  0.2353  0.1491
 6620W        W22754   7.165  11.040  15.768 -0.1620  0.0082 -0.0573
 6621W        W22755   0.208  13.520   0.086  0.1144 -0.2291  0.1233
 6622W        W22756   3.076   1.482   3.788  0.0117 -0.2976  0.0932
 6623W        W22757   3.433   6.600  13.458  0.0525 -0.1250  0.0073
 6624W        W22758  12.064   6.189  13.440 -0.1352 -0.1520  0.3334
 6625W        W22759   3.225  17.564   2.692 -0.1239 -0.0933 -0.1963
 6626W        W22760   3.897  14.914  12.596  0.0318 -0.0808 -0.4020
 6627W        W22761  10.841   1.669   4.421 -0.1421 -0.2617 -0.1238
 6628W        W22762   6.153  16.752  11.806 -0.1167 -0.4946 -0.2482
 6629W        W22763   9.686   6.953   5.733 -0.2137  0.5586 -0.0484
 6630W        W22764   6.099  10.526  15.385  0.0572  0.0143 -0.1604
 6631W        W22765   5.575   0.894  15.393  0.2165 -0.1004 -0.1314
 6632W        W22766   3.934   3.924   2.562  0.0041  0.0984 -0.1710
 6633W        W22767   2.870  17.951   5.410  0.1132 -0.0778  0.0090
 6634W        W22768   6.297  10.921   5.484  0.2081 -0.1666 -0.2151
 6635W        W22769  11.603  17.190   0.913 -0.0214  0.0384 -0.0369
 6636W        W22770  15.983   1.582  14.924 -0.0328 -0.1487 -0.0228
 6637W        W22771  14.438   6.754   2.001 -0.0440 -0.0910  0.1693
 6638W        W22772   7.549   1.936  12.129 -0.1524 -0.0128 -0.2873
 6639W        W22773  11.618  15.213  16.589 -0.0547  0.3995 -0.0293
 6640W        W22774  14.307   6.648  15.970  0.0271 -0.0487 -0.1984
 6641W        W22775  15.401   0.322   4.019 -0.1167 -0.1467  0.1241
 6642W        W22776   2.771   0.117  13.204  0.1005  0.0887  0.1737
 6643W        W22777  16.946   8.516   3.769  0.0086 -0.1181  0.1186
 6644W        W22778   8.006   8.293  11.321  0.1975 -0.0110 -0.0037
 6645W        W22779  10.920   3.206   5.730  0.3553 -0.0631  0.3707
 6646W        W22780  13.418   0.676   1.807  0.0468  0.0405 -0.3003
 6647W        W22781  12.470  11.657  11.933  0.1223 -0.1509 -0.0194
 6648W        W22782  11.154   9.809  12.650  0.1333 -0.0500 -0.4454
 6649W        W22783  16.451  11.941  14.181  0.0966 -0.1759 -0.3795
 6650W        W22784  13.961  17.053   1.448  0.0408 -0.0410  0.0042
 6651W        W22785   6.609  11.871   3.926 -0.0180  0.1720 -0.0738
 6652W        W22786   0.637  17.491  15.614 -0.0237  0.1712  0.0303
 6653W        W22787   7.665   4.144  15.632 -0.1262  0.1851 -0.1648
 6654W        W22788  16.582   5.612  14.199  0.1349 -0.1121  0.0278
 6655W        W22789  10.564   4.671   1.283 -0.1494  0.1712 -0.0815
 6656W        W22790   9.427   6.790  16.261  0.1176 -0.2440 -0.2083
 6657W        W22791   3.075   3.052  16.373 -0.5101 -0.0512  0.1498
 6658W        W22792  11.576  12.725  16.294 -0.4125 -0.4016 -0.2110
 6659W        W22793   4.627   2.975   2.009 -0.2650  0.2779 -0.0102
 6660W        W22794   3.485   5.126   4.782  0.0393  0.0278  0.1032
 6661W        W22795   6.836  11.493  15.860  0.2490  0.1991 -0.1668
 6662W        W22796   3.450  10.394   0.867  0.0959 -0.0843  0.0369
 6663W        W22797   4.999  15.785   1.508 -0.0488 -0.1791 -0.4584
 6664W        W22798  12.123   7.579   1.099  0.0275  0.0726  0.0835
 6665W        W22799   3.190   3.426  16.687  0.2853 -0.3305 -0.0367
 6666W        W22800   5.380   8.462   1.074 -0.0413 -0.0089  0.0473
 6667W        W22801   3.188   0.560  12.315  0.0663 -0.0978  0.0774
 6668W        W22802  13.900  14.583   1.830 -0.2577 -0.1917 -0.1489
 6669W        W22803   9.528  15.947   5.045 -0.3784 -0.0920 -0.0164
 6670W        W22804  10.359   5.851  15.298 -0.0195 -0.1636 -0.1107
 6671W        W22805   8.510   1.586  11.510  0.0162 -0.0559 -0.3066
 6672W        W22806   2.212   0.687   1.638  0.1190  0.1591 -0.3462
 6673W        W22807  16.894   6.737  12.320  0.0360 -0.1586 -0.1482
 6674W        W22808   1.177   3.543   0.091  0.3850  0.0463  0.0522
 6675W        W22809   4.581   7.527   1.681 -0.2464  0.2333 -0.2244
 6676W        W22810   3.333   7.568   0.668  0.2805 -0.3629 -0.0504
 6677W        W22811  14.529   7.048   5.237  0.3505  0.2188  0.0971
 6678W        W22812  12.225   2.585  15.757 -0.1106  0.0661 -0.1094
 6679W        W22813  11.754  11.779   6.062 -0.0979  0.0058 -0.0349
 6680W        W22814  12.481   7.034   3.954 -0.0412 -0.0818  0.0288
 6681W        W22815  12.837   2.398  12.976  0.2423 -0.0717 -0.1817
 6682W        W22816   1.132  11.720  13.956  0.2081 -0.0264  0.2622
 6683W        W22817  12.944  15.537   1.154  0.1419  0.1531  0.1345
 6684W        W22818  10.671   8.667  12.192 -0.0890 -0.0562  0.1900
 6685W        W22819  10.796   7.949   5.476  0.1520 -0.2398 -0.2335
 6686W        W22820   4.672   3.160   0.831 -0.0433 -0.1938 -0.3029
 6687W        W22821  15.896   9.260  13.096  0.4798  0.0983  0.3715
 6688W        W22822   3.077  11.488   0.639 -0.2068  0.1711 -0.2502
 6689W        W22823  14.654   1.752  16.385 -0.1656  0.0716  0.0198
 6690W        W22824   9.216   3.679  11.852  0.2854 -0.0965 -0.4174
 6691W        W22825   2.651   2.040   6.373 -0.1549 -0.0864  0.0256
 6692W        W22826  15.328   2.882   0.210 -0.0783  0.2757 -0.1408
 6693W        W22827   9.912  17.193   1.014 -0.0934 -0.0632 -0.1808
 6694W        W22828   6.774   3.825  15.597  0.0023 -0.1427 -0.0151
 6695W        W22829   3.940   1.601   1.211 -0.3224 -0.0356 -0.0778
 6696W        W22830   3.723   3.530   2.281 -0.0306 -0.1238 -0.1479
 6697W        W22831  12.245   9.351  11.955 -0.0867 -0.1331 -0.0798
 6698W        W22832   7.415   2.869  14.338  0.0357  0.0356 -0.0955
 6699W        W22833   5.601  12.284   2.302  0.1592  0.0610  0.2058
 6700W        W22834  14.431   7.637   1.649 -0.0262  0.1057 -0.0464
 6701W        W22835   2.737   6.377   5.347  0.0596 -0.1038  0.2138
 6702W        W22836  10.582   5.198   1.115 -0.0210  0.0565  0.0088
 6703W        W22837   7.835   9.773   1.686 -0.2083  0.0723 -0.3147
 6704W        W22838  12.975   3.526   2.225  0.2153 -0.1164 -0.0805
 6705W        W22839  11.839   9.392   1.987  0.1247  0.0124  0.0696
 6706W        W22840  15.730   1.507  14.329 -0.1234  0.4666 -0.1025
 6707W        W22841   6.545  17.405  13.550  0.0240 -0.2469  0.1293
 6708W        W22842   8.113  13.495   1.476 -0.0944 -0.0287  0.3495
 6709W        W22843  17.751  14.919   4.142 -0.1176 -0.0447 -0.0849
 6710W        W22844   5.458   9.236  12.431 -0.1004  0.2537  0.1862
 6711W        W22845   8.382   0.491  12.414  0.1453  0.0449 -0.1840
 6712W        W22846   9.104   4.621   3.941  0.1929  0.1918 -0.2490
 6713W        W22847   5.590  16.664   2.011 -0.0495 -0.1368  0.2651
 6714W        W22848  10.688   0.855   4.358  0.1858 -0.1750  0.0387
 6715W        W22849   3.934   4.691   1.238  0.0551  0.1494  0.0099
 6716W        W22850   1.428  16.805  16.598 -0.1328 -0.0267  0.1745
 6717W        W22851  11.704  15.216   1.717 -0.0476 -0.0816  0.1003
 6718W        W22852   2.060   3.683  12.603  0.0523  0.1691  0.2154
 6719W        W22853  15.656  15.224  14.980  0.1310 -0.1078 -0.0425
 6720W        W22854  11.331  11.601   5.786 -0.0854 -0.0918 -0.1315
 6721W        W22855  15.700   8.068   2.558 -0.0915  0.2812 -0.0593
 6722W        W22856  12.507  13.135   0.311  0.1342 -0.1400  0.0536
 6723W        W22857  17.486  10.234  14.573 -0.1007  0.1692 -0.0918
 6724W        W22858   6.451  16.518   2.914 -0.2513  0.1461 -0.0032
 6725W        W22859   5.324  16.283  16.074  0.0899 -0.1171 -0.1222
 6726W        W22860  17.033   9.018   3.522 -0.0559  0.0995 -0.0752
 6727W        W22861   6.508   8.727  15.778 -0.2088 -0.0278 -0.4056
 6728W        W22862   0.339  13.096   4.859 -0.0551  0.2916 -0.0925
 6729W        W22863  14.633  13.406  12.546  0.3789  0.1384  0.0646
 6730W        W22864  17.922   2.910  13.663  0.3453  0.0537  0.2793
 6731W        W22865   3.059   7.065   4.687 -0.2265 -0.0718 -0.1441
 6732W        W22866  11.617   5.259   3.991  0.0227  0.2198  0.2037
 6733W        W22867   2.379  13.113   4.413  0.0238  0.1656 -0.0804
 6734W        W22868   4.029  14.102   5.481  0.0647  0.2868 -0.1072
 6735W        W22869  10.282  13.944  13.330  0.0652  0.0041  0.2131
 6736W        W22870   4.196   4.822  11.581 -0.0738 -0.0221  0.0950
 6737W        W22871  12.104  10.845  11.562  0.1410 -0.0863 -0.0732
 6738W        W22872   6.685   7.925  11.610  0.3908 -0.0027 -0.0368
 6739W        W22873  12.480   8.755  15.183 -0.0640  0.0859 -0.1549
 6740W        W22874  11.814  16.129   1.239  0.1988  0.3502 -0.2984
 6741W        W22875   2.859   2.891  13.299 -0.0615 -0.2532 -0.0546
 6742W        W22876   3.500   2.446   1.130  0.1334  0.2050  0.0725
 6743W        W22877  10.454  13.811   0.233  0.2822  0.2738  0.0607
 6744W        W22878   9.377   1.101   1.558 -0.2323 -0.0647 -0.2747
 6745W        W22879   2.033   4.091  15.182  0.2487  0.0815  0.2154
 6746W        W22880  13.768  13.151   0.998 -0.1641  0.1017  0.2178
 6747W        W22881  17.969   7.615  14.326  0.0945  0.2184 -0.2287
 6748W        W22882  12.765   0.252  15.745 -0.2108  0.2407  0.0815
 6749W        W22883   3.907   0.892  15.940  0.1217 -0.0969 -0.1786
 6750W        W22884   6.675  13.042  15.991  0.0729 -0.1403 -0.0766
 6751W        W22885   5.073  13.925   3.310  0.1714  0.2419 -0.2651
 6752W        W22886  11.709  10.547  12.905 -0.0323  0.2514 -0.1874
 6753W        W22887   1.560   7.899   6.363 -0.1309 -0.0061 -0.2087
 6754W        W22888   1.620  16.334  13.101  0.0549  0.0527 -0.2095
 6755W        W22889   2.878   0.332   0.289  0.3708  0.0555  0.0588
 6756W        W22890  14.385   8.316  13.338 -0.0292 -0.1433  0.0844
 6757W        W22891  13.405  13.913   5.517  0.1693  0.3823 -0.1029
 6758W        W22892  10.653   6.545  11.354  0.0183  0.0347  0.1516
 6759W        W22893   7.903   4.548   1.711  0.1329  0.2529 -0.3330
 6760W        W22894   8.876   6.884  13.881  0.0554  0.2187  0.0094
 6761W        W22895  10.186   0.837   5.904 -0.0770  0.3434 -0.0116
 6762W        W22896  15.872   7.863   4.563  0.2068 -0.1938 -0.3305
 6763W        W22897  11.514   8.558  12.853 -0.1769  0.1655 -0.1543
 6764W        W22898   7.726  11.633   1.538 -0.2048 -0.1237 -0.0332
 6765W        W22899  10.118  11.495   2.429  0.0997  0.0474 -0.1798
 6766W        W22900   6.676   4.901  13.013 -0.2043  0.1839  0.0709
 6767W        W22901   7.582   7.452   1.906 -0.0706 -0.0924 -0.0810
 6768W        W22902  16.867   6.066  14.176 -0.3142  0.2977 -0.0875
 6769W        W22903   3.347   7.727   5.449  0.1218 -0.1321 -0.0910
 6770W        W22904   4.437  13.424  14.738  0.4105  0.0228  0.0218
 6771W        W22905  14.770   0.657   5.149  0.0096  0.0345  0.0165
 6772W        W22906   0.449   2.063  14.799 -0.4595  0.4180 -0.1153
 6773W        W22907  10.299   2.253  14.563 -0.1347  0.2725 -0.0149
 6774W        W22908  17.594  16.771  16.124 -0.0068 -0.3357 -0.0345
 6775W        W22909   0.412  11.358   2.670 -0.0647 -0.1402 -0.1214
 6776W        W22910   0.331   4.181  13.785  0.1468  0.0894 -0.0972
 6777W        W22911  16.336   3.631   2.906 -0.1953 -0.0703 -0.1514
 6778W        W22912   3.502   5.892  11.717  0.2677 -0.0804  0.1903
 6779W        W22913   3.286   7.270  16.626  0.1084  0.2015  0.0477
 6780W        W22914   0.062   0.250  15.572  0.0436  0.0215 -0.0428
 6781W        W22915  17.490   5.773   4.805 -0.0884 -0.0682  0.0910
 6782W        W22916  15.978   6.795  12.378  0.4678 -0.0536 -0.1770
 6783W        W22917   6.917  14.461  15.038  0.1968  0.3742 -0.0576
 6784W        W22918   6.470   0.503  15.047 -0.1569 -0.2653 -0.0365
 6785W        W22919   2.839   6.298   1.549 -0.2321  0.2267  0.0639
 6786W        W22920   2.782   3.983   1.901 -0.1134 -0.1065  0.3717
 6787W        W22921   2.250  17.674   1.560  0.0281 -0.3866  0.3230
 6788W        W22922  11.383  14.663   4.117  0.0267  0.0031  0.0314
 6789W        W22923  11.738  15.414  12.262  0.0491 -0.2028 -0.1621
 6790W        W22924  17.560  10.639  14.274 -0.2154  0.0667 -0.1860
 6791W        W22925  13.567  10.956   5.779  0.1869  0.0944 -0.1913
 6792W        W22926  15.623  14.040   4.817  0.0120 -0.0226  0.0465
 6793W        W22927   3.608   5.557   3.947 -0.0318 -0.0185 -0.1145
 6794W        W22928   4.792  14.583  15.932  0.4507 -0.2392  0.0560
 6795W        W22929   9.678  17.929   2.936  0.2345 -0.4125 -0.1557
 6796W        W22930  11.127  14.355   3.412  0.1977  0.2582  0.1864
 6797W        W22931   7.520   9.822  15.411 -0.1450  0.1686 -0.0952
 6798W        W22932   9.356  13.789  13.006  0.0939  0.1452 -0.2592
 6799W        W22933   3.274  10.190   4.685  0.0274 -0.2039 -0.2336
 6800W        W22934  12.540  17.292  13.298 -0.0505  0.0928 -0.1667
 6801W        W22935   0.986   4.343   1.008 -0.0876  0.1519  0.0975
 6802W        W22936   8.644   9.761  11.240 -0.1778  0.0795 -0.2828
 6803W        W22937  12.788   0.683   1.385  0.0330  0.0514 -0.1290
 6804W        W22938  17.764   6.817   0.238 -0.0700  0.1069 -0.1798
 6805W        W22939   8.542  12.868  11.970 -0.0894  0.0631  0.2787
 6806W        W22940   5.708  15.751  11.776  0.2265 -0.0535  0.0374
 6807W        W22941  10.838  14.303  13.653 -0.0911 -0.0913 -0.1941
 6808W        W22942  10.034   0.045   4.190  0.1958 -0.0306  0.0772
 6809W        W22943   4.165   0.675   0.446  0.2979  0.5914  0.2013
 6810W        W22944   0.119  13.368   5.903  0.0355  0.0555  0.1945
 6811W        W22945   7.236  14.672  11.422 -0.0659  0.2162  0.2451
 6812W        W22946   4.955   4.528  13.948  0.0499  0.2759  0.0625
 6813W        W22947   5.935  17.690  11.319 -0.1201  0.2034 -0.1307
 6814W        W22948   1.928   7.459  12.408 -0.1100  0.1517 -0.1028
 6815W        W22949  11.233  16.463   3.771 -0.1215  0.1200  0.2401
 6816W        W22950  16.678  17.867  14.135 -0.1691  0.0881  0.0992
 6817W        W22951   0.938  13.265   4.269  0.2365  0.1976  0.1471
 6818W        W22952  15.501  11.436   6.300  0.1662  0.0436  0.1799
 6819W        W22953   3.772  11.128   0.512 -0.0101 -0.2606 -0.1945
 6820W        W22954   4.329  14.303   0.589  0.0968  0.1304  0.1598
 6821W        W22955   1.900  13.374   3.243  0.1912 -0.0054  0.3047
 6822W        W22956   3.065   0.726  14.824 -0.0651  0.0972 -0.0341
 6823W        W22957   7.355   6.947   2.809 -0.4162  0.0911  0.0584
 6824W        W22958   1.957  16.267  12.710 -0.2212 -0.2406 -0.0167
 6825W        W22959  12.425  17.446  12.816 -0.3036 -0.1532 -0.1489
 6826W        W22960   9.061   1.916  15.093 -0.0832 -0.2983 -0.4371
 6827W        W22961  11.694   9.555  15.787  0.2688  0.0797  0.0500
 6828W        W22962   8.664  10.049  13.494  0.1212  0.0248  0.1739
 6829W        W22963  10.288  14.916   3.360  0.4810 -0.2155 -0.3031
 6830W        W22964   1.976  17.752  12.052 -0.0723  0.0549  0.0750
 6831W        W22965   9.911  17.131  13.241 -0.3703  0.0393  0.1817
 6832W        W22966  10.053   5.933  15.726 -0.1089  0.0462  0.2938
 6833W        W22967   2.195   1.692  13.433 -0.0085 -0.1902  0.4309
 6834W        W22968   1.670   1.364  15.392 -0.0368 -0.2919  0.2794
 6835W        W22969  15.226  13.437  16.100 -0.0913  0.0663  0.0679
 6836W        W22970  10.935   2.756   2.068  0.0271  0.0845 -0.0101
 6837W        W22971  16.607  16.481   3.887 -0.1883  0.5005 -0.1336
 6838W        W22972   3.832  11.271  13.036  0.0246  0.0260  0.1487
 6839W        W22973   1.040   9.282   5.015 -0.1039 -0.2157  0.3324
 6840W        W22974   6.707  17.962  11.933  0.0264 -0.1258  0.4693
 6841W        W22975   1.148   9.409   4.160 -0.3097 -0.1754 -0.2380
 6842W        W22976  15.585   5.343   1.868  0.1215 -0.0983  0.1927
 6843W        W22977   1.243   4.171   3.762  0.0863  0.1327  0.1343
 6844W        W22978  11.981   0.388   2.876 -0.0233  0.3006  0.0182
 6845W        W22979   8.895   8.109  13.472  0.0399  0.0583 -0.0094
 6846W        W22980   4.382   3.945  14.439  0.1630  0.0261  0.0760
 6847W        W22981  10.005   8.366  15.198  0.1956  0.2987 -0.1256
 6848W        W22982  16.079  10.695  12.666 -0.1169  0.0803 -0.1486
 6849W        W22983  10.200  16.158   5.627  0.1501 -0.3304  0.0437
 6850W        W22984  13.876   1.247  14.220  0.0439 -0.0174  0.0280
 6851W        W22985  12.206  16.738  13.482  0.3532 -0.1448  0.1988
 6852W        W22986   9.703   3.398  13.257 -0.0993  0.1198  0.1223
 6853W        W22987   9.396  14.997   1.589 -0.1004 -0.1555 -0.1033
 6854W        W22988  15.864  16.429   0.567  0.1680 -0.0346 -0.0966
 6855W        W22989  13.550  14.188  15.611 -0.0466  0.0945 -0.2076
 6856W        W22990   6.854  11.350   0.929 -0.0043 -0.0315  0.1529
 6857W        W22991   5.882   6.299  13.775  0.2189 -0.0325  0.0983
 6858W        W22992   5.146   4.906   2.942 -0.3758 -0.0211  0.1934
 6859W        W22993  14.181  16.394   3.215 -0.1953 -0.1726 -0.0704
 6860W        W22994   5.159  14.765   2.911  0.3443 -0.1268 -0.2820
 6861W        W22995  11.221   4.207   4.750 -0.0678 -0.0706  0.0269
 6862W        W22996   4.560   9.289  14.303  0.0035 -0.0006  0.0500
 6863W        W22997   1.000  15.903  16.331  0.3689 -0.2821  0.0352
 6864W        W22998   3.914  10.218  13.370  0.1967  0.3017  0.2694
 6865W        W22999   9.011   2.186   0.784  0.0849 -0.0805  0.0227
 6866W        W23000   9.623   1.767  12.396  0.0173  0.1197 -0.2456
 6867W        W23001   3.686   4.402   2.511 -0.0397  0.0232 -0.1649
 6868W        W23002   4.901  10.860  11.798  0.2083 -0.0644  0.1631
 6869W        W23003   4.340  11.926   2.842  0.1436  0.3676 -0.0998
 6870W        W23004  15.308  11.339   4.967 -0.0917 -0.0262 -0.3117
 6871W        W23005   3.636  15.221   3.189  0.0053  0.1714 -0.0674
 6872W        W23006  16.364   7.030  13.875  0.0228  0.1258 -0.2565
 6873W        W23007   5.773  16.587  12.121  0.2121 -0.1872 -0.0956
 6874W        W23008  12.647   6.024  15.959 -0.0063 -0.1052 -0.2120
 6875W        W23009  17.356  11.103  14.278  0.1818 -0.0940 -0.0947
 6876W        W23010  16.795   7.366  13.972 -0.1355  0.0133 -0.2019
 6877W        W23011  11.206  10.412   2.973  0.1524  0.1216 -0.1333
 6878W        W23012   5.212   1.352  11.140 -0.1074  0.2718  0.3506
 6879W        W23013  16.446   7.000   6.065 -0.0676  0.0522  0.1116
 6880W        W23014   5.555   8.301  12.454  0.0522  0.0962  0.1233
 6881W        W23015  10.943   6.048   0.785 -0.0313  0.1701  0.0438
 6882W        W23016   7.738   4.166  12.708  0.0437 -0.2858 -0.1647
 6883W        W23017   7.696   5.632  13.706  0.0851 -0.2331 -0.2112
 6884W        W23018  13.167  16.427  10.600 -0.1108  0.0560  0.1180
 6885W        W23019   5.206   3.686   3.494  0.0054  0.1448 -0.3005
 6886W        W23020  12.820  17.494   5.262 -0.0077 -0.0601 -0.1431
 6887W        W23021  12.212   1.840   6.200  0.1028  0.2661 -0.0162
 6888W        W23022  12.947  17.856   3.356  0.3279  0.1546 -0.1954
 6889W        W23023  11.131   9.365   1.918 -0.0402  0.0600 -0.3496
 6890W        W23024   1.236  13.082  15.282 -0.2444 -0.0185  0.0197
 6891W        W23025   8.451  10.451   1.849 -0.2888  0.1622  0.0589
 6892W        W23026  10.276   6.563   3.743  0.3823 -0.1648  0.2838
 6893W        W23027   3.426   1.165  11.853  0.3998 -0.1505 -0.0917
 6894W        W23028  12.744  11.178  15.333 -0.1343 -0.3482  0.1222
 6895W        W23029   2.863   0.077  12.223 -0.1235 -0.0153  0.0482
 6896W        W23030  12.229   8.760   3.424  0.1063  0.1826  0.2328
 6897W        W23031  15.028   6.448   5.077 -0.1061 -0.0203  0.2651
 6898W        W23032   1.004  17.753  12.196 -0.0529  0.1951 -0.2983
 6899W        W23033  15.866   1.063   1.457  0.0635 -0.2465 -0.1724
 6900W        W23034   6.516   6.027  12.204  0.0055  0.0205  0.1876
 6901W        W23035  14.928  13.029  12.898 -0.2831 -0.2013  0.2128
 6902W        W23036  17.765   0.660  16.021 -0.0884  0.0784 -0.1090
 6903W        W23037  10.451   8.466   3.077  0.3518 -0.0408 -0.1568
 6904W        W23038   9.740   1.247   3.194  0.0951  0.3071 -0.0286
 6905W        W23039   9.659   6.431   2.464  0.0140  0.3340 -0.0847
 6906W        W23040  13.675   7.468   1.904  0.2137 -0.2005 -0.0671
 6907W        W23041  14.345  10.806  13.752  0.1291 -0.1322  0.0552
 6908W        W23042  13.815  13.304  16.279 -0.1192 -0.0840 -0.2582
 6909W        W23043   4.709  12.459  14.665  0.1273  0.1058 -0.1793
 6910W        W23044   2.757  12.472  14.255  0.2416  0.0971  0.0022
 6911W        W23045   5.532  14.691   3.237  0.0069 -0.0378  0.1925
 6912W        W23046  17.418   0.948   0.023 -0.0259 -0.0311  0.0192
 6913W        W23047   7.577  10.324  16.237  0.1692 -0.0056  0.1109
 6914W        W23048  10.169  16.145   4.648 -0.0868  0.0674 -0.1730
 6915W        W23049  14.680  15.597  12.788  0.0821  0.3388 -0.3110
 6916W        W23050   4.674   6.289   1.324  0.1845  0.3673 -0.0749
 6917W        W23051  14.477  10.226   4.594 -0.0017 -0.0251  0.1356
 6918W        W23052   3.469   6.924  16.296  0.0006 -0.2027 -0.0876
 6919W        W23053  11.596  11.519  12.241 -0.2631  0.0890  0.2109
 6920W        W23054   5.587  14.054   3.300 -0.2665  0.2062  0.2058
 6921W        W23055   6.471   9.974   5.518 -0.1574 -0.0324  0.1542
 6922W        W23056  15.943  14.481  15.392  0.2673 -0.2091  0.0820
 6923W        W23057  14.177   7.922  14.857  0.0616  0.3046  0.0414
 6924W        W23058   7.546   4.674  13.443  0.0995 -0.1424  0.0397
 6925W        W23059   9.014   9.752  13.022  0.0352 -0.2061  0.1597
 6926W        W23060   3.976   6.173  12.077 -0.3128  0.0230  0.2763
 6927W        W23061  16.429   8.063  15.022 -0.4353  0.0604  0.1823
 6928W        W23062  14.709   3.351   5.110 -0.0402  0.0774  0.0572
 6929W        W23063  10.931  11.827  11.459  0.3680  0.0551  0.2391
 6930W        W23064   6.666   6.427   4.367 -0.1088 -0.0500  0.1121
 6931W        W23065   3.863  17.475   2.115  0.0703  0.2847  0.0767
 6932W        W23066   5.239  12.221  14.867  0.0315 -0.0774  0.2673
 6933W        W23067   9.519   5.624   1.276 -0.3358 -0.0196 -0.2518
 6934W        W23068  12.966  15.022  13.941 -0.3428  0.1053  0.2728
 6935W        W23069  14.722   2.379   0.915 -0.1875 -0.0629  0.0118
 6936W        W23070  14.803   8.150   5.852  0.2562  0.0766  0.0961
 6937W        W23071   4.396   9.079  11.437 -0.1144 -0.0794 -0.0228
 6938W        W23072   7.052  16.260  13.132 -0.2082  0.1672 -0.0917
 6939W        W23073   1.838   1.167  11.397  0.1100 -0.0152  0.0397
 6940W        W23074  16.575  16.046   1.071  0.1512 -0.0809  0.2941
 6941W        W23075  12.214   2.604  13.129  0.2026  0.0905 -0.2932
 6942W        W23076  15.139   5.056  16.602  0.3267 -0.1469  0.0401
 6943W        W23077   4.782   5.341   4.292 -0.0385 -0.1864 -0.1798
 6944W        W23078   5.987   5.931  15.556  0.0049  0.0672 -0.1398
 6945W        W23079   7.074  11.698   9.980  0.1109  0.1015  0.3802
 6946W        W23080   5.318   1.516   3.128  0.0735 -0.0766  0.0291
 6947W        W23081  10.586  13.506  13.042 -0.1018  0.0001 -0.0061
 6948W        W23082   2.820   6.080  13.981  0.0883  0.1529 -0.1301
 6949W        W23083  14.312  12.094  12.223 -0.0897  0.2709  0.0755
 6950W        W23084   2.821  12.674   0.037 -0.1932 -0.0882 -0.6012
 6951W        W23085  12.916  15.767   2.882  0.1245 -0.1449 -0.1682
 6952W        W23086  12.293   7.756  13.217  0.0573  0.2315 -0.1011
 6953W        W23087  11.507   9.131   2.293 -0.0370  0.0061  0.1424
 6954W        W23088   9.942   5.813  13.730 -0.0389 -0.0466 -0.1193
 6955W        W23089   6.178  14.985  13.867  0.3048 -0.0398 -0.2088
 6956W        W23090  15.227  14.089  16.409 -0.0632 -0.1508 -0.2652
 6957W        W23091   6.635   6.082  14.475 -0.0648  0.4809  0.2989
 6958W        W23092   3.091  10.292  13.663  0.0496 -0.3106 -0.3434
 6959W        W23093  10.317  11.719  15.545 -0.1609  0.0192  0.3989
 6960W        W23094  12.132  14.333  16.259  0.2096  0.1642 -0.3695
 6961W        W23095   5.206  14.033   2.882 -0.0514 -0.1256  0.0200
 6962W        W23096   2.219   0.325   0.645  0.1366  0.0142 -0.0040
 6963W        W23097   0.415   0.533  15.296  0.0830  0.0628  0.2531
 6964W        W23098   3.470  16.296   4.127 -0.0802  0.1237  0.1559
 6965W        W23099   2.785   0.546  16.564  0.2447  0.2431  0.1888
 6966W        W23100   7.877  16.562   0.472  0.0892  0.0330  0.1575
 6967W        W23101   4.742  11.533  15.468  0.0305  0.0795 -0.2842
 6968W        W23102  12.428  14.106   5.767 -0.0372 -0.0314 -0.0222
 6969W        W23103   2.766   0.054  14.199 -0.0710  0.0063 -0.2472
 6970W        W23104  16.583   3.403   5.823  0.0830  0.0757 -0.0171
 6971W        W23105   6.967   5.758  15.299 -0.0266  0.2596  0.0522
 6972W        W23106  14.870  10.500   3.298  0.4563  0.1667 -0.0382
 6973W        W23107   6.713  14.598  13.618  0.0685  0.1646  0.1782
 6974W        W23108   2.717  13.056  13.528  0.0124 -0.2409  0.0492
 6975W        W23109  10.673  16.588   3.758 -0.2696  0.0946  0.1447
 6976W        W23110  17.413   5.501   1.976  0.2563  0.0848 -0.1467
 6977W        W23111  16.631   8.062   5.612 -0.1199  0.1143 -0.1958
 6978W        W23112   4.748   2.336   3.183  0.2111  0.2852 -0.1169
 6979W        W23113   2.929  16.052  12.601 -0.0135 -0.0396 -0.0018
 6980W        W23114   6.215  15.109  13.220  0.0534 -0.0972  0.2177
 6981W        W23115   6.130  15.030   0.523  0.0112 -0.0243 -0.0708
 6982W        W23116   6.795   5.631   3.238 -0.1525 -0.1321 -0.3135
 6983W        W23117  16.890   7.450  14.526  0.1998 -0.2187 -0.0779
 6984W        W23118   7.918  16.066  14.181  0.1000 -0.0565  0.1375
 6985W        W23119  11.078   3.393   3.133 -0.1087  0.2954 -0.0152
 6986W        W23120   1.153   4.694   0.733  0.0249 -0.1183  0.0644
 6987W        W23121  12.070   2.061  13.848  0.1638  0.1162 -0.1561
 6988W        W23122  12.661   1.061   0.188 -0.0491  0.0752 -0.2110
 6989W        W23123   8.988  11.172   0.356  0.0360 -0.2633 -0.1727
 6990W        W23124   6.866  17.119  16.588 -0.0200  0.0837  0.1183
 6991W        W23125   7.510   9.022  16.671  0.1480  0.0810  0.1506
 6992W        W23126  13.399   7.631  14.015 -0.0031 -0.0458 -0.1040
 6993W        W23127   4.926   8.507   5.596 -0.0881 -0.2477 -0.0036
 6994W        W23128   5.114   2.045   2.004 -0.0192 -0.1057 -0.1793
 6995W        W23129   6.963  12.086  13.516  0.0236 -0.3005 -0.4818
 6996W        W23130  11.724  12.415   5.582  0.0598  0.0230  0.2611
 6997W        W23131   8.944   5.613   4.125  0.3921 -0.1441 -0.1667
 6998W        W23132  16.800   9.013  15.287  0.2979  0.1846  0.0886
 6999W        W23133  17.443   3.374  13.475  0.1204  0.0716 -0.0905
 7000W        W23134  15.381   9.250  14.037  0.1739  0.3755  0.0947
 7001W        W23135   8.664   5.053  13.161  0.2106 -0.1577  0.0349
 7002W        W23136  10.212   0.294  15.691 -0.1226 -0.0430 -0.2470
 7003W        W23137  14.681   9.696   4.600  0.1505  0.0354 -0.0635
 7004W        W23138   5.237  12.080  12.483  0.0916 -0.1476  0.2489
 7005W        W23139  15.537   4.650  15.720 -0.1990 -0.4992  0.0501
 7006W        W23140   4.712   5.737   0.364 -0.0938  0.1558  0.0280
 7007W        W23141  10.926   7.625   1.278  0.1590 -0.0223 -0.1618
 7008W        W23142   5.391   3.577  13.623  0.1116 -0.0932  0.0595
 7009W        W23143   5.514   4.392   0.851  0.1141 -0.1082  0.0090
 7010W        W23144  16.397   6.496  12.306  0.1660 -0.0226 -0.1687
 7011W        W23145   1.482   0.641  13.931 -0.0040  0.0483 -0.0986
 7012W        W23146   4.583  16.701  11.511  0.2772  0.2185 -0.0564
 7013W        W23147   7.621  13.342   2.618 -0.2087 -0.1512  0.1640
 7014W        W23148   7.399  10.554  15.163  0.1543  0.2988  0.0404
 7015W        W23149   9.449  12.019  14.663 -0.0096 -0.0170 -0.0386
 7016W        W23150   2.756   3.542   4.702 -0.1088  0.5729 -0.0803
 7017W        W23151  15.534   2.529  13.333  0.3651  0.0042 -0.1151
 7018W        W23152  11.400   2.442  11.896  0.1667 -0.1269 -0.0183
 7019W        W23153   6.739  16.109  12.740  0.3166  0.0112 -0.5727
 7020W        W23154  12.959   4.783  14.076  0.0998  0.0097  0.0159
 7021W        W23155  14.772   4.326   1.449  0.1086  0.0198  0.1766
 7022W        W23156   4.056  15.205   3.639 -0.0376  0.0669 -0.2834
 7023W        W23157  14.288   3.875   0.063 -0.0828 -0.0292 -0.0291
 7024W        W23158  16.305   5.425   1.151  0.1974  0.0506  0.0372
 7025W        W23159  10.981   3.037  13.796 -0.0696 -0.2062  0.2299
 7026W        W23160   1.224   8.798   4.963  0.1372  0.0699 -0.0616
 7027W        W23161  10.953   1.024  14.777  0.3422  0.1409  0.0862
 7028W        W23162   2.712   1.921  12.721 -0.1768 -0.2036 -0.0869
 7029W        W23163   7.943  12.538  16.018  0.0503 -0.3144 -0.0966
 7030W        W23164   3.487  14.302   5.542  0.0704  0.2263 -0.2603
 7031W        W23165   5.336  16.263   2.181  0.0655  0.1562 -0.0893
 7032W        W23166  11.366  11.541   0.255  0.0944  0.2108  0.0928
 7033W        W23167  16.288   3.893   3.335  0.0787 -0.0374 -0.2428
 7034W        W23168   6.948   4.878   2.397 -0.1982 -0.2318 -0.0643
 7035W        W23169  14.662  13.184   4.852 -0.3703  0.1141  0.2017
 7036W        W23170  15.669   8.103   3.125 -0.1856  0.0135  0.0765
 7037W        W23171  17.092  15.602   1.984  0.0413 -0.1378 -0.1096
 7038W        W23172   2.049   8.755  12.734  0.1662 -0.1890 -0.0511
 7039W        W23173   3.898   1.776  15.811 -0.0515 -0.0388  0.3033
 7040W        W23174   8.711  16.635   0.122 -0.1166  0.0755  0.0067
 7041W        W23175   8.949   9.913  16.289 -0.0050  0.0082 -0.0890
 7042W        W23176   0.701  14.842  14.175  0.1378  0.0417  0.0779
 7043W        W23177  10.738   4.398  16.397 -0.0842  0.0145 -0.5656
 7044W        W23178  16.124   7.931   1.872  0.1095 -0.3763 -0.0551
 7045W        W23179   3.336   2.794  14.212  0.0017  0.2289  0.0398
 7046W        W23180   6.590  16.205  11.252  0.1414 -0.1552 -0.1853
 7047W        W23181   5.873   4.161   5.155  0.0952 -0.1464 -0.3880
 7048W        W23182   0.011  11.467  13.681  0.0439  0.1445  0.0185
 7049W        W23183   0.884   3.183   3.702  0.1914  0.0177  0.1159
 7050W        W23184  14.342   2.832   3.142  0.1098  0.1292  0.0270
 7051W        W23185   8.776  10.156  12.957 -0.1036  0.0293  0.0160
 7052W        W23186  16.456   8.338   1.647 -0.0806 -0.0000 -0.3346
 7053W        W23187   5.714  11.545   1.521  0.0027  0.4753 -0.3951
 7054W        W23188   7.327   9.908   4.221  0.3099  0.3208  0.2377
 7055W        W23189   7.692   7.575  13.590  0.0016  0.2159  0.0821
 7056W        W23190  12.406  13.692  14.730 -0.0723  0.1496  0.1460
 7057W        W23191   2.335   1.049  14.488  0.2230  0.2934  0.0326
 7058W        W23192  15.565   4.474   4.295  0.2404 -0.0852  0.0600
 7059W        W23193   3.630  14.485  15.368 -0.0367  0.2325  0.1227
 7060W        W23194   8.217  10.419  15.020  0.0051 -0.1761 -0.2141
 7061W        W23195   3.969  10.686  13.662 -0.0752 -0.0287 -0.0576
 7062W        W23196   4.084  16.053  11.132  0.2189 -0.1714 -0.1258
 7063W        W23197  10.858   9.123   1.079 -0.1670 -0.0137 -0.0839
 7064W        W23198   2.116  14.003  11.661  0.0530 -0.3314  0.0567
 7065W        W23199  16.836   2.679  15.379  0.1097  0.0439  0.1084
 7066W        W23200  16.918   7.226   5.691  0.0383  0.2246 -0.0120
 7067W        W23201   7.626   9.021   2.631  0.0988 -0.0192  0.0476
 7068W        W23202  17.924  12.675   0.527 -0.1609  0.2646  0.4284
 7069W        W23203  15.662   1.176   4.188 -0.0010  0.0549  0.0754
 7070W        W23204   8.309  10.428  13.452 -0.3242  0.1024 -0.2274
 7071W        W23205   6.085   2.998   4.082 -0.0969 -0.0869  0.1171
 7072W        W23206  16.280  15.711  13.369  0.2867  0.0602 -0.0260
 7073W        W23207   5.701   1.782  15.753  0.0540 -0.3537 -0.2204
 7074W        W23208  12.433   7.960   5.040  0.0773 -0.0828  0.1611
 7075W        W23209  17.072   7.554  15.445  0.2662 -0.0092 -0.2472
 7076W        W23210   9.265   5.234  15.989 -0.1683 -0.1963  0.4184
 7077W        W23211   4.935  13.515   4.624  0.0439 -0.1295 -0.1666
 7078W        W23212   0.948   6.734  11.607 -0.0262  0.3018  0.0491
 7079W        W23213  12.304   8.193   3.337 -0.0155 -0.1824 -0.0387
 7080W        W23214   4.065   5.268   4.781  0.2148  0.4056 -0.0710
 7081W        W23215  17.296   1.443   4.017 -0.2826  0.2780  0.1648
 7082W        W23216  13.530   4.921   3.843  0.0968 -0.0746 -0.1442
 7083W        W23217   8.810  11.921  14.590 -0.1822  0.3153  0.0015
 7084W        W23218   6.626   9.601   1.047 -0.2744  0.0767 -0.0805
 7085W        W23219   7.878   2.205  13.064 -0.1155 -0.0792  0.0853
 7086W        W23220  11.049   3.800  15.745  0.1211 -0.0478 -0.3202
 7087W        W23221   0.100   9.486   5.466  0.0412  0.0005 -0.1389
 7088W        W23222   8.555  10.238  11.097 -0.2133  0.2858 -0.0968
 7089W        W23223   7.322   4.481  16.517 -0.1314 -0.2234 -0.1490
 7090W        W23224  11.859  11.152   2.237 -0.1217 -0.0530  0.2569
 7091W        W23225  15.007   1.025  15.711  0.0679  0.0038  0.0289
 7092W        W23226   0.642   9.441   5.412  0.0736 -0.0035 -0.0653
 7093W        W23227   7.534  12.316   3.888  0.0004  0.1632 -0.0755
 7094W        W23228   6.153  17.808   3.887 -0.1575 -0.3916 -0.0745
 7095W        W23229  10.700  16.470  16.439  0.2845 -0.1113  0.0421
 7096W        W23230   6.275   5.459   3.273 -0.3071 -0.3253  0.3391
 7097W        W23231  11.349  14.944  15.263 -0.1378 -0.0836  0.0978
 7098W        W23232  12.432   9.642   5.592 -0.0167 -0.1670 -0.3064
 7099W        W23233  13.487  17.083  12.237  0.2491  0.2127  0.0871
 7100W        W23234  15.027   3.421  16.233 -0.0927  0.1636 -0.2789
 7101W        W23235   8.833   9.309  12.952 -0.2774  0.1213  0.1801
 7102W        W23236  14.554  10.898   4.984 -0.1430  0.2913 -0.0270
 7103W        W23237   9.925   3.715  14.972 -0.0792 -0.1547 -0.3920
 7104W        W23238  14.747  13.691   4.913 -0.1615 -0.0546  0.1429
 7105W        W23239  14.306   9.936  14.635  0.2312 -0.0645 -0.1130
 7106W        W23240   7.373  14.406   3.765 -0.1140 -0.1923 -0.1421
 7107W        W23241   5.490   0.232   0.419 -0.0810 -0.3342 -0.1944
 7108W        W23242   9.131   1.380  15.064  0.0444 -0.2229 -0.2412
 7109W        W23243   0.444  10.713  15.579  0.2215 -0.1066  0.1613
 7110W        W23244  11.086   5.634  12.265 -0.1037  0.1348 -0.2507
 7111W        W23245   4.423  11.638   0.137 -0.0854 -0.0776  0.0179
 7112W        W23246  16.366   2.512   2.997 -0.2757 -0.2694  0.0181
 7113W        W23247   9.906  10.249   4.689  0.0841  0.1416  0.1801
 7114W        W23248  17.566   1.719  11.722  0.2621 -0.2011 -0.2858
 7115W        W23249  12.581  10.724   1.060 -0.1976 -0.0640 -0.1249
 7116W        W23250  14.579  17.634   6.034 -0.1982  0.0924  0.0595
 7117W        W23251   6.824   8.005  10.274 -0.0920  0.2401 -0.1332
 7118W        W23252   1.322  10.383  15.023 -0.0119 -0.1641 -0.3118
 7119W        W23253   9.871  12.611   3.290 -0.1116  0.0865 -0.0028
 7120W        W23254   0.985   6.912   4.486 -0.3672  0.1370 -0.3352
 7121W        W23255  12.791   9.191   5.747  0.1941  0.1971  0.0739
 7122W        W23256   1.452   0.502  11.891 -0.0491 -0.0135 -0.1997
 7123W        W23257   0.993   2.347   5.443 -0.1364  0.2788  0.1190
 7124W        W23258  13.412   0.406  13.810 -0.1280 -0.0809 -0.2066
 7125W        W23259  14.065  12.899  13.563 -0.2693 -0.2081  0.2121
 7126W        W23260  13.455  10.185  16.087 -0.0329  0.0682 -0.5098
 7127W        W23261   1.991   6.616  11.590  0.2966  0.1069 -0.1026
 7128W        W23262   5.310  16.750   3.371 -0.2859  0.2410  0.2055
 7129W        W23263  14.535   4.514   0.231 -0.0421  0.1099  0.1958
 7130W        W23264   0.578  13.079   3.086 -0.4460  0.2035 -0.1342
 7131W        W23265   3.253   9.813  15.843 -0.1129 -0.0104  0.0403
 7132W        W23266  16.059  10.905   3.654 -0.0146  0.2576  0.1998
 7133W        W23267  13.449  17.729   3.673  0.1166 -0.1157  0.1254
 7134W        W23268   3.643   7.165  12.731 -0.0933 -0.3119 -0.2063
 7135W        W23269  17.895   0.814  11.623  0.1595  0.2957 -0.0882
 7136W        W23270   5.275   4.490  12.975  0.4646  0.1790  0.0112
 7137W        W23271   2.047   2.911   1.327  0.2064 -0.1334 -0.2193
 7138W        W23272  17.896  11.979  13.553  0.0170  0.2067  0.1520
 7139W        W23273   2.529   1.764  16.356  0.4587 -0.0969 -0.1964
 7140W        W23274  16.128  11.188   1.376  0.0378 -0.1645 -0.0236
 7141W        W23275  16.572   2.750  14.970  0.0498  0.1451 -0.0683
 7142W        W23276   5.762   1.044   5.641 -0.1076  0.0452 -0.2657
 7143W        W23277  13.162  10.350  13.899 -0.3640 -0.0933 -0.0496
 7144W        W23278   5.134   4.376   4.041 -0.0622  0.1287  0.2367
 7145W        W23279  13.181   8.554   0.303  0.0521  0.2360 -0.2120
 7146W        W23280   8.543   3.942   0.641  0.2540 -0.1715 -0.3705
 7147W        W23281   3.705   7.802   2.578 -0.1342  0.1557  0.1007
 7148W        W23282  15.544  11.509   2.320 -0.1064  0.2769  0.1120
 7149W        W23283  14.189  12.881   2.481 -0.0051  0.0284 -0.0562
 7150W        W23284  10.644  10.114   1.114  0.0332 -0.0920  0.1549
 7151W        W23285   9.322  10.335   3.433 -0.1851  0.2242  0.0577
 7152W        W23286   1.216  17.657   4.098  0.0191  0.3256 -0.0570
 7153W        W23287   6.314   4.103   1.245 -0.0826  0.0423 -0.0887
 7154W        W23288  12.731  11.243   2.231 -0.1135 -0.0855  0.0751
 7155W        W23289  13.084  16.038   4.316 -0.0826  0.0520 -0.2153
 7156W        W23290   8.449  14.551   5.658  0.1348  0.0152 -0.2370
 7157W        W23291   6.520   8.867  13.696 -0.1818 -0.3130  0.3050
 7158W        W23292  11.871  17.607  10.892  0.2086  0.1642  0.0333
 7159W        W23293   8.383  16.343  11.946 -0.0047  0.0878 -0.0786
 7160W        W23294   6.795   0.209  14.456 -0.1805 -0.1203 -0.0637
 7161W        W23295   9.414   0.533   2.130 -0.1058 -0.2384 -0.1266
 7162W        W23296  15.930   7.033   0.414  0.1801  0.1646  0.0832
 7163W        W23297  11.822   1.000   3.927 -0.1500  0.1214 -0.0523
 7164W        W23298  13.928  15.943   3.035 -0.0797  0.1179 -0.1032
 7165W        W23299  14.101  15.109   5.323 -0.0892  0.0872 -0.0030
 7166W        W23300  10.878  12.639   2.463 -0.3359 -0.0766  0.1864
 7167W        W23301   7.732   9.497  14.352 -0.0073 -0.2653 -0.0578
 7168W        W23302  17.537   3.834   5.408 -0.1243  0.0339  0.2648
 7169W        W23303  14.496   6.465   2.398 -0.2365 -0.1699 -0.1622
 7170W        W23304   3.717   2.062  12.126 -0.1771 -0.2181 -0.1284
 7171W        W23305   3.930  13.318  11.503  0.0075  0.2204  0.4616
 7172W        W23306   9.752   2.191  12.648 -0.1188 -0.0713 -0.3834
 7173W        W23307   8.174  10.878  15.554 -0.3247  0.1529 -0.1878
 7174W        W23308   6.532   2.510   0.534 -0.2241  0.2192 -0.1348
 7175W        W23309   4.573  10.562  11.584 -0.0949  0.0698 -0.1768
 7176W        W23310  11.001   0.727   2.900 -0.1148  0.2259  0.1589
 7177W        W23311  15.445  16.889   0.540 -0.1273 -0.1433  0.0162
 7178W        W23312   0.325  15.370   4.422 -0.0316 -0.2671  0.2022
 7179W        W23313  13.943  14.850   4.309 -0.1743 -0.2744 -0.0162
 7180W        W23314   4.391   7.010   6.287 -0.1642 -0.0793  0.0299
 7181W        W23315   0.127   3.816  11.672  0.2892 -0.2281 -0.2052
 7182W        W23316  12.436   9.133   2.461 -0.0335 -0.0843  0.2785
 7183W        W23317   7.551  13.243  14.452 -0.2158 -0.2676  0.1108
 7184W        W23318  11.477  10.188  12.625 -0.2369 -0.0254 -0.2578
 7185W        W23319  15.613  16.980   5.908  0.0716  0.0151 -0.1082
 7186W        W23320  11.444  16.795   2.473 -0.1556  0.1205  0.0775
 7187W        W23321   7.040  13.170  12.857  0.0825 -0.0941 -0.0316
 7188W        W23322   8.345  11.851  16.667  0.1329  0.1988 -0.1747
 7189W        W23323   9.502   0.798   3.056 -0.0863 -0.2471 -0.1586
 7190W        W23324  17.033  13.813  15.699 -0.0275  0.2346 -0.2147
 7191W        W23325   4.485  13.912  14.755 -0.2789 -0.2884 -0.1337
 7192W        W23326  14.495  16.472  14.523  0.0531  0.4551 -0.1416
 7193W        W23327  17.358   2.780   2.758 -0.0726  0.0756 -0.2147
 7194W        W23328   1.107   5.619  16.330  0.0902 -0.2523 -0.0260
 7195W        W23329   3.489  11.231   4.659  0.0480  0.0091 -0.1943
 7196W        W23330   9.975   4.986   3.588 -0.0599 -0.0398 -0.0759
 7197W        W23331   5.708   7.251   0.840 -0.0333 -0.1589 -0.0582
 7198W        W23332   3.303  15.552   3.434 -0.0018 -0.1059  0.1443
 7199W        W23333   0.505   6.944  15.028 -0.1473 -0.0360 -0.0217
 7200W        W23334   7.134   7.380  16.445 -0.3135  0.4580 -0.0315
 7201W        W23335  13.771   0.913   1.502 -0.2562 -0.0666  0.2524
 7202W        W23336   0.654   7.818   1.581  0.1894  0.0409 -0.3035
 7203W        W23337  10.342  17.476   3.503  0.0212  0.0311 -0.0678
 7204W        W23338   7.657   4.273   0.535  0.3491 -0.0885 -0.2566
 7205W        W23339   9.060   1.911  12.554  0.2067 -0.0139  0.0710
 7206W        W23340   7.535   2.918   0.144  0.0944 -0.0721  0.2548
 7207W        W23341   2.734   8.975  14.019  0.1569 -0.1546  0.0914
 7208W        W23342   7.249  16.671   2.475  0.1331  0.2394  0.1404
 7209W        W23343   5.227   9.901  13.909  0.0276 -0.0458  0.2445
 7210W        W23344   5.750   5.031   4.147  0.0689  0.0710 -0.2663
 7211W        W23345   8.661  12.144  11.156 -0.0645  0.1327  0.0502
 7212W        W23346   2.036  13.412   1.957 -0.2935  0.2407  0.2539
 7213W        W23347   3.778   5.620   2.501  0.0090  0.0129 -0.0468
 7214W        W23348   4.091  12.326  12.245  0.2548 -0.2257 -0.0987
 7215W        W23349  10.596  11.455  11.553  0.0952  0.1001  0.0418
 7216W        W23350   5.606   0.359  14.232  0.1624 -0.1192  0.1031
 7217W        W23351  13.086  16.564   3.893  0.3593 -0.1634  0.4216
 7218W        W23352   0.013  17.221   0.308 -0.2217  0.0852  0.3854
 7219W        W23353   6.541  17.076  11.776  0.1626 -0.0251 -0.0187
 7220W        W23354   8.157  12.250  12.746 -0.1610  0.1255  0.3410
 7221W        W23355   3.465   4.787   1.286  0.2723  0.1482 -0.1058
 7222W        W23356   7.086   5.167  16.176 -0.1657  0.2910  0.1209
 7223W        W23357   7.757   2.057   4.065  0.0120 -0.2554  0.0653
 7224W        W23358   4.611  16.349   6.255  0.4652  0.1423 -0.0404
 7225W        W23359   6.308  10.345   3.906  0.0196  0.1012 -0.0469
 7226W        W23360  15.464   5.778  16.450 -0.0855  0.2189  0.1294
 7227W        W23361  17.926  11.027   3.878 -0.1568  0.1166 -0.0353
 7228W        W23362   8.659   2.922  16.089 -0.0568 -0.1888 -0.1593
 7229W        W23363  15.972  12.808   2.747 -0.2550  0.3765 -0.2631
 7230W        W23364   7.976   0.593  16.164  0.0972  0.1274 -0.0939
 7231W        W23365   3.310  12.907   0.117 -0.1479 -0.0375  0.0823
 7232W        W23366  17.930  10.301   2.069 -0.0593  0.0665  0.0255
 7233W        W23367  15.500   6.681   3.428  0.1479  0.2266 -0.0776
 7234W        W23368   9.772   8.453  14.269  0.0224 -0.0976  0.0353
 7235W        W23369  13.882   0.222   5.916 -0.1950  0.0435  0.1524
 7236W        W23370   7.400   6.107  14.872 -0.1071  0.1267  0.2131
 7237W        W23371  13.464   3.801   0.679 -0.3163 -0.2859 -0.1240
 7238W        W23372  14.280  14.517   2.204 -0.2520 -0.0013  0.2363
 7239W        W23373   0.522   3.934   2.930  0.0909 -0.0108  0.3659
 7240W        W23374   0.243   0.290   5.374  0.1518 -0.1972 -0.1989
 7241W        W23375   2.402   1.416  14.853 -0.0888  0.0493 -0.4267
 7242W        W23376  10.142  15.073  14.850 -0.1955  0.2399  0.1599
 7243W        W23377   0.581  16.950   3.971 -0.1680 -0.1471 -0.3147
 7244W        W23378   9.594  11.079   2.926  0.2440  0.1016  0.0128
 7245W        W23379   3.514  12.531  14.680 -0.0754 -0.2738  0.0427
 7246W        W23380  14.838  11.302   1.370 -0.1753  0.1662  0.1314
 7247W        W23381  15.041  10.471   0.924 -0.0930  0.0480 -0.2056
 7248W        W23382  13.434   5.641  16.093 -0.1271 -0.0280 -0.2225
 7249W        W23383   0.402  14.777   6.221 -0.0236  0.1654  0.1150
 7250W        W23384  15.892  10.457  15.609  0.1670  0.1070  0.0058
 7251W        W23385   9.269   1.738  14.274 -0.2446  0.2051 -0.2097
 7252W        W23386  17.546   8.705   2.702 -0.0357  0.1169 -0.1456
 7253W        W23387   7.820  13.095  12.999  0.2107  0.4317 -0.2291
 7254W        W23388   7.023   0.900  13.816 -0.1259 -0.1620  0.1512
 7255W        W23389   0.308   3.690  13.812  0.3160 -0.1542 -0.1042
 7256W        W23390  13.578  10.981   3.280 -0.1927 -0.0166 -0.1520
 7257W        W23391   9.058   9.734   0.949  0.3652 -0.0647  0.2340
 7258W        W23392   4.758  13.980  12.400  0.0364  0.0241 -0.1014
 7259W        W23393   9.286  10.348  11.445  0.0941 -0.1032 -0.0412
 7260W        W23394  15.790   1.679  16.179  0.2358 -0.0712 -0.1199
 7261W        W23395   1.478  11.444  11.644 -0.1371 -0.1823 -0.0506
 7262W        W23396  16.474  13.359  13.978  0.0926  0.3201 -0.0270
 7263W        W23397   8.078  13.093   5.205  0.0998  0.1867 -0.0007
 7264W        W23398  10.041   4.968  13.770  0.0993 -0.1636  0.1762
 7265W        W23399  14.862  14.082   4.610 -0.2983 -0.0826  0.1069
 7266W        W23400  10.678  11.258   4.479 -0.0179  0.0547 -0.0362
 7267W        W23401   0.916  10.855   2.662 -0.2382 -0.1621  0.4049
 7268W        W23402  17.795  14.854   1.048 -0.0052 -0.1130 -0.1668
 7269W        W23403  12.393  15.543   3.569  0.0361 -0.0018  0.3215
 7270W        W23404   2.693  13.983  14.505  0.1812  0.1330  0.2022
 7271W        W23405   9.366  16.232   3.498 -0.0251 -0.2070  0.0340
 7272W        W23406  16.935  17.696  16.045  0.0180  0.0709 -0.2980
 7273W        W23407   3.329   2.454  12.133 -0.1014  0.1537  0.0091
 7274W        W23408  12.837  13.176  16.614 -0.1344 -0.0612  0.1616
 7275W        W23409  15.992   7.248  13.535  0.4999  0.0802  0.0718
 7276W        W23410   5.157   1.727  12.907 -0.1778  0.1330  0.0081
 7277W        W23411   7.863   3.172  16.570 -0.2974 -0.0853  0.0997
 7278W        W23412   4.842  16.024  15.155  0.2569 -0.1657 -0.0981
 7279W        W23413   1.540   3.628   4.145 -0.1510  0.0179  0.3322
 7280W        W23414  12.033   2.529  14.163 -0.1867  0.0192 -0.1199
 7281W        W23415  12.578   3.006   3.763 -0.0704 -0.0559 -0.0620
 7282W        W23416   9.540   6.204  13.801 -0.0376  0.0535 -0.3158
 7283W        W23417   0.154  14.683  15.982  0.1253 -0.2918  0.4240
 7284W        W23418  16.865  17.148   0.087  0.0750 -0.0449 -0.0421
 7285W        W23419   7.973   0.865  11.066  0.0163  0.2553  0.3737
 7286W        W23420   4.650   1.012   2.744 -0.2912 -0.0537 -0.1020
 7287W        W23421   1.241   7.992  14.874  0.1453  0.0926 -0.3197
 7288W        W23422  17.831  12.301  12.835 -0.3073 -0.2775  0.2000
 7289W        W23423   5.133   9.529   3.473  0.1255  0.2209  0.0371
 7290W        W23424  13.772  14.518  12.447 -0.0617  0.0664  0.1209
 7291W        W23425  10.021  16.617  13.476  0.0010  0.0786  0.0976
 7292W        W23426   9.420   1.575   5.505 -0.1369 -0.1591 -0.2452
 7293W        W23427   6.685   4.059  13.407 -0.1828  0.0845  0.1886
 7294W        W23428   1.572   5.672   0.967 -0.1505 -0.0852 -0.0622
 7295W        W23429   5.551   4.317  12.613 -0.0410 -0.2161 -0.0040
 7296W        W23430   5.425  12.444  16.288 -0.1877  0.1126 -0.3017
 7297W        W23431   7.571   6.959   1.791  0.0484  0.1310  0.1438
 7298W        W23432  13.318   3.166   3.288  0.2002 -0.3641  0.2325
 7299W        W23433  17.655  12.478   1.732 -0.1362  0.0604  0.0671
 7300W        W23434   2.283   7.424  12.001 -0.0657  0.0608 -0.0946
 7301W        W23435   0.432   9.404   3.040  0.1433  0.1674  0.1077
 7302W        W23436  13.143   9.039  13.788  0.0214  0.1191  0.3023
 7303W        W23437   9.850   2.551  15.383  0.3291  0.0102 -0.1451
 7304W        W23438   1.255   3.219  14.476  0.3644 -0.3230 -0.0954
 7305W        W23439   5.342   4.078  13.384  0.0260  0.1692  0.1780
 7306W        W23440   3.732   8.554   0.538  0.1628 -0.0663  0.2879
 7307W        W23441   9.621  17.490  11.961  0.0625 -0.0062 -0.3166
 7308W        W23442  10.718   8.599  12.694 -0.0373 -0.0951 -0.1329
 7309W        W23443  16.497   1.084   3.297 -0.0024 -0.1404 -0.1827
 7310W        W23444  13.161   4.750  13.498  0.0553 -0.1504 -0.0202
 7311W        W23445  14.184   8.618   1.961 -0.0741  0.3138 -0.0394
 7312W        W23446  15.510  13.012  16.291  0.4285  0.2135  0.0527
 7313W        W23447   3.144  15.907  12.166 -0.2598 -0.1891  0.1969
 7314W        W23448  11.857  12.801  12.035 -0.0501  0.0510 -0.2294
 7315W        W23449  12.046   4.049  13.408  0.4583  0.4205  0.1438
 7316W        W23450   9.475   5.015  15.522  0.1290  0.3682 -0.3579
 7317W        W23451  16.048   8.800   5.228  0.0008 -0.1993 -0.1087
 7318W        W23452  16.985   0.054   1.049 -0.1705 -0.0046 -0.0841
 7319W        W23453   5.324   4.590   4.964  0.0845  0.0945  0.0439
 7320W        W23454   1.105  10.698   1.267  0.1337  0.1152  0.0737
 7321W        W23455   2.541  11.569   4.734 -0.0601 -0.0294 -0.1097
 7322W        W23456  17.172   6.287   2.673  0.1864  0.0347 -0.2666
 7323W        W23457  14.407  15.199  14.529 -0.3914  0.1903  0.1113
 7324W        W23458   4.332   5.492  12.209  0.3244  0.1593  0.1497
 7325W        W23459   2.021   9.015   2.118  0.2515  0.4255  0.0620
 7326W        W23460   4.090  12.317   1.104 -0.1255  0.3207 -0.2681
 7327W        W23461  12.772   2.281  11.511 -0.2064  0.0438 -0.2108
 7328W        W23462   7.602  17.918  13.114  0.1194  0.0285  0.0240
 7329W        W23463   1.264  15.440   3.316  0.1697 -0.1348 -0.0819
 7330W        W23464  11.518   3.946  12.321  0.0884 -0.1366  0.2006
 7331W        W23465  13.987  16.059   4.950 -0.0984  0.0011  0.0280
 7332W        W23466   2.607  16.288   0.697 -0.1403  0.2336 -0.2920
 7333W        W23467  15.279  15.889  12.420  0.4136 -0.0715  0.2571
 7334W        W23468   5.688  16.451   2.610  0.0139 -0.0111 -0.0265
 7335W        W23469   9.593  12.770   1.347 -0.1196  0.1941  0.0440
 7336W        W23470  17.662  13.224  13.607  0.4075  0.2728 -0.2014
 7337W        W23471   3.007   9.692  13.577 -0.0125 -0.0775  0.3094
 7338W        W23472  10.888  15.281  15.083  0.1099 -0.2040 -0.1128
 7339W        W23473  11.502  12.538  14.922  0.0635  0.0664 -0.1365
 7340W        W23474   2.226   8.087   4.003 -0.1017 -0.0588  0.2870
 7341W        W23475   3.029   4.286  15.792 -0.0180  0.1429 -0.5697
 7342W        W23476  17.065  13.117   6.528 -0.0077  0.0522  0.3427
 7343W        W23477  11.426  16.530   1.099  0.1550  0.1577 -0.0009
 7344W        W23478  17.726   0.167   3.775 -0.1160  0.3213  0.2723
 7345W        W23479   5.042  15.870  13.771 -0.1649  0.0343 -0.1844
 7346W        W23480  12.134  15.418  13.194 -0.0476 -0.2107 -0.0962
 7347W        W23481   0.706   5.617  15.892 -0.1293  0.0423 -0.2247
 7348W        W23482  15.203   3.397  13.516  0.0098  0.3124 -0.3233
 7349W        W23483  13.166  15.962   5.182 -0.0911 -0.1560 -0.0544
 7350W        W23484   5.200  10.451   2.063 -0.4339 -0.0827 -0.3169
 7351W        W23485   5.880   3.852  15.853  0.2680 -0.1642  0.0886
 7352W        W23486   3.026   9.639   3.730 -0.1005 -0.3626 -0.0327
 7353W        W23487   7.961   8.887  13.353  0.2176  0.1193  0.1231
 7354W        W23488   3.310   2.908   0.241  0.1634 -0.1749  0.1864
 7355W        W23489   2.846   5.873   6.045  0.3651 -0.1661 -0.1452
 7356W        W23490  13.159   5.999  12.488  0.0948  0.2697 -0.0478
 7357W        W23491  12.543   4.271  14.201  0.2519  0.0094  0.1690
 7358W        W23492   1.401  17.968   1.792  0.0401 -0.4167 -0.1016
 7359W        W23493   3.474  13.212  14.194 -0.0443 -0.0912  0.2613
 7360W        W23494   9.927   7.132  16.608  0.0805  0.1157  0.0090
 7361W        W23495  15.868  16.335  11.894 -0.0204  0.1029 -0.1012
 7362W        W23496   3.089  13.133   2.812  0.5241  0.0244 -0.1646
 7363W        W23497  11.204  14.740  12.666  0.0896  0.0619  0.0510
 7364W        W23498   2.481   4.966  15.587 -0.0509  0.1207 -0.0936
 7365W        W23499   5.213  11.429  15.172  0.2633  0.2671  0.0735
 7366W        W23500  15.881   3.658   2.820  0.3237 -0.0498  0.1454
 7367W        W23501  16.287   7.269   1.487 -0.0476 -0.1199 -0.2020
 7368W        W23502  14.104   9.125  11.748  0.0463  0.2212 -0.1028
 7369W        W23503  17.015  14.309   2.048  0.6493  0.3415 -0.0139
 7370W        W23504   9.615   8.958  14.029  0.1018 -0.0477  0.1219
 7371W        W23505  12.947  17.448   4.733  0.0933 -0.3601  0.1381
 7372W        W23506  17.788   9.335  16.018 -0.1693  0.1943 -0.2823
 7373W        W23507   0.615   4.807  12.962  0.1070 -0.3682  0.0483
 7374W        W23508   4.079  12.385   2.337 -0.2493  0.2608  0.1281
 7375W        W23509   2.316   1.613  12.628 -0.1036  0.0394  0.0840
 7376W        W23510  14.116  14.407   1.295 -0.1814 -0.1234 -0.2044
 7377W        W23511  12.448   5.669  12.746  0.2839  0.1859  0.2691
 7378W        W23512  13.305  13.955  16.189  0.1253 -0.0708  0.3944
 7379W        W23513   1.555  14.970   0.856 -0.0873 -0.0239 -0.0206
 7380W        W23514   5.952   0.692   1.284 -0.0652 -0.2005  0.0061
 7381W        W23515  14.730  13.872   1.631  0.0518 -0.0319 -0.2902
 7382W        W23516  14.820  13.667  16.371 -0.2601 -0.0551  0.0765
 7383W        W23517   7.428   1.074   6.161  0.0177  0.2293  0.2045
 7384W        W23518  12.578   3.860   4.231 -0.2357 -0.4291 -0.3800
 7385W        W23519  13.219  14.277  14.565  0.1362 -0.0936 -0.0986
 7386W        W23520  13.942   9.018   3.335  0.0044 -0.1979 -0.1536
 7387W        W23521  16.133   0.591   5.528 -0.2160 -0.0864 -0.2091
 7388W        W23522  10.548   4.416   0.206 -0.0662 -0.0156  0.2089
 7389W        W23523   2.750   5.985  11.598 -0.0315  0.0062  0.1030
 7390W        W23524   1.734   0.189   0.833 -0.2242  0.0464 -0.2330
 7391W        W23525   4.973  14.831   1.390  0.1299 -0.0773  0.1171
 7392W        W23526  14.610  12.928  12.536  0.2176 -0.2745 -0.2346
 7393W        W23527  16.548  10.953   0.728  0.2605  0.2178  0.2556
 7394W        W23528   0.639   5.990  12.115  0.0976 -0.2904 -0.1423
 7395W        W23529  11.707   8.396  15.297 -0.1200 -0.4807 -0.0661
 7396W        W23530   9.704  15.931  14.579 -0.3111  0.0290  0.0760
 7397W        W23531   3.142   1.601  16.333  0.1757  0.6337 -0.0083
 7398W        W23532   5.394  16.637  16.380  0.1898 -0.0877  0.0338
 7399W        W23533  12.529  11.575  14.653 -0.0461 -0.2269 -0.0468
 7400W        W23534  16.860  10.118  16.383 -0.1691  0.4580  0.0441
 7401W        W23535   8.114   8.217  16.497 -0.0395 -0.0785  0.1154
 7402W        W23536  10.713  12.799   5.066 -0.4223  0.0432 -0.5184
 7403W        W23537   5.421   1.003  15.858 -0.2674 -0.0942  0.1918
 7404W        W23538  12.934  17.710  13.880  0.3294  0.0834  0.2453
 7405W        W23539   4.870   1.993   3.819  0.1378  0.3275 -0.0886
 7406W        W23540  17.109   3.074  15.248  0.1245  0.1764 -0.0905
 7407W        W23541   3.209   6.813   0.729  0.0046 -0.1532 -0.1155
 7408W        W23542  15.259  12.217  16.702 -0.0774  0.5480  0.0770
 7409W        W23543   1.402  17.165   4.288  0.0303 -0.1496 -0.0645
 7410W        W23544   2.314  13.230  14.721  0.1172  0.0232 -0.0698
 7411W        W23545  17.903  11.982   5.693 -0.1262 -0.3749 -0.3197
 7412W        W23546  16.848  15.632   5.548 -0.1164 -0.0106  0.2386
 7413W        W23547   4.041  12.011  15.300 -0.2726  0.1241  0.4358
 7414W        W23548   8.292  13.854  12.592 -0.1772 -0.1461  0.0443
 7415W        W23549   6.361   0.288   3.798  0.0971  0.1219  0.0300
 7416W        W23550  16.134  11.264   4.984  0.0468  0.1258 -0.1709
 7417W        W23551   9.645   1.157  11.645 -0.1705  0.0037 -0.0288
 7418W        W23552  17.410   8.163  16.003  0.1253 -0.0845 -0.1342
 7419W        W23553  14.666  17.616   0.393 -0.1529 -0.1828  0.0224
 7420W        W23554   2.211   4.573   3.984  0.0787 -0.0025  0.3889
 7421W        W23555  16.891   0.535  16.419  0.0069 -0.1006 -0.2330
 7422W        W23556  17.217  14.623  16.521 -0.0395 -0.3907  0.0939
 7423W        W23557  17.156   2.751  11.591 -0.1917  0.0371 -0.0219
 7424W        W23558  11.166   2.937  13.171  0.0438 -0.2350 -0.0546
 7425W        W23559  16.793   1.222   1.827 -0.1609 -0.1301  0.2059
 7426W        W23560   9.903   6.318  10.669  0.0295  0.0298 -0.1136
 7427W        W23561  15.187   0.767   3.510 -0.1601 -0.0386 -0.0516
 7428W        W23562   6.684  16.535  12.486  0.1478  0.2044 -0.2008
 7429W        W23563  11.186   7.770   5.180 -0.3024  0.1578  0.2869
 7430W        W23564   4.618  12.593   2.253  0.3846  0.0428  0.1110
 7431W        W23565   1.957   4.593  11.416  0.1388 -0.2946  0.0862
 7432W        W23566   8.356   0.823   4.535  0.1172  0.2288 -0.0620
 7433W        W23567   3.801  14.277  14.557  0.3299 -0.0209  0.3237
 7434W        W23568  13.905   7.569  14.299 -0.2128 -0.1093  0.1362
 7435W        W23569   7.684   8.050   5.525  0.1584 -0.2067  0.2371
 7436W        W23570   7.502   0.237   1.642  0.0500  0.1748  0.1836
 7437W        W23571   2.017   4.513  14.883  0.1472  0.0412  0.0636
 7438W        W23572   2.610  15.031  14.619  0.1406 -0.1806 -0.1891
 7439W        W23573   2.067   2.757   4.055  0.0920  0.0299  0.2765
 7440W        W23574   9.443   8.967  11.794 -0.2017  0.1019  0.3546
 7441W        W23575   2.971  17.249   4.667 -0.1744 -0.1543  0.0051
 7442W        W23576   4.154  13.699  11.823 -0.1484 -0.0459  0.2610
 7443W        W23577   6.710   1.885   5.166  0.2102  0.1658  0.0882
 7444W        W23578  15.130   9.798   1.999  0.0344  0.0178  0.0221
 7445W        W23579   5.444   5.966   3.437  0.0104  0.0327 -0.1783
 7446W        W23580   1.979   0.340  12.588 -0.2331 -0.0859  0.1553
 7447W        W23581   3.804  10.561  14.196  0.1109  0.1328  0.2546
 7448W        W23582  15.076   3.136  13.978  0.2013 -0.0311 -0.1456
 7449W        W23583   0.060  14.557   4.782  0.2512  0.0016 -0.0241
 7450W        W23584  16.397   6.824   1.341  0.1391 -0.1271  0.0573
 7451W        W23585   9.212  16.652   0.818 -0.0179  0.0659 -0.2603
 7452W        W23586   4.174   4.796   3.563 -0.1580 -0.2601 -0.2301
 7453W        W23587   0.393   5.261  15.130  0.0810 -0.3986  0.0300
 7454W        W23588  10.301  12.089   6.049  0.0935 -0.5839  0.0935
 7455W        W23589   5.149  12.244   1.367 -0.1441 -0.3778  0.0347
 7456W        W23590  13.874  10.530  16.178 -0.1108  0.1983 -0.0410
 7457W        W23591  13.236   9.860  15.169  0.1625 -0.1296 -0.1775
 7458W        W23592   9.168   7.425   0.437  0.0002 -0.4335  0.0067
 7459W        W23593   7.406  15.453  16.402 -0.1116  0.0446 -0.2024
 7460W        W23594   0.239   5.064   5.652  0.0659 -0.4427 -0.1985
 7461W        W23595  15.948   7.923   0.733  0.3650  0.1237  0.2637
 7462W        W23596  12.484   7.859  13.713 -0.2098 -0.0565 -0.3697
 7463W        W23597   1.659  15.907   1.613  0.0618 -0.1783 -0.0177
 7464W        W23598  15.985  17.607   4.942  0.2552  0.2246 -0.1993
 7465W        W23599  15.176  11.875   6.416 -0.0081  0.2764  0.0613
 7466W        W23600   1.631  10.575  16.004  0.0128  0.1934 -0.0002
 7467W        W23601  12.822  13.878  13.264 -0.0822  0.1659 -0.0105
 7468W        W23602   5.232  11.956   4.021 -0.2703 -0.1401  0.3165
 7469W        W23603   7.807  13.174   1.128  0.2294  0.0480 -0.1918
 7470W        W23604  14.274  12.299  10.816  0.1797 -0.2659  0.0066
 7471W        W23605   6.427  16.879   0.594  0.2044 -0.0701  0.0002
 7472W        W23606   8.163   0.916  13.329 -0.0535  0.1287  0.1246
 7473W        W23607  16.086   1.118  11.444  0.1761 -0.1878 -0.1005
 7474W        W23608  17.652   2.813  11.732 -0.2108 -0.2666  0.0454
 7475W        W23609  12.726   9.120  14.045  0.1599 -0.3649 -0.1838
 7476W        W23610   0.597  17.269   3.568  0.1760  0.1895 -0.0830
 7477W        W23611  15.332  17.758   1.101 -0.2589  0.1776  0.0544
 7478W        W23612  16.364  12.392   2.578 -0.1709 -0.1675  0.3256
 7479W        W23613   0.277  10.393   0.017  0.2455 -0.0750  0.0831
 7480W        W23614   2.776   1.099  11.198  0.1498  0.0687  0.0347
 7481W        W23615  16.394   9.477  14.921 -0.1780 -0.1216  0.1329
 7482W        W23616   3.108  16.476  12.367  0.1172  0.2655  0.2801
 7483W        W23617  12.066  13.726  11.917  0.0716  0.1679 -0.0237
 7484W        W23618   1.121   3.626   3.751 -0.0496  0.0732 -0.1564
 7485W        W23619  10.345   0.385   6.199  0.2180 -0.1026 -0.0364
 7486W        W23620  10.183  10.755   3.408  0.2011 -0.0937 -0.1531
 7487W        W23621  15.576   0.716  13.933  0.1662  0.0018  0.3509
 7488W        W23622   9.811   0.380  14.916 -0.2927 -0.0605 -0.0023
 7489W        W23623  14.802  15.875   0.380  0.0676  0.0766 -0.2671
 7490W        W23624  11.472   3.818  13.657  0.0428 -0.1829  0.0170
 7491W        W23625   8.637   0.986  16.385 -0.0577 -0.3140 -0.0323
 7492W        W23626   1.582   9.717  11.498  0.2339 -0.1940 -0.0312
 7493W        W23627   3.583  13.756   2.817  0.0788  0.0611  0.1160
 7494W        W23628   2.757   8.130  13.487 -0.0465 -0.0253  0.2539
 7495W        W23629   3.093   3.517   3.838  0.1804 -0.1545 -0.0409
 7496W        W23630  12.001  13.453   2.148 -0.0468 -0.0005  0.2359
 7497W        W23631   4.213  16.801  13.922  0.2307 -0.2157  0.0590
 7498W        W23632  10.808  10.623   4.986 -0.2255 -0.0466  0.0681
 7499W        W23633   1.634   0.574   1.233 -0.0215  0.2331  0.2097
 7500W        W23634   2.417  15.968  12.818 -0.2341 -0.2824  0.2791
 7501W        W23635  12.280   8.552   5.191 -0.3639  0.0064 -0.1832
 7502W        W23636   4.680  16.154  15.568  0.0997 -0.1834 -0.0133
 7503W        W23637  12.808  16.021  15.656  0.1426  0.2942 -0.1558
 7504W        W23638   3.355   2.602  11.329 -0.3415 -0.3733 -0.0043
 7505W        W23639   1.991   4.463  11.969 -0.2889 -0.1214  0.2581
 7506W        W23640   6.818   1.750   0.112  0.1260 -0.0230 -0.3193
 7507W        W23641   4.142   9.652   1.980  0.2080  0.0135  0.4955
 7508W        W23642   6.075  14.933  11.640 -0.1508 -0.1641  0.0379
 7509W        W23643  11.928  15.775  13.621 -0.0697 -0.5989  0.0460
 7510W        W23644  16.622   1.866   2.527 -0.2145 -0.1975 -0.0578
 7511W        W23645   1.394   3.545   5.514  0.0429 -0.2054  0.0299
 7512W        W23646   4.970  17.792  15.627 -0.1280 -0.1083  0.3049
 7513W        W23647   9.815   3.090   3.608 -0.0137  0.1427 -0.1030
 7514W        W23648   9.806  15.577  15.670  0.0026 -0.0968  0.0101
 7515W        W23649  10.600   7.771   5.927 -0.0541 -0.0691  0.0795
 7516W        W23650   9.797   5.131  12.774  0.2641 -0.1625  0.1463
 7517W        W23651   6.192   9.123   2.794 -0.3803 -0.2664 -0.2269
 7518W        W23652  15.119  13.145   0.344  0.2027 -0.1239 -0.1308
 7519W        W23653  16.593   8.467  16.312  0.0190 -0.3678  0.2813
 7520W        W23654   8.875  10.209   1.015 -0.2120 -0.3053 -0.1253
 7521W        W23655   4.436  14.811   2.305  0.0029  0.0249  0.0863
 7522W        W23656   5.401   8.572   1.593 -0.0517  0.0331  0.2890
 7523W        W23657   8.625  13.176  13.329  0.1906 -0.1643 -0.3337
 7524W        W23658   3.426  11.688  15.199  0.0691 -0.0526  0.3442
 7525W        W23659   8.951   7.867   1.992  0.0476  0.0890  0.1018
 7526W        W23660   8.481   8.962   5.519  0.1188 -0.0486  0.0839
 7527W        W23661   5.809   9.080  12.963 -0.1255 -0.0123  0.5384
 7528W        W23662  15.950  11.634   3.308 -0.0788 -0.1554 -0.4187
 7529W        W23663   9.616   7.424   0.899  0.0215  0.0249 -0.1900
 7530W        W23664  11.741   6.343  14.214 -0.0970  0.2907 -0.2539
 7531W        W23665  12.397   3.162  13.106 -0.1265 -0.1843 -0.1473
 7532W        W23666  10.378   6.891   3.361 -0.1871  0.0233  0.0308
 7533W        W23667   3.578   4.215  12.506  0.0101 -0.2332  0.0148
 7534W        W23668   7.481  12.411  16.246 -0.1544 -0.0021 -0.1268
 7535W        W23669   4.696  10.665   2.928  0.1729  0.0129 -0.0509
 7536W        W23670   9.313  13.129   1.164  0.0598 -0.1241 -0.0030
 7537W        W23671  16.574   2.583   2.103  0.3924 -0.2548  0.1476
 7538W        W23672   3.786   8.068  16.325  0.0287  0.0505  0.0493
 7539W        W23673  15.630  13.123   0.514  0.0148 -0.1550  0.2474
 7540W        W23674   8.806   0.338   2.956  0.1689 -0.2641  0.0045
 7541W        W23675   7.672  16.844  14.820  0.0049 -0.1238 -0.0683
 7542W        W23676  10.874  15.584  13.393  0.1899  0.0120  0.0682
 7543W        W23677   0.208  16.980  12.905  0.0539 -0.0128 -0.0743
 7544W        W23678   4.415  14.571  11.638  0.3814  0.3262 -0.1000
 7545W        W23679   3.528  16.467   0.288  0.1307  0.1194  0.1276
 7546W        W23680   4.493   6.905  12.187 -0.0715  0.1852  0.0284
 7547W        W23681  15.743   6.177  16.305  0.1300  0.0053 -0.2494
 7548W        W23682  11.842   8.919   3.095 -0.0459  0.1375 -0.0781
 7549W        W23683   4.046  15.851   2.842 -0.3415  0.0720  0.0086
 7550W        W23684  16.194   2.432  13.482  0.3504 -0.0568  0.3783
 7551W        W23685  17.609   5.549   4.279  0.1453  0.2002  0.2517
 7552W        W23686   3.595   3.264   4.890  0.0773 -0.1900  0.0120
 7553W        W23687  10.351  13.333   3.876 -0.1456 -0.0774 -0.3404
 7554W        W23688   2.468   6.909  13.675 -0.0996  0.0333  0.2666
 7555W        W23689   3.650   2.046   6.121 -0.0147  0.3555 -0.0992
 7556W        W23690  10.207   4.395   3.222 -0.1060 -0.0997  0.0444
 7557W        W23691   4.349   9.374   0.809 -0.0500 -0.0672  0.0811
 7558W        W23692   3.241   7.702  15.765 -0.2400  0.3599  0.0274
 7559W        W23693   7.040   3.941  13.758 -0.0964  0.3145 -0.1507
 7560W        W23694  17.434  12.141   4.449  0.3365 -0.0076  0.2178
 7561W        W23695   4.167   7.606   3.533 -0.0581  0.1683  0.1227
 7562W        W23696   4.285  17.024   2.580  0.2430  0.0900  0.1625
 7563W        W23697   2.605  17.597  15.421 -0.0111  0.2853 -0.0947
 7564W        W23698  16.419  13.674   4.930  0.0254 -0.0931 -0.1410
 7565W        W23699   4.853   7.266  13.047 -0.1254 -0.1126 -0.1138
 7566W        W23700   2.439  14.063   2.520  0.1314 -0.1491  0.1236
 7567W        W23701  11.441  11.893   3.748  0.1196 -0.2544  0.1879
 7568W        W23702  16.616   8.034  16.611  0.1709  0.2520  0.0290
 7569W        W23703  12.640  17.489   4.296 -0.2029  0.1189 -0.2429
 7570W        W23704   2.126  11.908   1.535  0.1969  0.0255  0.3872
 7571W        W23705   4.041   9.784   0.569  0.2586  0.3414  0.0855
 7572W        W23706   2.008   9.748  12.567 -0.1153  0.1884 -0.1512
 7573W        W23707  17.893   3.311  15.908 -0.0399 -0.0631  0.0282
 7574W        W23708  14.400  12.227   1.711 -0.1900  0.3150 -0.0018
 7575W        W23709   6.493  10.531   2.046  0.1242 -0.1854  0.4433
 7576W        W23710   5.271   6.636  15.304 -0.2484  0.1903  0.0160
 7577W        W23711  14.855   7.676   2.631 -0.3657  0.0789  0.1049
 7578W        W23712  13.170   7.237  15.504  0.3940  0.0027  0.1333
 7579W        W23713   9.066   1.313   4.808 -0.2223 -0.1422 -0.1481
 7580W        W23714   5.145  16.069  15.672 -0.0996  0.1145  0.1001
 7581W        W23715   0.919  16.156  10.381 -0.1458 -0.2105  0.0445
 7582W        W23716  16.202   2.467  11.601  0.1421 -0.0267 -0.0267
 7583W        W23717  13.099  10.557  14.536 -0.1706  0.1508 -0.0457
 7584W        W23718   2.876   3.639   1.581  0.1596  0.0761  0.1506
 7585W        W23719  12.842  10.688  13.823 -0.0711  0.0249 -0.0662
 7586W        W23720   6.891  13.866  16.229  0.1612  0.1631 -0.2052
 7587W        W23721  13.070   6.051  11.993 -0.0232  0.0897 -0.2081
 7588W        W23722   5.680  14.616   5.111  0.0439 -0.2872  0.0639
 7589W        W23723  12.406  15.866  13.729  0.0365 -0.1175 -0.2341
 7590W        W23724  11.728   2.419  16.404  0.0708  0.0620 -0.0190
 7591W        W23725   5.071  16.671   6.133 -0.1835  0.1660 -0.1084
 7592W        W23726  15.639  15.167   0.108 -0.1028 -0.0613 -0.2131
 7593W        W23727   7.905  17.297  11.905  0.0974 -0.3290  0.1420
 7594W        W23728   5.220  16.340   1.654  0.5061  0.1778 -0.3112
 7595W        W23729  10.038  16.317   6.603  0.0550 -0.3186  0.1860
 7596W        W23730   3.577   6.134  11.221  0.1713  0.0763 -0.4578
 7597W        W23731   5.067   2.702   4.406 -0.2152  0.0950  0.4821
 7598W        W23732   5.676  11.452   4.320 -0.1954 -0.2562  0.0183
 7599W        W23733  16.766  12.414   1.304  0.0624  0.0850 -0.0117
 7600W        W23734  11.743  13.727   6.308 -0.2321 -0.2800  0.3567
 7601W        W23735   5.912   1.448   4.903 -0.1603 -0.2361  0.5288
 7602W        W23736  17.309  16.069   4.412  0.0584  0.2384 -0.1994
 7603W        W23737  12.497   7.493  14.571 -0.0133 -0.0997 -0.3738
 7604W        W23738   2.198   9.585   1.310  0.0833  0.1196 -0.0293
 7605W        W23739   2.448   5.096  13.075  0.0164  0.0827  0.1448
 7606W        W23740  15.043   9.582   5.735 -0.2257 -0.2131  0.2843
 7607W        W23741   1.726   5.854   3.550  0.1523 -0.1100 -0.0709
 7608W        W23742  12.117   5.436  13.040 -0.4788  0.0714 -0.0892
 7609W        W23743   3.158  12.166  13.989  0.1116 -0.0098  0.2552
 7610W        W23744   5.591  16.942  16.716  0.2519  0.0721 -0.0365
 7611W        W23745  15.943   2.435  12.036 -0.1122  0.2930  0.0469
 7612W        W23746   3.027   2.060   4.984  0.0396  0.0017  0.1100
 7613W        W23747  15.652  13.080   2.444  0.0005  0.0340 -0.2068
 7614W        W23748  17.467  14.271  14.492 -0.0698 -0.0048  0.0338
 7615W        W23749  14.970  10.114   4.457 -0.0153  0.0204  0.3598
 7616W        W23750   1.286   5.066   1.701 -0.0051 -0.2994 -0.0561
 7617W        W23751   7.537  16.175   2.492 -0.1179 -0.1078 -0.0891
 7618W        W23752   4.216   8.581  12.512 -0.1619 -0.1310 -0.3462
 7619W        W23753   9.982  16.656   3.105 -0.0574 -0.2964 -0.0839
 7620W        W23754  13.640   0.325  15.772  0.0416 -0.1291  0.0702
 7621W        W23755  12.668  12.301   4.042  0.1797  0.0696  0.1238
 7622W        W23756  17.243   8.571   4.681  0.1956  0.2196  0.2378
 7623W        W23757  17.762  14.399  12.435  0.0371 -0.0184  0.0350
 7624W        W23758  17.684   1.869  12.276 -0.0572  0.0511 -0.0542
 7625W        W23759   0.499   4.693  16.570 -0.1878  0.0326 -0.2831
 7626W        W23760  12.273   1.511   5.730  0.0410 -0.2308  0.4189
 7627W        W23761  16.108  10.349  13.902  0.0812 -0.0794  0.0036
 7628W        W23762  13.831   3.820   0.360  0.0386 -0.2743  0.0092
 7629W        W23763  14.800   4.632  10.694 -0.1319 -0.0515  0.1455
 7630W        W23764  15.324   6.372  11.852  0.0313 -0.0944  0.0546
 7631W        W23765  14.490  11.925   0.724 -0.3605 -0.2538 -0.1632
 7632W        W23766  11.338   4.150   6.712  0.4902  0.0358 -0.1136
 7633W        W23767   9.586   4.807   5.689  0.0699  0.2597 -0.1453
 7634W        W23768  10.461   8.893  11.235 -0.5144 -0.0149 -0.2384
 7635W        W23769  17.280  11.944   3.854 -0.0052 -0.2372  0.4142
 7636W        W23770   2.595   7.015  15.090 -0.2119 -0.0421  0.1733
 7637W        W23771   0.352   2.751  11.130  0.1152 -0.1408  0.3797
 7638W        W23772   0.309  14.491   2.754 -0.0647  0.1850  0.3003
 7639W        W23773   6.774  17.530  14.875  0.1841  0.2169  0.2883
 7640W        W23774   2.457   7.409  15.417 -0.0017 -0.0408  0.1110
 7641W        W23775  17.772  16.075   1.470 -0.2909  0.0578  0.4004
 7642W        W23776  12.566  13.685   4.956 -0.2352 -0.0220  0.0980
 7643W        W23777  13.056  12.904  12.151  0.0674 -0.2292  0.2480
 7644W        W23778   1.342   6.092  15.789 -0.1687  0.1490 -0.1499
 7645W        W23779   3.774  11.908   4.987 -0.0099 -0.0863  0.0144
 7646W        W23780   2.726  10.409  11.329  0.1192  0.0567 -0.0556
 7647W        W23781   9.898   2.431   4.968  0.0698 -0.2570  0.2019
 7648W        W23782   6.166  13.390  14.815  0.0450 -0.1295  0.0785
 7649W        W23783   8.984   6.410   3.814 -0.3189  0.0917 -0.1146
 7650W        W23784  13.851   6.810   5.186  0.1214  0.1157  0.1628
 7651W        W23785  12.540   6.045   1.944  0.3438  0.0323  0.0349
 7652W        W23786   8.674   6.738  15.176  0.3058  0.0860 -0.0923
 7653W        W23787   4.143   0.070  12.808 -0.1111  0.2377 -0.1329
 7654W        W23788   9.470  12.263   5.892  0.2005 -0.1602 -0.3559
 7655W        W23789  16.085  14.699   2.492  0.1146 -0.1009  0.0610
 7656W        W23790  17.616  16.765  13.486  0.2986 -0.1211  0.0410
 7657W        W23791  10.122   8.009   4.282 -0.2426  0.2025  0.2779
 7658W        W23792   1.112  10.854   3.279 -0.0560 -0.5005  0.1905
 7659W        W23793   2.106   2.074   3.501  0.0298  0.0155  0.1718
 7660W        W23794  13.894  12.766  12.348  0.5120 -0.1623  0.1487
 7661W        W23795  17.135  11.746   4.572  0.0809  0.1422  0.2593
 7662W        W23796   0.486  12.268   1.698 -0.4582 -0.3185 -0.1060
 7663W        W23797  14.698  12.892   3.163  0.1747  0.1194  0.0343
 7664W        W23798   0.285   7.901   5.677 -0.1230 -0.0959  0.3828
 7665W        W23799   5.246  15.001   1.778 -0.0634 -0.0233  0.2237
 7666W        W23800  10.470  14.055   3.892  0.1939  0.0776 -0.0416
 7667W        W23801  16.409   7.794   1.461 -0.0657  0.0660 -0.0844
 7668W        W23802  12.867   2.773   2.426  0.0138  0.1594 -0.1346
 7669W        W23803   9.947   5.012  16.598 -0.0221 -0.0382 -0.0002
 7670W        W23804  14.916   5.944   4.600  0.1270 -0.1626  0.2395
 7671W        W23805   9.709   9.806   4.843 -0.1651 -0.0271  0.1750
 7672W        W23806   1.067   0.736  11.598 -0.2484  0.0042  0.0455
 7673W        W23807   7.102   2.631  14.669  0.0394 -0.0527 -0.0134
 7674W        W23808   7.306  12.297   2.973 -0.3273  0.0671  0.1270
 7675W        W23809   5.531   9.918  16.425  0.3853  0.0130 -0.0618
 7676W        W23810  12.726  14.520  15.061 -0.2418  0.2695 -0.0012
 7677W        W23811   0.180   3.104  11.895  0.1683 -0.2428 -0.0155
 7678W        W23812   3.054  10.292  16.343 -0.3283  0.1962  0.1195
 7679W        W23813  17.807  16.168   2.490  0.3351  0.1567  0.1654
 7680W        W23814   5.018  13.260  13.524 -0.0177  0.2252  0.2586
 7681W        W23815   4.946   3.832  16.284 -0.2257  0.0921  0.1972
 7682W        W23816  11.064  15.168  16.188  0.0308 -0.3776  0.1419
 7683W        W23817  12.840   5.681  12.312  0.0099 -0.0549  0.0596
 7684W        W23818  11.844  14.044  13.555  0.2368 -0.3090 -0.1457
 7685W        W23819  16.808   9.641   2.401 -0.0387 -0.5068  0.0994
 7686W        W23820   9.352  17.161  12.367 -0.0679  0.0119 -0.1371
 7687W        W23821  10.711   6.866  14.048 -0.0047 -0.0092 -0.1837
 7688W        W23822   7.693   9.340  16.241 -0.0029 -0.1337 -0.1108
 7689W        W23823  15.244  15.786  16.301  0.1093  0.0220  0.1257
 7690W        W23824  11.420  17.647  16.710 -0.1046  0.1234 -0.3429
 7691W        W23825   9.978  16.388   0.882 -0.3086 -0.1314 -0.0259
 7692W        W23826  13.737   6.225  14.387 -0.0223 -0.0652 -0.1310
 7693W        W23827   1.162   3.575  13.120  0.1124  0.1275 -0.1207
 7694W        W23828  13.878   1.769  13.420 -0.0662  0.0700  0.1138
 7695W        W23829   3.051   5.313  11.092  0.3623  0.1313  0.0359
 7696W        W23830   7.860  14.714   1.693 -0.1160 -0.0395  0.0915
 7697W        W23831  17.084   7.234   1.889 -0.1485 -0.1128 -0.1458
 7698W        W23832   0.650  17.514  14.612  0.2112 -0.0000  0.1289
 7699W        W23833  14.088  13.434   4.279  0.0583  0.2953 -0.3640
 7700W        W23834   7.699   7.866  11.521 -0.1450 -0.0897  0.0209
 7701W        W23835   0.094  14.896   2.944  0.0640  0.0909 -0.1859
 7702W        W23836   3.295  10.751  15.721 -0.0216 -0.0085  0.0777
 7703W        W23837   3.666  15.252   5.590 -0.0831 -0.1190 -0.5655
 7704W        W23838   2.623   3.065   2.313  0.2281 -0.1285 -0.1459
 7705W        W23839  15.366  17.419   2.371 -0.3131 -0.3280 -0.1033
 7706W        W23840   2.705   2.118   4.207  0.0217  0.3211 -0.1717
 7707W        W23841   2.685  14.285   4.568 -0.2747  0.1851 -0.0893
 7708W        W23842  14.249   0.730   5.180 -0.0994 -0.1868  0.1053
 7709W        W23843   7.231   8.311  15.341  0.0788  0.2393 -0.1502
 7710W        W23844  14.812  12.493   0.792 -0.0240  0.3836  0.0991
 7711W        W23845   3.152   2.899  15.580 -0.0971  0.2062  0.1619
 7712W        W23846  12.541  17.949  13.517  0.0843 -0.1459 -0.3136
 7713W        W23847  12.362   0.011   0.304 -0.1020  0.1008  0.2751
 7714W        W23848   8.602   5.838   5.026  0.1405 -0.3097 -0.3232
 7715W        W23849   6.658   3.329   1.051 -0.0021 -0.0431 -0.1300
 7716W        W23850   9.945  10.329  15.706  0.2356  0.2324  0.1426
 7717W        W23851   1.949   4.787  12.414 -0.1383 -0.1423 -0.1168
 7718W        W23852   5.048  13.964   1.876 -0.2005 -0.0064 -0.1632
 7719W        W23853   0.097   5.803  12.973 -0.0465  0.4591  0.1183
 7720W        W23854   2.293   7.084   3.350  0.0743 -0.0439 -0.0886
 7721W        W23855   8.635   1.263   4.542  0.1429  0.1223 -0.0195
 7722W        W23856   4.601   7.079  14.012  0.0253 -0.0665 -0.2926
 7723W        W23857  16.635   9.947  14.070  0.0678 -0.0045  0.0243
 7724W        W23858   4.852   4.845  13.588  0.1583 -0.1295  0.3687
 7725W        W23859   3.358   0.194   0.310 -0.0931  0.1000  0.3160
 7726W        W23860  15.565  14.286   1.387 -0.1628 -0.1768  0.0047
 7727W        W23861  17.536   4.686  16.274  0.3679 -0.2757 -0.0481
 7728W        W23862   2.238  14.837  12.725 -0.3096  0.1170  0.2797
 7729W        W23863   9.226  14.136   1.407  0.0468 -0.1693  0.0685
 7730W        W23864   3.369   8.141  16.670 -0.0964 -0.0004 -0.1831
 7731W        W23865   2.208   4.213  13.861 -0.1933 -0.4741 -0.1018
 7732W        W23866   8.756   1.645  14.640 -0.0184 -0.1528  0.2823
 7733W        W23867   2.763   7.483  15.787  0.0242  0.1133 -0.1310
 7734W        W23868   1.514  16.889   3.831 -0.1062 -0.0474  0.3053
 7735W        W23869  17.545   8.862  14.299  0.1701  0.0579  0.0040
 7736W        W23870   5.788   4.874   4.665  0.1501  0.0690 -0.1311
 7737W        W23871   7.681   0.103   5.345 -0.1601  0.0639  0.2023
 7738W        W23872   2.889   9.840  15.479 -0.1185  0.0221  0.0983
 7739W        W23873  17.614   7.601   6.219 -0.1757  0.1128 -0.0882
 7740W        W23874  12.547  13.959  11.118 -0.1522 -0.0705 -0.1421
 7741W        W23875  14.487  10.753   3.534  0.1597  0.0521 -0.0720
 7742W        W23876   0.946   3.448  11.588 -0.1272  0.0648  0.0890
 7743W        W23877  11.958   8.419   2.328 -0.1257  0.1114  0.2689
 7744W        W23878   3.654   4.624   3.547  0.3147 -0.0337 -0.1217
 7745W        W23879  16.780   3.820   4.884 -0.2250  0.1105 -0.1501
 7746W        W23880   8.036   8.622  14.348  0.2818 -0.0080  0.1419
 7747W        W23881   7.303   1.762   2.355 -0.0758 -0.0137  0.0395
 7748W        W23882  16.238   5.202  12.376  0.1773  0.1427  0.0378
 7749W        W23883   3.418  14.236  15.794  0.4571  0.3097  0.1643
 7750W        W23884  13.465   2.794   4.967 -0.0054  0.0563 -0.2248
 7751W        W23885  11.904   7.589  11.342  0.1742  0.2551  0.0730
 7752W        W23886  12.278   7.518   1.954 -0.0860 -0.0774  0.3664
 7753W        W23887   2.748  16.307   2.886  0.0411 -0.1470 -0.2078
 7754W        W23888   1.817   9.173   3.948  0.0290 -0.1031  0.2518
 7755W        W23889   0.802  15.973  11.986  0.0530 -0.2884  0.4043
 7756W        W23890  12.593   4.984   2.928  0.0633  0.3330 -0.0239
 7757W        W23891   2.268  14.522   5.711  0.1937 -0.5923 -0.0585
 7758W        W23892   8.343  10.047  11.857 -0.2880  0.2620  0.3339
 7759W        W23893  13.877  16.634   5.376 -0.0090  0.1616  0.1929
 7760W        W23894   1.228   4.295  11.958 -0.1666 -0.1403  0.0196
 7761W        W23895   1.461   1.129  16.664 -0.0078 -0.1480 -0.2167
 7762W        W23896   4.933   5.294  13.776  0.2018  0.0892 -0.1448
 7763W        W23897   3.071   4.011   3.707  0.3709  0.1513 -0.0872
 7764W        W23898   4.801   8.471   2.694 -0.2005 -0.2369 -0.2662
 7765W        W23899   2.137   5.621  15.978 -0.1581 -0.0302 -0.3295
 7766W        W23900   1.125   9.293  13.044 -0.1156  0.1326  0.0042
 7767W        W23901  17.208   9.486  12.246  0.0875  0.3467  0.2686
 7768W        W23902  13.663   7.242   3.045  0.0264 -0.1205  0.1017
 7769W        W23903  16.202  16.347   5.310 -0.2360  0.0219 -0.2099
 7770W        W23904   8.718   7.978  11.964  0.2192  0.1421  0.0122
 7771W        W23905   9.465  13.159   5.982  0.3478  0.1712 -0.1576
 7772W        W23906   8.200   3.146  12.564  0.1511  0.2480  0.1061
 7773W        W23907  13.987   4.909  12.546 -0.3352 -0.0693  0.0041
 7774W        W23908   2.399  16.009   4.641  0.2348  0.1717  0.1836
 7775W        W23909   3.096  10.241  14.936  0.1225  0.0307  0.1421
 7776W        W23910   0.728   7.425  13.864  0.1268  0.0513 -0.1528
 7777W        W23911   7.090   1.959   4.838  0.2417 -0.1054  0.0229
 7778W        W23912   4.066   3.912  15.935 -0.3791 -0.0400 -0.0661
 7779W        W23913  11.651   4.641  13.124 -0.0445  0.1386 -0.0204
 7780W        W23914   9.155  13.904  16.700 -0.0504 -0.0226 -0.0302
 7781W        W23915  14.569   0.502   4.053 -0.2050  0.1670 -0.0200
 7782W        W23916   8.290   8.630  16.693 -0.3286 -0.1696 -0.1365
 7783W        W23917   9.088   7.153   1.782  0.1902 -0.2737  0.3255
 7784W        W23918   4.064   5.706  15.018 -0.3146 -0.2812 -0.2494
 7785W        W23919  10.012  15.629  11.850 -0.0688  0.2254 -0.3326
 7786W        W23920  16.882   0.485   2.441 -0.0130  0.1006  0.2284
 7787W        W23921  14.858  14.290  12.324 -0.0853 -0.4076  0.0128
 7788W        W23922  12.029  17.658   6.067  0.0191  0.1567  0.1317
 7789W        W23923  15.421   0.652  16.338 -0.0391 -0.1576  0.0899
 7790W        W23924   7.529  14.529  11.867  0.1521  0.3523  0.0998
 7791W        W23925  13.875   9.878   5.154 -0.0187 -0.1729  0.1271
 7792W        W23926   4.776   6.928   2.158  0.0710  0.0110 -0.1879
 7793W        W23927   5.882  11.145   1.918 -0.2810  0.3172 -0.0241
 7794W        W23928  10.619   5.814   4.526  0.1511  0.1198  0.0079
 7795W        W23929   6.574  13.037  12.508  0.2335  0.2726 -0.1135
 7796W        W23930   5.588   8.732  11.590  0.2080 -0.2436  0.0762
 7797W        W23931   2.767  13.729   2.311 -0.2122 -0.2818 -0.3492
 7798W        W23932   5.554  16.568   0.793  0.3273  0.1982 -0.0101
 7799W        W23933  12.035  17.867  16.447 -0.0492  0.0217  0.0405
 7800W        W23934   3.025   9.565   1.263 -0.2681 -0.0982  0.0128
 7801W        W23935   8.836  17.218  12.740 -0.0979 -0.0510 -0.0477
 7802W        W23936   6.384   9.892   4.189  0.0926 -0.0077 -0.0671
 7803W        W23937   2.374   9.119   4.461 -0.3969 -0.1792 -0.0077
 7804W        W23938   9.820   9.775  14.011  0.0872 -0.1080  0.2088
 7805W        W23939   6.097   8.726  16.077 -0.0357 -0.2409 -0.0452
 7806W        W23940   5.250   0.649   0.027 -0.0699 -0.1402  0.1629
 7807W        W23941   4.720   1.365  13.338 -0.0406  0.0997  0.0947
 7808W        W23942   0.151  16.855   2.271  0.0438  0.2333 -0.1852
 7809W        W23943  11.895  10.372  11.457 -0.0623 -0.0751 -0.0884
 7810W        W23944  14.858  17.905   2.848  0.0976 -0.0907 -0.0409
 7811W        W23945   3.533  11.568   0.506  0.2450 -0.1770  0.4436
 7812W        W23946   2.890   2.089  16.550  0.1315  0.3342 -0.0289
 7813W        W23947   4.614   6.441   2.324 -0.1431  0.1061 -0.3451
 7814W        W23948  16.238  15.798   1.465 -0.1229  0.2483  0.3222
 7815W        W23949  13.228   5.480   0.314  0.4251 -0.0544  0.0993
 7816W        W23950   4.848   3.392  16.067  0.2869  0.1554 -0.1482
 7817W        W23951  12.623   9.232   3.464 -0.2167 -0.0087  0.3936
 7818W        W23952  13.553   7.145   4.069 -0.0235  0.1865 -0.2452
 7819W        W23953  14.016   1.266   3.612  0.0043  0.3344  0.1094
 7820W        W23954  11.410   6.335   1.422  0.2329  0.0738  0.1935
 7821W        W23955  14.515  17.786   2.529  0.0835 -0.0067 -0.1661
 7822W        W23956  14.541   4.021  14.622  0.0198  0.4124 -0.0986
 7823W        W23957   0.195  11.197   5.321  0.1596  0.0321 -0.1542
 7824W        W23958   5.068   3.070   1.085 -0.1674  0.0411 -0.0795
 7825W        W23959   4.195   3.609   5.637  0.0774 -0.2872  0.1007
 7826W        W23960  13.082  15.114  14.494  0.0078  0.2366 -0.2260
 7827W        W23961  14.563  17.248   5.115 -0.1134  0.0780  0.1645
 7828W        W23962  17.016   6.478  13.226 -0.0840  0.0279 -0.0556
 7829W        W23963   1.280  11.086   0.796 -0.0760 -0.0017 -0.0571
 7830W        W23964   6.875   4.721   5.930  0.3332 -0.3568 -0.3352
 7831W        W23965   6.490  16.516   0.970 -0.0678  0.1862 -0.0579
 7832W        W23966  12.390   3.773  12.457  0.0529 -0.2702  0.0457
 7833W        W23967   0.196  16.274  11.768  0.1046 -0.3080 -0.0770
 7834W        W23968   9.625   8.852   4.831 -0.1314 -0.2566 -0.2109
 7835W        W23969   5.134  17.795  12.821  0.2346 -0.1172  0.2910
 7836W        W23970   4.284  16.320  15.291  0.0684 -0.0297 -0.1687
 7837W        W23971   4.419  15.237   1.943  0.0131 -0.0082  0.1767
 7838W        W23972   8.835   8.382   1.818 -0.1154  0.0951 -0.0586
 7839W        W23973  12.883   2.384  16.545 -0.2460  0.1493 -0.1997
 7840W        W23974  16.892  17.752   1.440 -0.1211  0.4090  0.2331
 7841W        W23975   5.027  16.350  16.543 -0.1650  0.3802  0.2361
 7842W        W23976   2.602   6.656  16.067  0.1873 -0.0097 -0.0441
 7843W        W23977   7.167  13.535   2.243 -0.0328  0.0119  0.3030
 7844W        W23978  17.637  11.429   1.486 -0.0850 -0.3329  0.2106
 7845W        W23979  10.504  11.737  12.511 -0.1695  0.1830  0.1386
 7846W        W23980  16.819  10.885   0.262 -0.1960  0.1304  0.0483
 7847W        W23981   7.866   9.103   0.348  0.0563 -0.1312 -0.0568
 7848W        W23982  17.431  13.337   0.180 -0.2107  0.0151  0.1130
 7849W        W23983   5.773   6.166   0.395  0.2866 -0.1173  0.0594
 7850W        W23984   9.882  14.803  12.198  0.0785 -0.3695 -0.0923
 7851W        W23985   3.048   4.011   2.318  0.1726 -0.0774 -0.3270
 7852W        W23986  12.368  10.364   4.487  0.0726 -0.0978 -0.0581
 7853W        W23987   5.185   6.435  11.897 -0.0061  0.2565 -0.0318
 7854W        W23988   3.119   9.631  13.080 -0.0193  0.1566 -0.0463
 7855W        W23989   6.450   4.801   2.587  0.0744  0.0653  0.1736
 7856W        W23990  14.289   7.389  14.720  0.1086 -0.0902 -0.1084
 7857W        W23991  12.722  15.949   0.861  0.2984 -0.2253  0.0044
 7858W        W23992   5.157   5.531   0.282 -0.1275  0.0842  0.1814
 7859W        W23993   3.809   2.070   4.441 -0.0625 -0.0096 -0.1032
 7860W        W23994   7.895  10.766  15.194 -0.1446 -0.3101  0.2549
 7861W        W23995   6.191  17.714  16.290  0.1414  0.0380  0.1382
 7862W        W23996  13.619   5.675   4.317 -0.2409 -0.0550 -0.3435
 7863W        W23997   1.160  14.374   2.059  0.3086  0.3786 -0.0573
 7864W        W23998   6.214  17.646   2.453  0.1637 -0.1203  0.2286
 7865W        W23999   8.204   9.342  16.277 -0.4130  0.0572  0.1585
 7866W        W24000  15.577   4.905   4.571 -0.1630 -0.0194  0.1499
 7867W        W24001   1.346  16.427  16.011  0.0402  0.1355  0.0033
 7868W        W24002  12.037   4.914  12.907 -0.1389  0.0658  0.1678
 7869W        W24003  17.722  14.703   3.424 -0.0004 -0.0405  0.1844
 7870W        W24004  15.165  10.313  14.072 -0.1042 -0.2476  0.0243
 7871W        W24005  11.596   1.432  13.510 -0.0844 -0.0414 -0.0814
 7872W        W24006  11.730   0.064  11.331  0.0152 -0.1990 -0.2801
 7873W        W24007   8.198  11.000   0.829 -0.1063 -0.6297  0.2731
 7874W        W24008   6.416   4.847  14.672 -0.2012 -0.2019 -0.1688
 7875W        W24009  15.338   1.469   4.629 -0.0559  0.0815 -0.1820
 7876W        W24010  12.420  17.436   2.529 -0.0710  0.0823 -0.1651
 7877W        W24011  12.793  12.345  15.161 -0.1415  0.2951  0.0809
 7878W        W24012   7.304   3.020  12.214 -0.2129 -0.0127 -0.2605
 7879W        W24013  13.954   0.662  13.094 -0.1452 -0.0721 -0.1685
 7880W        W24014  12.524  13.133  11.262 -0.1073 -0.2648 -0.0477
 7881W        W24015  15.244   5.041  15.842 -0.0265 -0.1658  0.0373
 7882W        W24016   0.363  14.264   0.225 -0.0581 -0.0997 -0.1011
 7883W        W24017  10.606  10.311  12.255  0.3627  0.1081  0.2551
 7884W        W24018   8.734   5.578   0.048 -0.2886  0.1336  0.1505
 7885W        W24019   7.385   2.821   0.586  0.0379  0.1831 -0.0895
 7886W        W24020  13.516   8.386  14.230  0.0186 -0.0934 -0.5433
 7887W        W24021  11.010   7.132  10.868  0.1128  0.3063  0.1333
 7888W        W24022   4.362   5.757  16.722 -0.1784  0.1838  0.0869
 7889W        W24023  13.025  11.842   1.385 -0.0350  0.0680 -0.0187
 7890W        W24024  11.097   9.419   3.139 -0.1934  0.2029 -0.1783
 7891W        W24025  11.642  17.352  13.867 -0.1463 -0.3128  0.0396
 7892W        W24026   0.411  16.361   5.963 -0.2784  0.1730 -0.0216
 7893W        W24027  16.742   4.364  15.340  0.2077 -0.0102  0.1067
 7894W        W24028  13.814   3.299  11.576 -0.0256 -0.1033 -0.0036
 7895W        W24029   6.958  15.596  12.602 -0.2502 -0.1477 -0.2761
 7896W        W24030   7.586   0.748   2.667 -0.1194 -0.1898  0.0015
 7897W        W24031   9.130   3.326  12.145  0.2276 -0.0038  0.0082
 7898W        W24032  10.352  14.509   3.052  0.0045 -0.1437 -0.0109
 7899W        W24033  13.667  10.649  16.612  0.1068  0.2633 -0.0520
 7900W        W24034   5.325  11.877   6.237  0.0642  0.0498 -0.0692
 7901W        W24035   7.108   2.504  13.918 -0.0159  0.2763 -0.3331
 7902W        W24036  11.115  10.522  16.291 -0.2221 -0.0224  0.2962
 7903W        W24037  14.020   3.543  15.091 -0.2643 -0.0210 -0.1904
 7904W        W24038  10.736  12.715  15.388  0.1766 -0.0998  0.0642
 7905W        W24039   0.925  13.376   1.622 -0.3265 -0.0143 -0.0806
 7906W        W24040  10.406   2.617  15.425  0.1507  0.0797 -0.0585
 7907W        W24041   1.657   6.758   0.257 -0.0611  0.1103 -0.0651
 7908W        W24042   6.883   6.982   2.982  0.1218  0.0210  0.0168
 7909W        W24043   6.113  16.279   5.168 -0.5612 -0.1697  0.1179
 7910W        W24044  16.634  11.924  16.289  0.0903  0.4844 -0.0801
 7911W        W24045  14.720  16.541   1.572  0.2739  0.2964 -0.2855
 7912W        W24046   7.981   0.052   3.867  0.3382 -0.1298 -0.1319
 7913W        W24047  16.095   5.167   2.437 -0.2247  0.1232 -0.0009
 7914W        W24048   0.041  14.381   0.975 -0.0490 -0.0143  0.0591
 7915W        W24049   2.803  13.701   5.009  0.1209  0.2787  0.4176
 7916W        W24050   1.461   4.270  11.062  0.0585 -0.3625  0.2323
 7917W        W24051  10.330  11.080   0.243  0.1793  0.1700  0.0713
 7918W        W24052   9.318  10.130   0.839 -0.0362  0.1117  0.1085
 7919W        W24053   1.490   4.043   5.368 -0.3443 -0.0685  0.0227
 7920W        W24054   3.725   8.087  14.447  0.2236  0.2081  0.1458
 7921W        W24055   7.626  12.414  11.164 -0.2519 -0.0593 -0.1199
 7922W        W24056   7.054   6.644   4.026  0.1700  0.0812  0.0076
 7923W        W24057   4.759   5.757   1.643 -0.1819 -0.1605 -0.3553
 7924W        W24058   7.939  14.077   0.795 -0.0854 -0.1076  0.2488
 7925W        W24059   0.995   7.910   1.140 -0.2787 -0.1504  0.0327
 7926W        W24060   7.443   0.553   5.294  0.1600 -0.0070 -0.1844
 7927W        W24061  16.088   0.208   5.198  0.0429  0.2055  0.0895
 7928W        W24062  13.783   7.039  14.047  0.2920 -0.2308 -0.1739
 7929W        W24063  13.241  17.354   2.675 -0.0277  0.2513 -0.0702
 7930W        W24064   9.501   3.010  12.999 -0.1956 -0.0189 -0.0368
 7931W        W24065  14.196   6.146  13.953  0.1330  0.1619  0.0282
 7932W        W24066   6.821   9.236  13.931  0.1399  0.1006  0.0855
 7933W        W24067  17.031  14.265  14.205 -0.1354  0.0065  0.0237
 7934W        W24068   2.408  12.650  15.672  0.1316 -0.2304  0.0516
 7935W        W24069   9.687  14.367  14.397  0.1318 -0.1428 -0.0391
 7936W        W24070  10.185  16.394  16.125  0.0305  0.0089  0.3359
 7937W        W24071  13.129  15.951  14.280 -0.1989 -0.3767  0.0142
 7938W        W24072  13.403   0.125   3.175  0.0329  0.2664  0.1089
 7939W        W24073   3.891  12.523   1.817  0.2412  0.0670  0.1138
 7940W        W24074   1.541   9.353  11.819  0.3828  0.0355  0.1667
 7941W        W24075   6.312  12.735  14.872 -0.2386  0.1314 -0.0919
 7942W        W24076   4.995  15.802  13.252 -0.2063 -0.0695 -0.0171
 7943W        W24077  13.407  11.696  14.901  0.3662 -0.0886  0.0035
 7944W        W24078  14.510  11.887   5.256 -0.1099  0.1099  0.2105
 7945W        W24079  15.847   3.505  12.946 -0.1965  0.0023  0.1231
 7946W        W24080   9.671  15.310   0.722  0.0500 -0.0866  0.1283
 7947W        W24081  10.318  13.399   0.006  0.3223  0.4481  0.1250
 7948W        W24082   1.361  12.738  13.992  0.0061  0.0043  0.1675
 7949W        W24083   2.718   4.655   2.641  0.5479 -0.1499 -0.0959
 7950W        W24084  10.544   1.153   0.457 -0.3178 -0.1519  0.1947
 7951W        W24085   5.117  16.869   0.987 -0.1264  0.0862 -0.0232
 7952W        W24086  16.673  10.449   4.867  0.3381 -0.3206 -0.1087
 7953W        W24087  11.364   4.483   5.968  0.0013  0.0796 -0.0453
 7954W        W24088  10.939  12.171   3.226 -0.0020 -0.1451  0.0428
 7955W        W24089  15.867  17.169  13.664 -0.0352  0.1994  0.2019
 7956W        W24090   3.523   3.069   5.425  0.0195 -0.0353 -0.1109
 7957W        W24091   4.851   9.597   6.130 -0.0562 -0.1377 -0.1540
 7958W        W24092  13.728  11.078  16.270 -0.1962  0.0329 -0.0538
 7959W        W24093   5.636   4.420   5.544  0.1285 -0.4645 -0.0014
 7960W        W24094  16.202   6.805  11.500 -0.2514 -0.0574  0.1045
 7961W        W24095   1.939   9.316  12.807 -0.1313 -0.0581 -0.0156
 7962W        W24096  13.741   6.326  13.901  0.1197 -0.0952 -0.1241
 7963W        W24097  14.011   4.437   5.329  0.0974 -0.3357  0.1566
 7964W        W24098  11.246   6.849   4.867  0.0988  0.0588 -0.2472
 7965W        W24099  17.960  17.316  11.689 -0.0137  0.0876  0.1690
 7966W        W24100  10.207  12.610  13.128  0.0088 -0.2389 -0.0933
 7967W        W24101   5.445  15.108   3.640 -0.1572 -0.2446  0.3360
 7968W        W24102  11.373   1.546   0.646  0.0590  0.0856  0.0845
 7969W        W24103   0.218   8.604  15.710  0.2757 -0.0502  0.3395
 7970W        W24104   8.062   9.809  15.381 -0.0167 -0.1753 -0.1122
 7971W        W24105  13.519  14.906   3.642  0.1142 -0.0489 -0.0820
 7972W        W24106   8.668  14.054   4.050 -0.0601 -0.3670  0.1678
 7973W        W24107   7.461   4.014  11.684  0.2638  0.0252 -0.2342
 7974W        W24108   3.979  14.226  13.272  0.2922 -0.0648  0.0970
 7975W        W24109  16.075  16.945   5.666  0.0627  0.3180 -0.2651
 7976W        W24110   9.979  15.696  12.606 -0.0973  0.1118 -0.1834
 7977W        W24111   0.279  12.456   4.429  0.1025  0.0671  0.0444
 7978W        W24112   8.838   6.747   3.469  0.0129  0.0816 -0.0975
 7979W        W24113   2.943   6.171  15.439  0.1340  0.0852 -0.0244
 7980W        W24114   0.948  15.539   1.136  0.0999 -0.1988 -0.0595
 7981W        W24115  12.001  16.803   6.032 -0.0916 -0.1845 -0.0173
 7982W        W24116   5.683  10.652  16.057  0.0763  0.0171 -0.1710
 7983W        W24117   5.063   9.390  13.403 -0.1348  0.0344  0.2310
 7984W        W24118  17.953  14.288  15.196  0.0664 -0.1727  0.1605
 7985W        W24119  11.755   5.669   3.578  0.0359 -0.0469  0.1729
 7986W        W24120   3.142  16.719   2.065 -0.1403  0.0356  0.3182
 7987W        W24121   0.863  17.670   3.667  0.0559 -0.3367  0.2964
 7988W        W24122   4.709   7.870   0.097  0.0814 -0.1377  0.3070
 7989W        W24123  15.813   7.098  14.915  0.1840 -0.0565  0.0194
 7990W        W24124   7.036   3.464   6.137 -0.1153 -0.1139  0.0450
 7991W        W24125   2.788   1.414  12.566 -0.0025 -0.1219  0.1571
 7992W        W24126  12.759   3.324   4.667 -0.1562  0.0335  0.4669
 7993W        W24127   6.321   3.942  12.715 -0.0708  0.1955 -0.1086
 7994W        W24128  15.813   4.550   1.264  0.0768  0.1051  0.1648
 7995W        W24129   7.625   8.528   5.266 -0.1395 -0.3029  0.0203
 7996W        W24130   9.186   1.665  13.808  0.3252  0.0388  0.1308
 7997W        W24131  14.887   9.101   1.949  0.2449  0.2591 -0.0061
 7998W        W24132  14.696   0.648  15.612  0.1986 -0.6208  0.2802
 7999W        W24133  17.734  11.824  15.945  0.0282  0.1425  0.0898
 8000W        W24134  10.079   5.445   1.269  0.1515 -0.1924 -0.0906
 8001W        W24135   5.072  16.104  14.441 -0.2655 -0.0861 -0.1981
 8002W        W24136   1.517   9.642   1.170  0.2829  0.0846 -0.1668
 8003W        W24137   2.259  11.465   1.318 -0.0268 -0.2710 -0.1810
 8004W        W24138   3.655   9.992  11.516 -0.3168 -0.1744  0.1991
 8005W        W24139  15.654  16.061   0.795 -0.3813  0.1350  0.1653
 8006W        W24140   1.365   1.138  11.553 -0.1979 -0.0692  0.0224
 8007W        W24141  10.467  10.303  15.656 -0.3647 -0.2851  0.1096
 8008W        W24142   2.470   9.745   2.357  0.2217 -0.0528  0.1976
 8009W        W24143  17.226   1.305   5.420 -0.1280  0.1890 -0.0434
 8010W        W24144   3.353   2.899   1.284  0.0355  0.0627 -0.1869
 8011W        W24145   9.699  12.750   2.505 -0.1587 -0.4744  0.0535
 8012W        W24146  14.176  16.650   4.973  0.2312 -0.2102 -0.0285
 8013W        W24147  11.538  15.190   0.327 -0.0925 -0.0645  0.0110
 8014W        W24148  13.960   9.406   6.164 -0.1491 -0.0064  0.0644
 8015W        W24149  17.917   2.248  11.351  0.1475  0.0350 -0.0231
 8016W        W24150  14.858   3.195   1.637  0.2035  0.0226 -0.2255
 8017W        W24151   1.173  17.938   0.628  0.0184 -0.0195 -0.0215
 8018W        W24152  14.795   2.638   2.969  0.2096  0.1678 -0.1035
 8019W        W24153   1.240   6.090  16.305 -0.1048  0.0392 -0.3084
 8020W        W24154  17.650   0.637  13.193 -0.0056  0.1285 -0.1814
 8021W        W24155   3.677  17.288   0.386 -0.2417  0.0770  0.1094
 8022W        W24156   9.420   9.577  14.788  0.0329 -0.0424  0.2895
 8023W        W24157  10.354  15.984  12.497 -0.1032  0.1434 -0.1499
 8024W        W24158   1.061  11.958  10.697 -0.2164  0.0590  0.1305
 8025W        W24159   2.629  16.698  10.615 -0.2695  0.0619  0.0873
 8026W        W24160  17.466   4.470  11.468 -0.0366 -0.1434 -0.1402
 8027W        W24161  14.249  17.000  16.181  0.1271 -0.0090 -0.2428
 8028W        W24162   2.984   8.334   0.176 -0.2766  0.2220  0.0933
 8029W        W24163  10.172  13.816   5.890  0.0380 -0.1960  0.1684
 8030W        W24164   0.240   8.102  15.704  0.3134 -0.0358 -0.0674
 8031W        W24165   1.915   2.315   4.902  0.4917  0.3016 -0.0032
 8032W        W24166  17.441  10.629  15.867 -0.3342  0.1151  0.0446
 8033W        W24167   0.380   6.194  13.108  0.0032  0.1158  0.3184
 8034W        W24168  14.227   5.689   1.786  0.0326  0.2520  0.1197
 8035W        W24169   4.067  10.945  11.716  0.1917 -0.3177  0.1810
 8036W        W24170   1.969   4.203  14.327 -0.2342 -0.0985 -0.3153
 8037W        W24171   4.668  14.348   4.555  0.1746  0.1123 -0.0215
 8038W        W24172   8.085   5.892   2.891 -0.0704 -0.0448  0.3308
 8039W        W24173  12.293   0.044  12.244  0.2198  0.0268 -0.3270
 8040W        W24174   3.164  15.021   2.504  0.0008 -0.4211 -0.1734
 8041W        W24175   9.145   9.623  15.188  0.2759 -0.1571  0.0322
 8042W        W24176   8.165  13.993  14.205 -0.1464  0.3327  0.0485
 8043W        W24177  14.789  13.483  13.939  0.1776  0.1303 -0.0928
 8044W        W24178   2.039   5.687  12.488 -0.2535 -0.0061 -0.0218
 8045W        W24179   5.704  11.453  16.388  0.0437 -0.0843  0.2959
 8046W        W24180   5.753  12.776   5.263 -0.0883  0.0455  0.1060
 8047W        W24181  10.207  15.232   1.432  0.1496 -0.0312  0.0262
 8048W        W24182   6.251   6.840   4.541  0.2950 -0.2168 -0.1701
 8049W        W24183   2.985   6.041   5.608  0.1809 -0.0052  0.2276
 8050W        W24184   8.704  14.887   4.422  0.0254 -0.3210 -0.0788
 8051W        W24185   9.285  15.533   6.022 -0.2177 -0.2733 -0.1466
 8052W        W24186  17.623  14.804   0.042  0.2247  0.2031 -0.0019
 8053W        W24187   6.569  17.715   3.600  0.2063 -0.1083  0.0965
 8054W        W24188   3.982   4.933  15.709 -0.0789 -0.1478  0.2392
 8055W        W24189  17.536   4.735   3.170  0.1581 -0.0817  0.2808
 8056W        W24190  15.411  12.681  14.309 -0.2052 -0.1518 -0.0988
 8057W        W24191   9.945  15.074  11.771  0.3684  0.4156 -0.0458
 8058W        W24192   1.536  11.458   1.944 -0.0113  0.2332  0.0389
 8059W        W24193   8.532   9.695   2.075 -0.1665 -0.1290 -0.0869
 8060W        W24194   3.124  10.983   4.926 -0.0945  0.0962 -0.0978
 8061W        W24195   9.108   6.536  14.373 -0.0198 -0.1725  0.0170
 8062W        W24196   5.245   7.686  14.221  0.2510  0.0650 -0.2688
 8063W        W24197  10.200  13.407  13.956  0.0224 -0.3127 -0.1057
 8064W        W24198   6.315  13.394  15.737  0.1241 -0.0572  0.2013
 8065W        W24199  15.450   5.521   1.386 -0.0005 -0.2271  0.2545
 8066W        W24200  16.651   9.654   0.513  0.2882 -0.0197  0.2442
 8067W        W24201   6.089  14.005   1.461  0.3973 -0.1577 -0.4545
 8068W        W24202  10.802   9.818  12.269  0.2564 -0.1328 -0.0669
 8069W        W24203  14.691   4.085  13.724 -0.0550  0.1144  0.0381
 8070W        W24204   8.975   3.065   2.036  0.4219  0.0194  0.1024
 8071W        W24205   1.774   4.184  12.875 -0.0877  0.2481  0.2190
 8072W        W24206   1.156  12.770   4.270 -0.3467  0.1373  0.0316
 8073W        W24207  11.680  13.014   0.856 -0.2055  0.2973  0.2287
 8074W        W24208  12.890   6.672   4.031 -0.3025  0.0156 -0.2511
 8075W        W24209  13.561  15.398  16.588 -0.0898 -0.2928 -0.0821
 8076W        W24210   0.597   8.545  10.748 -0.2263 -0.1258  0.0272
 8077W        W24211  14.662   5.419  13.451  0.2626  0.1347  0.1299
 8078W        W24212  13.081  12.303   3.748 -0.1206  0.0486 -0.1613
 8079W        W24213  14.372  13.570   5.262  0.1302 -0.0621 -0.0763
 8080W        W24214  15.915   6.388  11.349  0.2110 -0.1384 -0.0340
 8081W        W24215  15.102   2.715   1.067 -0.3988 -0.0073 -0.0832
 8082W        W24216  15.028   8.288  13.984  0.0869 -0.0579  0.2381
 8083W        W24217  15.808   7.857  16.110  0.1464  0.1776 -0.1025
 8084W        W24218  10.529   5.921  14.041  0.0575  0.0399  0.4087
 8085W        W24219  11.578  14.070   2.589 -0.3346 -0.0333  0.1822
 8086W        W24220  16.470  17.502   2.497  0.5034  0.2056  0.1103
 8087W        W24221   4.958   8.326   3.287  0.1072  0.0211  0.0420
 8088W        W24222   0.330  13.284   0.514 -0.1058  0.2223 -0.2242
 8089W        W24223  13.793   0.757   3.746  0.1406  0.0381  0.0272
 8090W        W24224  15.388  12.493  16.263 -0.0756  0.0325 -0.1112
 8091W        W24225   4.046   7.805  15.476  0.1007 -0.1666 -0.1800
 8092W        W24226   9.146   7.688  11.810  0.6071  0.1231 -0.3983
 8093W        W24227  14.697   5.246  16.615  0.1078 -0.0688  0.2120
 8094W        W24228  14.278   2.044   1.066 -0.1562 -0.0007  0.0597
 8095W        W24229   7.034  16.619   0.104  0.0421 -0.3423 -0.0031
 8096W        W24230  16.408   8.963   5.713 -0.1018  0.0619  0.2217
 8097W        W24231   5.400   7.013   5.217  0.3074  0.2726  0.2055
 8098W        W24232  12.087   4.700   5.103 -0.0870  0.2015 -0.0612
 8099W        W24233   3.292  17.595  12.530  0.2294  0.3694 -0.0116
 8100W        W24234   6.505  12.424   1.385  0.2806 -0.1071  0.0819
 8101W        W24235  12.947  16.592   4.437 -0.2445 -0.2846 -0.0784
 8102W        W24236   2.502  15.241  12.288  0.1484  0.0852 -0.0755
 8103W        W24237   6.511  12.025  11.489 -0.0345  0.1820 -0.3907
 8104W        W24238   4.971   9.832   6.597 -0.1674 -0.0701 -0.1838
 8105W        W24239  17.800  12.035  16.440  0.3537  0.0385  0.0485
 8106W        W24240  13.068   1.211   2.700 -0.1892  0.1117  0.1105
 8107W        W24241   0.555   2.603  13.402 -0.1586 -0.0384 -0.3274
 8108W        W24242  15.622  11.462   2.782  0.0644  0.0189 -0.0467
 8109W        W24243   4.210   8.929   5.163  0.2752  0.0289 -0.1224
 8110W        W24244   8.170   6.866  13.359  0.0249 -0.0920 -0.0043
 8111W        W24245  14.972   8.580   3.019  0.2591  0.2555 -0.0753
 8112W        W24246   6.018  11.432  15.971 -0.0962 -0.0100  0.4421
 8113W        W24247   3.061  11.817  11.517 -0.0766  0.0316  0.1576
 8114W        W24248   5.813   0.508  13.249  0.2090 -0.3714  0.1790
 8115W        W24249  10.901  12.841   4.560 -0.0935 -0.0561 -0.2477
 8116W        W24250   6.294   8.224   1.027  0.0619  0.4779 -0.0465
 8117W        W24251   9.834  15.839   0.758  0.2271  0.1411 -0.1193
 8118W        W24252   3.318   2.732   2.456  0.1376  0.2268 -0.0956
 8119W        W24253  14.810  15.067  12.836 -0.0072  0.0736 -0.5407
 8120W        W24254   2.140   9.164   1.627 -0.0298 -0.1240  0.0588
 8121W        W24255  15.845  11.211   0.404  0.1260  0.2684 -0.0501
 8122W        W24256  13.939   8.348  16.502 -0.1278  0.1813  0.0757
 8123W        W24257   3.307   6.331   2.321 -0.0338  0.0842  0.1574
 8124W        W24258  10.682   5.088   3.799 -0.3216 -0.0181 -0.1786
 8125W        W24259  12.068  13.842   1.552 -0.4365  0.0992  0.3626
 8126W        W24260   1.673  17.129  13.803 -0.1910 -0.2390 -0.0797
 8127W        W24261   5.718  10.417  11.082  0.1269  0.0368 -0.0614
 8128W        W24262  14.795   9.997  12.388  0.0389 -0.0312 -0.0024
 8129W        W24263   4.839   0.934  13.619  0.0268 -0.4499 -0.0583
 8130W        W24264  16.449  17.563  15.359 -0.1336  0.0410  0.1832
 8131W        W24265  13.147   7.453   2.023  0.1449 -0.1792 -0.0650
 8132W        W24266  11.972  11.769   4.565  0.0014 -0.0474  0.2098
 8133W        W24267   3.478   9.820   2.615 -0.0372  0.3587 -0.1488
 8134W        W24268  15.639   9.012   1.477  0.0974 -0.1729  0.2793
 8135W        W24269  13.946   8.586   4.634  0.0919  0.2095  0.0542
 8136W        W24270   5.908   5.814  11.469  0.3782  0.1805  0.0183
 8137W        W24271  15.309  10.240   3.457  0.0992  0.1740 -0.0759
 8138W        W24272  15.473   0.303   1.250  0.0479  0.1253 -0.1709
 8139W        W24273   0.547  16.015  16.577 -0.3201 -0.0487  0.2854
 8140W        W24274   7.293   7.386  13.287 -0.3674  0.1305  0.1868
 8141W        W24275  10.327  13.412  13.474 -0.0666 -0.1237 -0.0371
 8142W        W24276   6.730  13.946  11.502 -0.0887  0.1252  0.1192
 8143W        W24277  12.928   8.244  11.970  0.2691 -0.1224  0.3534
 8144W        W24278   3.633   9.295   2.804 -0.0151  0.1534  0.1027
 8145W        W24279  11.881   0.644  13.111 -0.0786 -0.0918 -0.3721
 8146W        W24280   6.448   3.144  12.950 -0.0643  0.1603  0.0051
 8147W        W24281  10.552  15.092   5.276  0.0038  0.1498  0.1796
 8148W        W24282   9.093   2.121   4.729 -0.0076 -0.3028  0.0422
 8149W        W24283  12.972   1.306  11.420  0.0322  0.0854 -0.2295
 8150W        W24284   0.758   5.057  12.556  0.0431 -0.1438  0.0136
 8151W        W24285   5.296   9.081   0.818  0.1282 -0.3089 -0.0787
 8152W        W24286  10.899   0.252  13.578 -0.0184  0.2456 -0.1764
 8153W        W24287   8.932   2.911  15.027 -0.1231  0.3045 -0.0190
 8154W        W24288  12.184   9.723  10.226 -0.0914  0.1078  0.0803
 8155W        W24289   6.595   0.685   3.589  0.0092  0.3741 -0.2309
 8156W        W24290   7.096   9.206   0.152 -0.2626  0.0853  0.0818
 8157W        W24291   4.358   7.104   5.313  0.0400 -0.3088 -0.0382
 8158W        W24292   9.511   0.289   2.530  0.2296 -0.1109  0.0816
 8159W        W24293   1.698  14.322  14.006 -0.2707  0.0659  0.0934
 8160W        W24294  17.692   3.691   2.942  0.0116 -0.0298 -0.0930
 8161W        W24295   1.570   4.225   1.829  0.1106 -0.1191  0.1790
 8162W        W24296   3.880  10.643   1.710 -0.0690 -0.0508  0.1524
 8163W        W24297  16.152   1.793   3.567  0.0127  0.0452  0.0380
 8164W        W24298   2.213  13.821   4.386 -0.0624 -0.1393  0.0727
 8165W        W24299  16.213   9.033  16.532 -0.2082 -0.0208  0.0391
 8166W        W24300   5.394   2.462  13.827  0.4039 -0.0648  0.0256
 8167W        W24301  15.574   7.674  15.307 -0.0438  0.0691 -0.0598
 8168W        W24302  10.565  12.085  14.984  0.0577 -0.0287  0.1278
 8169W        W24303   8.792  15.788   4.008  0.1477 -0.0567 -0.1918
 8170W        W24304   9.025   0.652  13.165 -0.1459 -0.0171  0.0013
 8171W        W24305  13.534  16.204  13.589  0.1299 -0.2454 -0.1131
 8172W        W24306  10.607   1.491  13.915 -0.1266  0.1968 -0.1490
 8173W        W24307  15.472   2.383   1.580  0.0179  0.0146 -0.1752
 8174W        W24308  12.264  16.675  14.784 -0.0840 -0.0030 -0.0601
 8175W        W24309   9.604  11.280  11.799  0.0563 -0.1817 -0.0005
 8176W        W24310   3.152  13.311   1.090 -0.2273 -0.2055  0.1388
 8177W        W24311   4.011  13.594  12.315  0.1998  0.1046  0.1550
 8178W        W24312  15.229  15.280  14.650 -0.1739  0.0991  0.0283
 8179W        W24313  14.927  15.845   5.829  0.2093  0.0679 -0.2161
 8180W        W24314   4.448   0.422  11.750 -0.1586 -0.1932  0.0180
 8181W        W24315  15.759  14.457  14.718  0.2354  0.0755  0.0568
 8182W        W24316   6.162  11.776  16.420  0.1169  0.3279  0.3109
 8183W        W24317   6.023  15.927  13.477 -0.1888 -0.0577  0.1193
 8184W        W24318  12.023   9.449   4.148 -0.1811 -0.0958  0.2261
 8185W        W24319  13.022   0.366  15.206 -0.0602  0.3518 -0.2682
 8186W        W24320   2.318  17.491  13.695 -0.0390 -0.0547  0.1377
 8187W        W24321  15.468  11.229   3.192  0.1038 -0.1972  0.0379
 8188W        W24322   5.482  13.761   4.718  0.0026 -0.3525 -0.0243
 8189W        W24323   7.837  16.954  13.065  0.0277 -0.0051  0.1146
 8190W        W24324  12.942   7.555  14.307 -0.3388 -0.0151 -0.0770
 8191W        W24325  12.548   8.486   3.035  0.0444  0.1640 -0.0008
 8192W        W24326   6.919   8.682  16.093  0.1909  0.2226 -0.1148
 8193W        W24327  17.723   2.581   3.182 -0.2612  0.1142 -0.1441
 8194W        W24328   7.543  14.462  10.761  0.0163 -0.2403  0.2900
 8195W        W24329  13.586   5.584  15.636  0.3374 -0.0423  0.2140
 8196W        W24330  12.289   8.328  12.082  0.0186  0.0387  0.0496
 8197W        W24331  15.794  10.140  12.171 -0.5106 -0.1428  0.0375
 8198W        W24332  14.694   4.179  12.148  0.2467  0.2330  0.0303
 8199W        W24333   3.812  11.100  16.338  0.0318 -0.0256 -0.3092
 8200W        W24334   7.825   5.941   4.630 -0.2033  0.3481  0.0311
 8201W        W24335   0.708   2.754   5.327  0.1228 -0.0034  0.0420
 8202W        W24336   7.744   5.360  11.024 -0.0165 -0.0505  0.1215
 8203W        W24337  16.160  16.789  15.025 -0.0554 -0.1325 -0.2155
 8204W        W24338   0.349   7.211   4.116 -0.1700 -0.3386 -0.2601
 8205W        W24339   9.482   4.949  11.982  0.1299  0.0708 -0.2160
 8206W        W24340  11.888   1.489   0.022 -0.2472  0.1595 -0.0910
 8207W        W24341   1.947  11.982  12.390 -0.0164 -0.3525 -0.0537
 8208W        W24342   3.589   7.161  14.893 -0.1261 -0.2600 -0.3512
 8209W        W24343   2.244  15.025   2.107 -0.0439 -0.2293 -0.1847
 8210W        W24344   5.587  11.114  15.906 -0.0807 -0.1642  0.0649
 8211W        W24345  14.641   2.238  13.587 -0.0914  0.2139 -0.1084
 8212W        W24346   4.331   2.646  16.227  0.2969 -0.0151  0.0036
 8213W        W24347   7.301  11.484   5.746 -0.0902  0.2043  0.1251
 8214W        W24348   5.783  15.133   4.325 -0.3502  0.1185  0.2731
 8215W        W24349  11.324   5.516  15.255  0.2849 -0.0568 -0.2479
 8216W        W24350   4.385   0.956  15.794  0.1520 -0.0634  0.2737
 8217W        W24351  16.825  16.112   4.477 -0.0406  0.2018 -0.1901
 8218W        W24352  10.586   6.940  13.228  0.0010 -0.0585  0.2656
 8219W        W24353  17.019  11.258  13.329  0.0867  0.0338 -0.2695
 8220W        W24354   9.906   8.886  16.631 -0.1770  0.3921  0.2740
 8221W        W24355   2.263  15.338   3.482 -0.1700  0.1406  0.0967
 8222W        W24356   4.143   5.764   4.716  0.1535 -0.0584 -0.4342
 8223W        W24357  16.395   5.939   1.161  0.0567 -0.1358  0.1697
 8224W        W24358   0.771   8.207   2.767 -0.1132 -0.1129  0.0179
 8225W        W24359   2.782   7.842  16.661 -0.2121 -0.2240  0.0373
 8226W        W24360   2.596  15.103  13.780 -0.2171 -0.1322 -0.0273
 8227W        W24361  15.845   7.237   1.268  0.0209  0.1404  0.1901
 8228W        W24362  16.013  12.339  11.645 -0.1976  0.0008  0.0757
 8229W        W24363   5.637   9.725   5.009  0.3458  0.1304 -0.2122
 8230W        W24364   5.799   9.287  13.942  0.0463 -0.1153  0.1433
 8231W        W24365   6.318  15.755  12.622  0.2115 -0.0469  0.0517
 8232W        W24366   4.259   7.179   3.241  0.0594 -0.1354 -0.3657
 8233W        W24367  16.144  13.133   1.280  0.1001 -0.2630 -0.0848
 8234W        W24368   1.096   9.154   1.937  0.0215 -0.1283 -0.0452
 8235W        W24369   5.166   0.683   2.963 -0.1065 -0.2150  0.2126
 8236W        W24370  17.885   8.993   3.770 -0.1390  0.1952 -0.0364
 8237W        W24371  13.369  10.895  12.770  0.0858  0.0195 -0.0439
 8238W        W24372   1.412   7.221   3.949 -0.0313 -0.0584  0.0008
 8239W        W24373   0.176   9.762   0.657  0.1063  0.0279 -0.1033
 8240W        W24374   1.978  10.810  13.322  0.0723 -0.0975 -0.2557
 8241W        W24375   3.398   0.604   4.178  0.0816  0.0613 -0.3080
 8242W        W24376   7.752   4.513   3.042  0.1167  0.0369 -0.1100
 8243W        W24377  17.688   9.409  11.580 -0.2147 -0.2004 -0.2597
 8244W        W24378  14.152  15.352  13.504 -0.2133 -0.1187  0.2969
 8245W        W24379   6.067  10.969  11.798  0.3161 -0.0419  0.1522
 8246W        W24380   3.641   1.589  11.996  0.2391  0.0187  0.1474
 8247W        W24381  12.963  11.545  14.403 -0.2775  0.2206  0.2412
 8248W        W24382   2.974   5.053   5.727  0.0134 -0.1322  0.0721
 8249W        W24383   6.326   1.571   2.780  0.0845  0.0183  0.0747
 8250W        W24384   3.700   4.315   2.995 -0.1723  0.3917  0.1417
 8251W        W24385  14.768  12.011   3.081 -0.0274 -0.4281 -0.1290
 8252W        W24386   3.885   4.230   0.140  0.1350 -0.0141  0.0324
 8253W        W24387  17.361  11.296   0.458  0.1882  0.4241 -0.0308
 8254W        W24388   5.537   5.479  11.449  0.1774  0.2150 -0.1389
 8255W        W24389  11.790  13.464   0.839  0.3019  0.0259  0.1882
 8256W        W24390   7.119   1.066  16.221  0.0079 -0.1342 -0.0267
 8257W        W24391   6.236  13.128   4.619 -0.3756  0.1823 -0.1202
 8258W        W24392   2.625   3.270   5.128  0.2297 -0.0309  0.4267
 8259W        W24393   3.864   2.570  15.934 -0.1427  0.0145 -0.0044
 8260W        W24394   6.164  16.451  11.302 -0.3527  0.0656  0.1588
 8261W        W24395   5.484  13.731  15.488 -0.1625 -0.4587  0.1577
 8262W        W24396   5.553   3.782   3.846 -0.2633  0.0129  0.0941
 8263W        W24397   0.466  13.171   4.371  0.0040  0.2156  0.2199
 8264W        W24398  14.585   9.023   1.536  0.0599  0.1326 -0.0059
 8265W        W24399  17.319   3.887  16.453  0.0146 -0.1889 -0.0485
 8266W        W24400   0.115   0.875   2.614 -0.2528  0.0660  0.0597
 8267W        W24401  14.151   5.129   0.860  0.2831  0.0005 -0.0855
 8268W        W24402  13.214  14.221   1.025  0.1049  0.0954  0.1074
 8269W        W24403  15.422   6.127   3.203  0.1136 -0.2062 -0.2686
 8270W        W24404  11.834  15.636   5.524  0.1637  0.0794 -0.0054
 8271W        W24405   6.338   7.372  14.434 -0.0309 -0.0034  0.0031
 8272W        W24406  12.126  14.476   3.437  0.2016  0.2857 -0.1789
 8273W        W24407   5.807  14.872   0.993 -0.2273 -0.0688  0.1663
 8274W        W24408   2.250   3.238   4.799 -0.3124 -0.0867 -0.1801
 8275W        W24409  17.004  17.773   0.567  0.3240  0.0086 -0.0977
 8276W        W24410  10.679   6.293   3.476 -0.3108  0.1694 -0.1197
 8277W        W24411   6.513  11.744  14.958 -0.2106 -0.2047  0.1975
 8278W        W24412   3.174   4.498   2.678  0.3816 -0.0185  0.2421
 8279W        W24413   6.911   3.436   0.565  0.1828 -0.0160 -0.0710
 8280W        W24414   5.764   3.437   4.874  0.0461  0.1687 -0.0509
 8281W        W24415   9.882  11.169  13.806  0.1697  0.0815 -0.0367
 8282W        W24416  14.663   7.105  16.612 -0.1806  0.0545 -0.1439
 8283W        W24417   1.581  16.396  15.052 -0.3225  0.0312  0.0526
 8284W        W24418  12.006  10.575  15.962 -0.1174  0.0774 -0.0919
 8285W        W24419  16.671  12.335   3.332 -0.0633  0.3708  0.0743
 8286W        W24420  13.093  16.906  15.505  0.0531  0.0542 -0.1083
 8287W        W24421  14.576   4.605   1.920 -0.1455 -0.0716  0.1487
 8288W        W24422   6.695  13.139   4.428 -0.1828  0.2254  0.2116
 8289W        W24423   8.004   2.394  15.514  0.0146 -0.2583 -0.0552
 8290W        W24424  15.921   0.575  15.443 -0.0361 -0.1499  0.0909
 8291W        W24425   4.318   5.346   1.143 -0.1670 -0.0131  0.1382
 8292W        W24426  17.154  11.015  16.225  0.1588  0.1751  0.0993
 8293W        W24427   7.151  15.554  13.964 -0.0364  0.2509  0.2426
 8294W        W24428  11.991   7.035   0.638  0.1917  0.0711 -0.1292
 8295W        W24429   6.562   7.821  15.664  0.2961 -0.0858  0.0034
 8296W        W24430  11.412   5.454   2.004 -0.0546  0.0312 -0.3698
 8297W        W24431   7.950  17.072   0.292  0.0857 -0.0807  0.1294
 8298W        W24432  11.804   5.112  11.757  0.1631 -0.1015 -0.0153
 8299W        W24433   6.650  10.499   3.072 -0.2518  0.0782 -0.1165
 8300W        W24434   8.432   6.514   5.645  0.0283  0.0021 -0.1531
 8301W        W24435  15.856   4.337  16.547 -0.0251 -0.0497  0.0552
 8302W        W24436   6.734  10.530   5.271  0.4222 -0.3310  0.1672
 8303W        W24437   8.782  17.551  15.004  0.1445 -0.1181  0.0185
 8304W        W24438  13.468  12.176   3.501 -0.0920  0.2416 -0.0513
 8305W        W24439  11.822  14.541   4.434 -0.1930 -0.0384  0.0747
 8306W        W24440   7.917  12.192   5.165  0.0579 -0.4151  0.2270
 8307W        W24441  12.771  10.370  11.338 -0.3021 -0.2997  0.0082
 8308W        W24442  15.322   2.641  11.160 -0.2305 -0.2919 -0.1300
 8309W        W24443   3.339  16.654   5.290 -0.1441 -0.0562  0.2379
 8310W        W24444   1.649   3.915  15.618 -0.2167  0.0697 -0.1718
 8311W        W24445   7.557  10.319  15.599 -0.0955 -0.1066 -0.0137
 8312W        W24446  16.170   2.380  13.983 -0.0259  0.0542  0.3431
 8313W        W24447   4.419   8.101  13.371 -0.0581 -0.0765 -0.0110
 8314W        W24448  13.745  17.158   5.621  0.1322  0.0548  0.1803
 8315W        W24449   2.627   9.279   0.440  0.0120  0.0005  0.3405
 8316W        W24450  15.439   7.680   4.361  0.0930 -0.1393 -0.1034
 8317W        W24451   7.050  12.468  12.167 -0.1303 -0.0173 -0.3027
 8318W        W24452   8.649  17.419   5.410  0.1417 -0.0020  0.0780
 8319W        W24453   8.944   7.525  16.127 -0.2153  0.0593  0.2831
 8320W        W24454   5.941   4.360   3.508  0.0404 -0.3674  0.1581
 8321W        W24455  17.667   6.262  12.277  0.0115  0.0447 -0.1166
 8322W        W24456  15.201  16.323   2.989 -0.2672  0.0715 -0.0994
 8323W        W24457  17.054  14.164  12.080  0.0645 -0.1645 -0.0116
 8324W        W24458   6.209   7.650  13.926  0.4290 -0.1223  0.3338
 8325W        W24459  17.885   9.472   0.968  0.1436  0.1945 -0.3506
 8326W        W24460  16.367  14.018  11.905 -0.1916 -0.2054  0.0299
 8327W        W24461   2.916   9.706   0.306 -0.0812  0.0311  0.0038
 8328W        W24462   5.301   0.389  11.348  0.0201  0.0036  0.1602
 8329W        W24463   4.577   2.543  12.356 -0.2973  0.0637 -0.0410
 8330W        W24464  15.740   9.720   0.709  0.1945 -0.2070  0.4973
 8331W        W24465  11.143  10.067   1.409  0.0520  0.0180  0.2248
 8332W        W24466   0.271   7.791  16.230 -0.0039 -0.1782 -0.1420
 8333W        W24467  14.266   6.326   0.510  0.2081  0.2373  0.4032
 8334W        W24468   1.782   3.515  15.048 -0.0126 -0.2149 -0.0856
 8335W        W24469  10.212  14.753   1.172 -0.0811  0.1911  0.0866
 8336W        W24470  10.083  15.100  12.960  0.1439  0.2047  0.2972
 8337W        W24471  10.142  14.371  15.795  0.1007 -0.3017 -0.1712
 8338W        W24472  16.915  10.564   0.616 -0.1358 -0.0572  0.0590
 8339W        W24473   9.031  14.795  14.887 -0.2076  0.2656  0.0900
 8340W        W24474   1.171  17.922  15.632  0.3105  0.2258  0.1926
 8341W        W24475  17.496   3.936   0.939 -0.0913 -0.2826  0.1313
 8342W        W24476  12.038   7.967   2.047  0.3768 -0.2626  0.1252
 8343W        W24477   5.653   2.264  14.633 -0.1769 -0.3273 -0.0393
 8344W        W24478   9.221   3.939   3.748  0.2122  0.1791 -0.1335
 8345W        W24479  13.195  17.712  16.266 -0.0705 -0.2065  0.0353
 8346W        W24480  11.347   1.706   5.112  0.0074  0.1695 -0.1408
 8347W        W24481   0.635  12.911  14.388  0.3176 -0.0889  0.3686
 8348W        W24482  11.554  12.692   0.499  0.0788 -0.4071  0.1532
 8349W        W24483  11.897   9.902  11.300 -0.2661  0.0000 -0.2556
 8350W        W24484  14.290   8.798  12.379 -0.2293  0.1582  0.1383
 8351W        W24485  13.205   4.666  16.106 -0.0952  0.0753  0.0155
 8352W        W24486   4.898   0.938  14.643  0.1406  0.1272 -0.1193
 8353W        W24487   7.598   7.675  16.464  0.1247 -0.1331  0.1390
 8354W        W24488  13.646   8.079   5.557 -0.1038  0.0912  0.0494
 8355W        W24489  13.423  14.262   2.345  0.1253 -0.2336  0.1626
 8356W        W24490  14.399   1.543   0.894  0.0096  0.4139 -0.2192
 8357W        W24491  15.515   5.746   2.271  0.3554 -0.0169  0.0728
 8358W        W24492   4.542  14.102  16.012 -0.3297 -0.1310  0.0393
 8359W        W24493   6.969  12.506  11.655 -0.0848  0.1867  0.0277
 8360W        W24494   9.605   0.032  11.988  0.0745  0.0777 -0.2764
 8361W        W24495   9.447   2.883   2.103  0.0070  0.1912 -0.1724
 8362W        W24496   5.348  16.749   2.900  0.2025  0.3004  0.0997
 8363W        W24497   4.896   3.639  12.766 -0.4189  0.2656 -0.2529
 8364W        W24498  13.238   8.829   0.958 -0.1271 -0.1276  0.1085
 8365W        W24499  13.098  10.563   0.626  0.3897 -0.3028 -0.0163
 8366W        W24500   6.827   6.945   0.861 -0.0282 -0.1487  0.1236
 8367W        W24501   8.697   1.872   1.138 -0.2137  0.2719  0.0985
 8368W        W24502  17.747  13.483  16.545 -0.2077  0.1044  0.3398
 8369W        W24503  17.428   2.066  12.653 -0.0812 -0.4065  0.2128
 8370W        W24504   2.693  12.439  11.855  0.3060 -0.0303  0.0100
 8371W        W24505   9.001   3.210   0.629 -0.0136 -0.2604 -0.2861
 8372W        W24506   6.253  12.344  12.703 -0.0577 -0.0838 -0.0035
 8373W        W24507   5.296  17.196   2.656  0.0074 -0.0234 -0.1825
 8374W        W24508   8.038   0.372   0.504  0.4525 -0.1326  0.1634
 8375W        W24509  15.132   5.223   2.135  0.0268 -0.1690 -0.0837
 8376W        W24510   5.413  15.587   0.923  0.2289  0.0483  0.1790
 8377W        W24511   7.684   9.241   1.850  0.1957  0.0706 -0.2128
 8378W        W24512  12.398   9.960  14.292  0.4034  0.0778  0.0951
 8379W        W24513   6.090  13.887  14.438  0.1337 -0.3112 -0.0456
 8380W        W24514   2.296   0.469  16.407 -0.2664 -0.2122  0.3441
 8381W        W24515   3.175  12.661   2.762  0.0768  0.3275 -0.3239
 8382W        W24516   4.135  10.957  15.805 -0.0664  0.3149 -0.0737
 8383W        W24517   4.265  12.738   5.002 -0.0242 -0.3402 -0.2240
 8384W        W24518   7.932   1.045  11.569 -0.1968 -0.0436 -0.0143
 8385W        W24519   5.205   1.632   0.177  0.2018 -0.0601  0.2662
 8386W        W24520  14.368   9.068   2.049 -0.1090 -0.3201 -0.5132
 8387W        W24521   0.680   3.287  14.275  0.2115  0.3652 -0.0122
 8388W        W24522   6.477   3.816  16.039 -0.1745  0.0210  0.2011
 8389W        W24523   7.747  15.076  15.360 -0.3580  0.2253  0.0859
 8390W        W24524   8.591   2.167   4.622  0.2614  0.1501 -0.0743
 8391W        W24525  12.503  10.537   1.678  0.2449  0.1460 -0.2631
 8392W        W24526   3.847  13.847   6.342 -0.2424  0.1707  0.2829
 8393W        W24527   0.430  11.907  15.168  0.5979 -0.2539 -0.2670
 8394W        W24528  10.486   8.729  13.759 -0.2406 -0.2439 -0.1946
 8395W        W24529  17.643   1.940  13.095 -0.1088  0.1321  0.0825
 8396W        W24530  14.861  12.135   5.636  0.2005  0.1877 -0.1908
 8397W        W24531   6.210  16.493   5.646 -0.4281 -0.2351  0.3089
 8398W        W24532  13.844   3.615   2.783  0.0645 -0.1567  0.2261
 8399W        W24533   3.922   3.864  13.700  0.1771  0.4443  0.0518
 8400W        W24534   0.915  14.670   1.536 -0.2980 -0.1049 -0.0897
 8401W        W24535  17.947  10.158  10.751 -0.0044 -0.0127 -0.0570
 8402W        W24536   7.442   9.326  12.684 -0.0306 -0.0387 -0.2067
 8403W        W24537  15.343   2.368  12.870  0.1165 -0.0153  0.1827
 8404W        W24538   4.245   5.733  13.348  0.1167  0.2704 -0.2597
 8405W        W24539   3.646   8.550  16.560  0.2226  0.0686 -0.0845
 8406W        W24540  17.012   4.171   1.721  0.4682 -0.1120 -0.1981
 8407W        W24541  13.807   8.362  12.196 -0.0188  0.4659  0.0471
 8408W        W24542   1.891   2.276  10.265 -0.0069  0.5265 -0.0444
 8409W        W24543  14.772   0.152   5.135 -0.0582 -0.0390 -0.0791
 8410W        W24544   0.860  11.924   4.825  0.1823 -0.1404  0.2334
 8411W        W24545  15.498   6.275   2.431  0.2037  0.2312 -0.3153
 8412W        W24546   3.017  15.273   0.123  0.0384  0.1087 -0.0131
 8413W        W24547   5.503   2.008  16.201 -0.0016 -0.0839  0.2360
 8414W        W24548   1.789  13.832   5.721 -0.1640 -0.0230 -0.2319
 8415W        W24549   0.725  17.897  11.410  0.1344  0.0824  0.0644
 8416W        W24550  14.503   6.461  13.611  0.2158 -0.1376 -0.0655
 8417W        W24551   1.617   0.031  13.444 -0.0811 -0.1372  0.2284
 8418W        W24552   5.889   5.444   2.352  0.1270  0.1551 -0.4077
 8419W        W24553   2.650  14.175  13.204 -0.1896  0.1329  0.0726
 8420W        W24554   2.025   7.950  15.709  0.0116 -0.0152  0.0961
 8421W        W24555   8.939   4.504   2.680  0.1999 -0.0834 -0.3713
 8422W        W24556   9.246   4.438  16.256 -0.1661  0.0540 -0.5405
 8423W        W24557   8.542   9.281  15.313 -0.0302  0.0389  0.0712
 8424W        W24558  11.232   5.076  14.593 -0.0579  0.0815  0.1454
 8425W        W24559  16.439   0.570   1.167  0.2358  0.3595 -0.0709
 8426W        W24560  12.362   4.687  15.352 -0.2951 -0.3435 -0.0610
 8427W        W24561  10.799  15.277   2.023 -0.1308  0.3043 -0.1943
 8428W        W24562   0.181  17.765  14.719 -0.3463 -0.1417  0.2371
 8429W        W24563  11.114  10.879  15.434 -0.2124  0.0334  0.2052
 8430W        W24564   3.241  15.759   0.993  0.0506  0.6224 -0.0390
 8431W        W24565   1.457   0.385  15.440 -0.1455  0.1952  0.0288
 8432W        W24566   3.618   3.481  15.791 -0.0498 -0.2553  0.1522
 8433W        W24567   1.262  17.502  13.845 -0.1138  0.0852  0.0652
 8434W        W24568  11.090  17.476   3.864  0.0765  0.0854 -0.1821
 8435W        W24569  16.571  15.316  15.503 -0.0550 -0.0059  0.3580
 8436W        W24570  16.606   1.461   2.866 -0.0218 -0.1422  0.0252
 8437W        W24571   3.901  12.748  12.684  0.1883 -0.1246  0.0010
 8438W        W24572   9.383   9.607   2.534 -0.2651  0.1290  0.2116
 8439W        W24573   1.241  11.747   2.708  0.1621 -0.0633  0.1092
 8440W        W24574  13.514  11.080  11.561 -0.0895  0.2380 -0.2369
 8441W        W24575  12.271   7.140   2.287 -0.0449 -0.0444  0.0130
 8442W        W24576   6.426  15.847   4.246  0.0946 -0.0640  0.2380
 8443W        W24577   0.918  16.798   3.558 -0.1042 -0.1459 -0.0715
 8444W        W24578   6.041   8.695  15.008  0.2869  0.0567  0.1390
 8445W        W24579  16.850  11.493  15.776 -0.1099 -0.0943  0.0654
 8446W        W24580   0.150  11.809  15.589 -0.3226  0.0135  0.0324
 8447W        W24581   4.715  17.050  15.814  0.0854  0.1946 -0.0526
 8448W        W24582   9.919   1.128  16.442  0.0089  0.1399  0.1733
 8449W        W24583   6.982   9.309  11.383 -0.4910 -0.0224 -0.1260
 8450W        W24584   4.317   7.922   3.968 -0.2170  0.2015  0.4271
 8451W        W24585   6.459  15.777  11.016 -0.0608  0.1939  0.0558
 8452W        W24586  14.538   2.717  16.246  0.0861 -0.0390 -0.1652
 8453W        W24587  10.376  15.359   2.407 -0.0127 -0.0920  0.0287
 8454W        W24588   5.528   2.156  15.104 -0.1660 -0.0036  0.0832
 8455W        W24589  12.091   2.729  12.290  0.0057 -0.1372 -0.1800
 8456W        W24590  13.852  15.090   3.243 -0.0881  0.1701  0.1616
 8457W        W24591   2.304  14.237   5.284  0.1492 -0.1057  0.1018
 8458W        W24592  16.635  13.442   1.721  0.0650  0.1552  0.2918
 8459W        W24593  12.028   3.576  11.875 -0.1120  0.0126  0.0289
 8460W        W24594  17.572  11.823   5.301 -0.0321 -0.1372 -0.0897
 8461W        W24595   2.732  12.688   4.644 -0.0583  0.1747  0.0716
 8462W        W24596  14.368  13.722   5.962  0.3106 -0.2670  0.2325
 8463W        W24597   7.053   1.519   5.338 -0.2729 -0.0252  0.0246
 8464W        W24598  12.538  15.676  16.101 -0.1913  0.1646  0.1047
 8465W        W24599   3.705   0.715   0.653 -0.0758 -0.0259  0.1137
 8466W        W24600   3.548  15.698   2.954 -0.2685 -0.3526 -0.0326
 8467W        W24601  14.246   1.888   1.585 -0.0308 -0.0584 -0.3106
 8468W        W24602  14.275   3.401   5.969  0.0412 -0.2862 -0.2695
 8469W        W24603   8.181  12.441  15.082  0.0710 -0.1710 -0.3679
 8470W        W24604   9.947  15.385  16.143 -0.0574  0.1603  0.0733
 8471W        W24605   9.462  10.046  15.077  0.2089  0.1637  0.0827
 8472W        W24606  14.415   4.514  12.411  0.3497 -0.2060  0.1300
 8473W        W24607   7.942   1.480   1.757  0.1144 -0.1426  0.1651
 8474W        W24608   1.759  15.531  15.568 -0.0995 -0.0693 -0.0803
 8475W        W24609   7.758   2.897  12.439  0.1701 -0.0603  0.0182
 8476W        W24610   7.775  10.463   3.623  0.0985  0.0147 -0.0876
 8477W        W24611   0.133  13.075  15.746 -0.0505  0.0258 -0.1342
 8478W        W24612  12.068  12.447  14.592  0.1750  0.2826 -0.1974
 8479W        W24613   7.099  12.225   4.707  0.0548 -0.0862  0.1394
 8480W        W24614  11.939   9.418  16.661 -0.0839 -0.2837 -0.2317
 8481W        W24615   7.354   1.546  12.405  0.0140 -0.2154  0.1710
 8482W        W24616   1.302   8.324  15.195 -0.2214  0.0320 -0.0872
 8483W        W24617  14.758  17.612   3.994  0.1283  0.0315 -0.0608
 8484W        W24618  12.439  14.799   3.847  0.0918  0.0183  0.0118
 8485W        W24619   7.845   3.808  14.729 -0.0895  0.0398  0.1497
 8486W        W24620  12.305   1.503  15.450  0.1371 -0.2545 -0.0142
 8487W        W24621  16.550   8.736  14.295  0.0604 -0.1566  0.3870
 8488W        W24622  14.010   8.548   0.625  0.0335  0.1348  0.0474
 8489W        W24623   3.359   9.161   4.447  0.1254  0.2322 -0.3209
 8490W        W24624   5.524  17.510  12.491 -0.3093  0.1275 -0.1109
 8491W        W24625  13.844  15.919  15.913 -0.2838 -0.2125 -0.0178
 8492W        W24626  11.550   3.079  12.451 -0.1374 -0.0995  0.0824
 8493W        W24627  13.225   4.564  12.159 -0.1221  0.2134  0.2083
 8494W        W24628  14.948   7.788  13.963 -0.2716 -0.0748  0.1590
 8495W        W24629  11.983  12.210  13.607  0.1510 -0.1745  0.1029
 8496W        W24630   4.517   9.844  14.009 -0.1451 -0.2068 -0.0100
 8497W        W24631  17.941   1.478  15.441 -0.0797 -0.1024  0.0338
 8498W        W24632  16.516   5.667   4.622 -0.1149 -0.2229  0.0152
 8499W        W24633  15.027  16.028   0.751  0.0689 -0.3068  0.0067
 8500W        W24634  10.380   4.653  11.976 -0.0605 -0.2120 -0.3332
 8501W        W24635   2.683  11.324   0.378  0.1863  0.4379 -0.0127
 8502W        W24636   2.489   3.305  12.277  0.2051 -0.4087 -0.1288
 8503W        W24637   9.831   8.934  15.951  0.1335 -0.0696 -0.2432
 8504W        W24638   8.828   7.717   4.989  0.1023  0.3295  0.4248
 8505W        W24639   7.692   9.630  14.980 -0.3463  0.4275 -0.0191
 8506W        W24640   8.388   9.886  14.433 -0.2963 -0.1928  0.0196
 8507W        W24641   0.666   7.558   3.411  0.0358 -0.3757  0.4347
 8508W        W24642  16.551  10.671  12.744  0.1431  0.1408  0.1407
 8509W        W24643   2.497   9.070  16.385 -0.0649  0.1532 -0.1127
 8510W        W24644   8.036   5.894  13.298  0.2472  0.0723 -0.1818
 8511W        W24645   2.659   9.489  13.918 -0.2141  0.1285  0.0991
 8512W        W24646   0.590   2.911  12.036  0.0980 -0.0632 -0.0635
 8513W        W24647  16.505  17.301   0.513 -0.1619  0.0170 -0.0034
 8514W        W24648   3.062  12.059   1.502  0.0006  0.3177  0.5482
 8515W        W24649   4.871   2.377  14.205  0.0013 -0.1558 -0.0443
 8516W        W24650   8.317   3.162  13.715 -0.2353 -0.0168 -0.1707
 8517W        W24651  13.471  11.380  12.935  0.0569 -0.2448 -0.0778
 8518W        W24652   6.592  17.850   4.213 -0.0517 -0.0101  0.0680
 8519W        W24653  15.356   8.532   1.371 -0.4665 -0.1809 -0.1091
 8520W        W24654  10.744   3.753   4.014 -0.0604 -0.3261  0.0345
 8521W        W24655  14.327   9.030  16.558 -0.0884 -0.3079  0.0363
 8522W        W24656   6.594   9.085   5.371  0.2332 -0.3441 -0.0232
 8523W        W24657  13.577  11.835   4.747  0.1575  0.2029  0.1858
 8524W        W24658   7.130   3.712   1.878  0.0236  0.2317 -0.1528
 8525W        W24659   6.293  17.960  12.181 -0.0753 -0.1559 -0.0669
 8526W        W24660  15.123  11.119  13.574  0.0454 -0.0185  0.4148
 8527W        W24661  16.830  13.851  14.488 -0.0526 -0.0071  0.0777
 8528W        W24662   9.783  11.698  12.141  0.0722  0.1312 -0.3441
 8529W        W24663   5.376   9.827  15.034 -0.3247 -0.1164 -0.0896
 8530W        W24664   2.406  14.084  13.607  0.1405  0.0044  0.0005
 8531W        W24665   2.056   8.415  15.969 -0.1175 -0.0974  0.0012
 8532W        W24666   4.490  17.759   0.139 -0.1515  0.4175 -0.0713
 8533W        W24667  10.388  12.486   3.428  0.0483 -0.0406 -0.1489
 8534W        W24668   6.554   9.068  11.455  0.2849 -0.2548  0.1130
 8535W        W24669  14.158   2.423  16.371  0.1809 -0.0979 -0.1251
 8536W        W24670   6.180   4.328   3.972 -0.0073 -0.1248 -0.0599
 8537W        W24671  17.422  17.656   2.940 -0.4608  0.0670  0.1383
 8538W        W24672  14.500   0.578   1.350  0.0457 -0.0576  0.0975
 8539W        W24673   0.868   7.006  15.384  0.0274  0.0354  0.0389
 8540W        W24674  10.610   7.269  14.415 -0.3124 -0.2004 -0.0200
 8541W        W24675  10.731   6.365   2.071  0.2000  0.1833 -0.0539
 8542W        W24676   4.959  14.812   6.166  0.0568  0.0105 -0.1093
 8543W        W24677  14.976  17.110   2.630 -0.0291  0.0331  0.1764
 8544W        W24678  10.914   5.409  13.277 -0.0803  0.0567 -0.2486
 8545W        W24679   1.936  16.297   4.550 -0.0965  0.2774 -0.0534
 8546W        W24680   8.500   2.339  12.220  0.0310  0.2451  0.1713
 8547W        W24681   8.435   4.620  14.667  0.4128 -0.1064 -0.2368
 8548W        W24682  14.194   5.808   5.860 -0.3303 -0.0014 -0.2253
 8549W        W24683   4.508  14.091  11.787  0.2457  0.0043  0.2038
 8550W        W24684   4.388   1.145  13.720 -0.1848  0.0438 -0.0332
 8551W        W24685   1.181   8.864  11.427 -0.1439 -0.0512 -0.0732
 8552W        W24686   4.169   8.010  11.220 -0.0318 -0.3371 -0.1508
 8553W        W24687  10.159   9.542   1.446  0.0403  0.1040 -0.2088
 8554W        W24688  16.765  15.116   1.771 -0.0699  0.0488 -0.0602
 8555W        W24689   8.702   4.084  13.118  0.2190  0.0489  0.1072
 8556W        W24690   0.275  16.731  16.312  0.0927  0.1072  0.2263
 8557W        W24691   5.486  17.315   1.632 -0.0895 -0.1869 -0.1366
 8558W        W24692   9.227  15.964  12.688  0.3107  0.0520 -0.1934
 8559W        W24693   8.688  14.903  10.404  0.0837  0.1156  0.1147
 8560W        W24694  12.638   6.228  14.039 -0.2455  0.1351  0.0725
 8561W        W24695   8.513   0.371  12.889  0.0252 -0.0717  0.0264
 8562W        W24696   2.759  17.411   1.829  0.0385 -0.3385 -0.1217
 8563W        W24697   6.668   4.696   4.914 -0.0666 -0.1629  0.0683
 8564W        W24698   9.658   4.368  14.370  0.1395  0.1482 -0.1927
 8565W        W24699   6.437  11.547   6.096 -0.1773 -0.4009 -0.0664
 8566W        W24700   2.891   3.312  15.418 -0.1302  0.0019  0.0138
 8567W        W24701   6.773   2.635   3.515  0.0507 -0.0977  0.1526
 8568W        W24702  14.861  10.272  13.359  0.0490  0.0372 -0.0711
 8569W        W24703   0.366   2.110  13.743  0.3447  0.0263  0.1014
 8570W        W24704   9.322  15.635  14.196  0.0174  0.2292 -0.1739
 8571W        W24705  12.168  11.511  12.934 -0.0209 -0.1962  0.3111
 8572W        W24706   9.513   7.950  11.598 -0.0482  0.0095 -0.0169
 8573W        W24707   7.683   0.750   0.321  0.3931 -0.0728 -0.1199
 8574W        W24708   4.581  16.613   2.904  0.1104 -0.5859  0.0801
 8575W        W24709  14.312  15.587  11.861 -0.0588 -0.1917  0.2220
 8576W        W24710   6.847   3.121  12.629  0.2083 -0.2622  0.0066
 8577W        W24711  13.339   3.550   0.265 -0.0661 -0.0102 -0.2053
 8578W        W24712   4.519   4.523   4.605  0.1784 -0.1043  0.0058
 8579W        W24713  10.236  17.493  14.570  0.0263 -0.2668  0.0230
 8580W        W24714  10.117   5.406  12.383 -0.0124  0.1248 -0.2602
 8581W        W24715  12.688   2.613  15.493  0.3213  0.1528 -0.0502
 8582W        W24716   4.038   9.713  11.506  0.1181 -0.1375  0.0882
 8583W        W24717  16.127   9.000  13.920  0.1366 -0.0041  0.2786
 8584W        W24718   7.497   2.273   0.595 -0.0402 -0.0475  0.1906
 8585W        W24719   2.980  16.734   5.677  0.2848  0.0509 -0.1657
 8586W        W24720   5.174   6.542   2.114  0.1704  0.1329 -0.0446
 8587W        W24721   0.418  10.239   2.831 -0.0095 -0.0854  0.2063
 8588W        W24722   5.640  17.617   3.902  0.2666 -0.3850 -0.0826
 8589W        W24723  13.553   8.837   1.387  0.0016 -0.0635 -0.0667
 8590W        W24724  11.355   2.437  15.503 -0.2215  0.0204 -0.1619
 8591W        W24725   7.202   0.954  15.712  0.2553  0.0326 -0.1356
 8592W        W24726   7.337  16.794   4.317 -0.2351 -0.0487 -0.0518
 8593W        W24727   8.714  14.387  15.040  0.1513 -0.1021 -0.0527
 8594W        W24728   0.701  14.586   0.388  0.1600 -0.0080  0.0226
 8595W        W24729   4.300   6.015  12.896  0.2080 -0.2878 -0.2677
 8596W        W24730  10.167   9.164  16.261 -0.3633  0.0417 -0.1883
 8597W        W24731  13.059  11.995  10.764  0.0910  0.0004  0.2394
 8598W        W24732   7.222  12.493   2.073  0.0767 -0.3953  0.3212
 8599W        W24733   6.479   1.349   4.445  0.1055 -0.1188 -0.2584
 8600W        W24734  10.276   4.002   4.023 -0.0466 -0.0067 -0.0823
 8601W        W24735  17.098   8.399  13.035 -0.0532  0.0794 -0.0099
 8602W        W24736   3.847   2.489  11.341  0.2362 -0.2536 -0.2122
 8603W        W24737   5.295   8.043  13.300 -0.0710  0.3275  0.0490
 8604W        W24738   7.587  17.683  12.113 -0.0774  0.0861 -0.2743
 8605W        W24739  11.101  15.979   3.843  0.0538  0.1298 -0.1443
 8606W        W24740  13.714   8.349   5.080 -0.2551 -0.2099 -0.0116
 8607W        W24741   9.081  16.644  13.998 -0.1227 -0.0448 -0.0537
 8608W        W24742   3.365   3.969  15.198  0.2503 -0.2821 -0.2663
 8609W        W24743  16.990  16.292  15.195  0.0217 -0.0176 -0.1795
 8610W        W24744   6.083   5.806  16.086 -0.3375 -0.1032  0.2580
 8611W        W24745   6.000  11.056  15.666  0.1402 -0.0764 -0.1893
 8612W        W24746   5.438  13.113  10.772 -0.0731  0.0515 -0.2820
 8613W        W24747   9.709   5.394   3.360 -0.0837 -0.2456 -0.0819
 8614W        W24748  13.062  12.287   5.331 -0.4076  0.2331 -0.0558
 8615W        W24749  10.651   7.756   2.445 -0.0881  0.1337 -0.1092
 8616W        W24750  14.925  16.369   1.177 -0.0097  0.3019  0.1302
 8617W        W24751  17.512   7.146  11.867  0.1325  0.0923 -0.1359
 8618W        W24752  16.313   1.765   1.297  0.0733  0.1296  0.1169
 8619W        W24753   8.109   0.395   1.047  0.1181 -0.2562 -0.1129
 8620W        W24754  16.058   1.081  13.591 -0.0015  0.2487 -0.1762
 8621W        W24755   8.730   0.896   4.126 -0.0894  0.1100 -0.1348
 8622W        W24756   5.047   1.519   2.256 -0.0186  0.1065  0.1176
 8623W        W24757  13.373  11.220  15.910  0.0210  0.1648 -0.1611
 8624W        W24758   3.069   5.454   6.111 -0.0067 -0.1566  0.1109
 8625W        W24759  11.638   1.744  11.442 -0.1769 -0.3135  0.1396
 8626W        W24760  10.696  10.525  10.334  0.3310 -0.0976 -0.1454
 8627W        W24761  16.098   9.197   4.429  0.1057 -0.0367 -0.1768
 8628W        W24762   4.013   4.756   4.669  0.2325  0.0244  0.1353
 8629W        W24763  11.048  10.558   0.501 -0.1454  0.2059  0.0445
 8630W        W24764   2.627  11.673   3.671  0.1370  0.5182 -0.1674
 8631W        W24765  13.851  11.876   5.503  0.0530 -0.0249  0.3507
 8632W        W24766  16.877   5.391  12.624 -0.1276  0.1605  0.0395
 8633W        W24767   1.815   5.415  15.255  0.0510  0.3064  0.0747
 8634W        W24768   5.573  10.248   2.309 -0.1405  0.0499  0.1577
 8635W        W24769   6.654  11.775   2.846  0.3259  0.1983  0.0527
 8636W        W24770  16.928   4.753   4.810  0.1902  0.0246  0.2128
 8637W        W24771   8.181  12.600   5.374  0.2905 -0.4786 -0.0437
 8638W        W24772  11.414   2.012   0.887  0.0437  0.0263 -0.2334
 8639W        W24773  10.218  12.777   2.949 -0.0734  0.1265 -0.0172
 8640W        W24774  12.218  11.367   3.082  0.0172  0.0050 -0.2705
 8641W        W24775  17.089   5.931   2.253 -0.1757  0.2407 -0.3752
 8642W        W24776  17.324  17.239  15.951  0.2139  0.1521  0.1684
 8643W        W24777   5.343  13.974  12.696  0.0586 -0.0896 -0.0567
 8644W        W24778   4.375   3.076   2.836  0.0188 -0.1207  0.0520
 8645W        W24779   0.370  14.057   5.644  0.1800 -0.1407  0.0045
 8646W        W24780   7.238   8.873  12.602 -0.0131  0.2372  0.2956
 8647W        W24781  17.397   6.291  14.002 -0.3673 -0.1607 -0.1271
 8648W        W24782  12.432  10.028   2.580  0.0491  0.1442  0.0919
 8649W        W24783   5.995  11.745   0.180 -0.0695  0.0662  0.1179
 8650W        W24784   3.013   3.931  13.877  0.0437 -0.1204 -0.3615
 8651W        W24785   2.735   2.711   4.166  0.0711 -0.0495 -0.0585
 8652W        W24786   2.133   2.798   4.886  0.0653 -0.0061 -0.3755
 8653W        W24787  14.160  14.421   4.026 -0.0856  0.0457 -0.0501
 8654W        W24788  10.192   0.059   2.872  0.2372 -0.0507  0.3192
 8655W        W24789   9.939   3.316  12.555 -0.0652  0.1629  0.0522
 8656W        W24790   8.564  16.805   3.067  0.1374 -0.0388  0.1697
 8657W        W24791   9.732  10.417   4.175 -0.0619  0.0004  0.1878
 8658W        W24792   2.352   7.705   2.659  0.1491  0.0924 -0.2031
 8659W        W24793   9.437  16.527  15.621 -0.2789  0.0109 -0.1619
 8660W        W24794   0.680   4.259  14.246  0.1014  0.3328  0.3493
 8661W        W24795  16.895  14.575  13.827 -0.2049  0.2952  0.0545
 8662W        W24796  11.503  12.253  13.549  0.1665 -0.4802 -0.2169
 8663W        W24797   7.733  12.707  12.262 -0.1147 -0.0131  0.1472
 8664W        W24798   6.335  11.264   5.099  0.0555 -0.2683 -0.0328
 8665W        W24799  10.928   0.610   1.639  0.0368 -0.2286  0.2266
 8666W        W24800  15.367   0.756  15.354 -0.0389 -0.1933  0.0790
 8667W        W24801  10.286  15.300   3.663 -0.0168 -0.0736  0.0692
 8668W        W24802   9.030  11.870   4.678  0.0583  0.0724 -0.1443
 8669W        W24803  17.606  13.234  12.076 -0.0650 -0.0999  0.3962
 8670W        W24804   9.139   8.276  16.341  0.2916 -0.0745  0.1491
 8671W        W24805  15.124   9.521  12.376  0.1653  0.1896 -0.0879
 8672W        W24806  15.299  14.776   1.344 -0.0401  0.0248  0.0211
 8673W        W24807  12.052   1.611  13.647  0.0083 -0.1374  0.0957
 8674W        W24808  17.802   5.376  12.797 -0.0447  0.0813 -0.0302
 8675W        W24809  12.418   0.335   4.837  0.1901 -0.0008 -0.0001
 8676W        W24810  14.390   8.791   1.131  0.0083 -0.0520 -0.1623
 8677W        W24811   3.714  13.891   5.734  0.2486 -0.0502 -0.2331
 8678W        W24812   0.229  15.217   1.078  0.1336  0.0091  0.0168
 8679W        W24813   2.020   7.662  16.348 -0.4195  0.2682 -0.0262
 8680W        W24814  14.631   3.240   3.403  0.0207  0.0697  0.1829
 8681W        W24815  12.445  10.402  13.941 -0.1381  0.1845  0.2117
 8682W        W24816   9.586   3.646  12.271  0.1343  0.4521 -0.0681
 8683W        W24817  16.063   6.319  14.409 -0.2601 -0.0081  0.3056
 8684W        W24818  11.044  13.118  16.464  0.1023  0.2541 -0.1080
 8685W        W24819  12.090   3.610   2.627  0.0010  0.0562  0.0490
 8686W        W24820  14.688  14.305  13.881 -0.1034  0.3413 -0.1561
 8687W        W24821  17.671  14.909  15.943  0.1527 -0.3140 -0.0200
 8688W        W24822   6.162   0.142   2.450 -0.0471 -0.1785  0.2312
 8689W        W24823  10.178   1.196   1.095  0.0376 -0.2030  0.1817
 8690W        W24824   2.047  15.932  16.212  0.0993 -0.1311 -0.1389
 8691W        W24825   0.732  16.216  13.455  0.0547  0.0810 -0.1654
 8692W        W24826   8.328  10.436  11.446 -0.0752  0.2060 -0.3052
 8693W        W24827   7.774   9.130  10.924 -0.0802  0.0239 -0.0654
 8694W        W24828   5.784   4.694   5.196 -0.1482  0.1897 -0.0478
 8695W        W24829  15.330   7.477   3.908  0.1441 -0.0423  0.0683
 8696W        W24830   9.156   2.618   2.693  0.1395  0.0139 -0.2232
 8697W        W24831   2.264   1.219   5.360 -0.0748 -0.0239 -0.0341
 8698W        W24832  16.108  16.926  12.764 -0.1406  0.1117  0.1875
 8699W        W24833   1.072  13.379  16.543 -0.0814  0.0136 -0.0871
 8700W        W24834   8.104  17.665   5.321 -0.0493 -0.1436  0.1259
 8701W        W24835   2.530  16.402  12.568 -0.0271  0.0608  0.0658
 8702W        W24836  16.534   6.592  15.640  0.1261  0.1206 -0.1697
 8703W        W24837  12.667  12.181   4.988 -0.2270  0.0330 -0.2140
 8704W        W24838   2.623  10.344   0.674  0.3172 -0.2681  0.0638
 8705W        W24839  11.808  12.262  16.404  0.0273  0.0341  0.2885
 8706W        W24840  11.462  11.180  15.168 -0.0274 -0.1472 -0.1437
 8707W        W24841  15.118   2.209   2.943 -0.0016 -0.2640 -0.0987
 8708W        W24842  12.186   5.244  12.580 -0.2057 -0.1256  0.0655
 8709W        W24843  12.447   2.724  12.687  0.1594  0.0881  0.0074
 8710W        W24844   4.105   1.950  13.640 -0.1831 -0.2718  0.1549
 8711W        W24845  10.524  17.854   0.079 -0.1664 -0.3126  0.3320
 8712W        W24846  16.605   7.436   3.230  0.1170 -0.1332 -0.0141
 8713W        W24847   3.029   9.892   5.590 -0.2858 -0.1986  0.2676
 8714W        W24848   3.730  10.651   0.524  0.1021 -0.1474 -0.0141
 8715W        W24849  11.477   5.718  12.664  0.2990 -0.0766 -0.0206
 8716W        W24850  10.785  11.990   1.722 -0.3214 -0.1497 -0.1003
 8717W        W24851  15.820   6.638   2.350 -0.0099 -0.0438 -0.1298
 8718W        W24852  13.295  11.964  16.179  0.0395  0.0701 -0.3993
 8719W        W24853   6.951   5.443  16.627  0.1211  0.0641 -0.1286
 8720W        W24854  12.693  14.494   3.529 -0.2295 -0.1633  0.0723
 8721W        W24855  10.990  14.801   5.450  0.2989 -0.2203  0.2706
 8722W        W24856  15.696   6.381  12.214  0.1077  0.1867  0.0400
 8723W        W24857  14.789   1.530  15.602 -0.0897  0.0023 -0.1688
 8724W        W24858  15.013   8.891   0.588  0.0339 -0.2145  0.1465
 8725W        W24859  14.756   8.106   0.730  0.1514 -0.1115  0.1595
 8726W        W24860   7.265   7.434  12.437  0.1955  0.1278 -0.2336
 8727W        W24861  10.322   7.088  11.932 -0.0560  0.0220 -0.0342
 8728W        W24862  12.871  10.271   2.743  0.2021  0.1753  0.0692
 8729W        W24863  16.884  16.586  12.619 -0.2118  0.2533 -0.0374
 8730W        W24864  10.649   3.258   1.464  0.3532  0.0563  0.0678
 8731W        W24865  11.257  15.103   1.547  0.5463 -0.2062 -0.2367
 8732W        W24866   8.479  11.093  11.893  0.3411  0.1411  0.0024
 8733W        W24867   1.847   5.263  12.300 -0.0739 -0.0263  0.0890
 8734W        W24868   2.969   1.762  15.511 -0.0564 -0.2845  0.1527
 8735W        W24869   1.556   6.224  15.041 -0.1550  0.2325 -0.1116
 8736W        W24870   2.890  17.177   2.263 -0.0132  0.0587  0.1066
 8737W        W24871   7.302   2.355   3.985 -0.3775  0.2157  0.0887
 8738W        W24872  14.523   4.995  14.164 -0.0629  0.0285  0.1778
 8739W        W24873   0.650  15.575   2.588 -0.3613 -0.0527  0.0812
 8740W        W24874  13.081   3.192  14.950  0.0444  0.2667 -0.0592
 8741W        W24875  13.231   8.808   3.985  0.0705 -0.1978  0.2597
 8742W        W24876  17.475   3.466  15.340 -0.1128 -0.1206  0.1943
 8743W        W24877  11.932   9.252  12.418  0.0410 -0.2779  0.2039
 8744W        W24878   7.240   4.571   0.562  0.0587 -0.1045  0.2882
 8745W        W24879   1.883   5.164  13.724  0.1993  0.0424  0.0880
 8746W        W24880   5.161   7.496   3.705  0.2603 -0.1951 -0.1256
 8747W        W24881  13.218  16.343  13.976 -0.0989  0.0741 -0.1828
 8748W        W24882  16.822   9.859   0.062  0.1115 -0.2456 -0.2149
 8749W        W24883   8.955   8.359  12.947  0.2478  0.1941  0.2040
 8750W        W24884   7.051   2.123   3.465 -0.0960 -0.0025  0.0830
 8751W        W24885   6.256  14.894  12.743  0.1523  0.1854 -0.3300
 8752W        W24886   6.662   6.062  15.513  0.0527  0.1951 -0.0495
 8753W        W24887   8.614   2.932  16.610  0.0593 -0.2120 -0.0123
 8754W        W24888   6.117  13.987   3.452  0.0236 -0.5052 -0.0535
 8755W        W24889   0.127  14.905  14.477  0.1758  0.1055  0.2943
 8756W        W24890  14.578  10.954  14.548  0.1977  0.1219 -0.0594
 8757W        W24891  10.533  13.556  14.908  0.2041 -0.0009  0.0237
 8758W        W24892   9.357   3.877  16.173 -0.2717 -0.0050 -0.3689
 8759W        W24893  14.276  17.594   5.465 -0.1044  0.2409 -0.2157
 8760W        W24894  11.168   0.776   6.089 -0.1300 -0.0969 -0.0977
 8761W        W24895  15.217   0.714   2.050 -0.2145  0.0102  0.0673
 8762W        W24896  12.683  11.196  13.715  0.0427 -0.0766  0.0992
 8763W        W24897  13.805   8.822  14.469 -0.3697 -0.2212  0.1018
 8764W        W24898  11.426   1.555  15.455 -0.0564 -0.0337  0.1182
 8765W        W24899   2.494   4.279  11.784  0.1785  0.2483  0.2964
 8766W        W24900  11.683   8.486   0.001 -0.1958  0.3102 -0.4124
 8767W        W24901  11.569   9.634  12.695 -0.3451 -0.1967  0.0412
 8768W        W24902  16.020   1.926  14.122  0.0293 -0.2774 -0.1086
 8769W        W24903  11.464   6.835   1.923  0.0468  0.0013  0.2998
 8770W        W24904   5.161   4.404  14.344  0.0925  0.0002 -0.2338
 8771W        W24905   8.296   9.068   3.170 -0.2570 -0.2900  0.0404
 8772W        W24906   4.296   9.522   4.558 -0.0955 -0.2892 -0.0882
 8773W        W24907   0.521   8.349   4.757 -0.0565  0.1090 -0.1248
 8774W        W24908   4.646   6.326   3.160 -0.1152 -0.0225  0.5071
 8775W        W24909   7.069   7.398   0.240  0.1139 -0.2079 -0.2893
 8776W        W24910   5.582   2.573   4.739 -0.0604  0.2905  0.2447
 8777W        W24911  11.690   2.823  15.540  0.0743  0.2452  0.0197
 8778W        W24912   4.270   9.339   5.628  0.0618 -0.0145 -0.3588
 8779W        W24913  17.495   5.919  10.581 -0.1550  0.2556 -0.0959
 8780W        W24914   8.399   7.669   4.178 -0.5073 -0.0657 -0.0327
 8781W        W24915   3.869   5.413  12.401 -0.2716 -0.0315 -0.3401
 8782W        W24916   1.921   0.887  11.004 -0.1092  0.0262 -0.2554
 8783W        W24917   2.871   4.841  13.752 -0.0116 -0.1585 -0.1520
 8784W        W24918   6.962  17.349  12.606  0.0645  0.1968 -0.1189
 8785W        W24919   9.717   2.638   1.421  0.1986 -0.1344 -0.1361
 8786W        W24920  16.014  10.286   5.660  0.2853 -0.0241 -0.0675
 8787W        W24921   3.809   4.475  15.828  0.0131 -0.1400 -0.2927
 8788W        W24922  11.389  13.677  12.037  0.2682  0.1014  0.0063
 8789W        W24923  12.332   5.983   4.740  0.1956 -0.4297  0.2122
 8790W        W24924   0.725   1.767   1.841  0.1052  0.3878 -0.0678
 8791W        W24925  11.330   0.277   1.464  0.4180  0.0723 -0.1483
 8792W        W24926  13.202   9.635  11.897  0.0443 -0.1364  0.0153
 8793W        W24927  15.814   0.743  12.927 -0.1440  0.2984 -0.1355
 8794W        W24928  10.133   2.138  16.257  0.0233 -0.1877 -0.0823
 8795W        W24929   0.341   7.486   1.926 -0.0977  0.0152 -0.2005
 8796W        W24930   1.093  13.853  15.302  0.3185  0.0985  0.2728
 8797W        W24931   5.745  15.387   1.275  0.1145 -0.0557  0.1146
 8798W        W24932   9.436  16.750   5.771  0.1232 -0.0211  0.2094
 8799W        W24933   1.673   4.510   2.703 -0.3046 -0.0818 -0.0586
 8800W        W24934  11.559   4.573   1.471 -0.0213  0.1110  0.1147
 8801W        W24935   9.315  14.077  15.824  0.5169  0.1302  0.0516
 8802W        W24936  17.423  11.949  13.660 -0.0040 -0.3058 -0.0755
 8803W        W24937   3.457  17.158   3.829 -0.1565  0.2571 -0.0317
 8804W        W24938  15.563   4.299  14.851  0.2325  0.3902  0.0959
 8805W        W24939   9.553   9.886  11.447  0.4765 -0.1151  0.1036
 8806W        W24940   5.357   7.584   0.653 -0.1682  0.0234 -0.2749
 8807W        W24941  15.984  17.907   0.101 -0.0430  0.0440 -0.0232
 8808W        W24942   6.638  16.100   2.610 -0.1677  0.1551  0.2295
 8809W        W24943   4.677   4.050   4.529 -0.1695 -0.0024 -0.0040
 8810W        W24944   5.558   7.696   1.453 -0.1430 -0.2251 -0.4336
 8811W        W24945   6.077   2.102   0.118  0.2306  0.2538  0.0942
 8812W        W24946   7.355   6.964  14.416  0.0831 -0.1672 -0.1190
 8813W        W24947  13.939   4.926  13.894  0.2028 -0.4184 -0.5370
 8814W        W24948   9.974   2.459  11.834  0.0026  0.2734  0.0507
 8815W        W24949   0.623   3.791  14.142 -0.1458  0.1121  0.0955
 8816W        W24950   2.839  17.529  12.249 -0.2430 -0.0684  0.1772
 8817W        W24951  13.181   0.307  14.609  0.1456  0.0600  0.0958
 8818W        W24952   3.630   0.838   3.478 -0.3117 -0.0718 -0.3401
 8819W        W24953  12.997  16.384   1.622  0.2500  0.0002 -0.0766
 8820W        W24954  11.325  14.281  13.503  0.0184  0.0688 -0.1492
 8821W        W24955  10.260  17.353  12.166 -0.1118  0.0310  0.0502
 8822W        W24956   6.736  10.634  15.846  0.1518 -0.0629 -0.0412
 8823W        W24957   1.339  11.181   1.340  0.0641  0.0146  0.0704
 8824W        W24958   5.039   1.808  13.396 -0.0133 -0.0254  0.1771
 8825W        W24959  14.812   7.105   3.291  0.1039  0.1626 -0.1263
 8826W        W24960  11.056   8.100  14.345 -0.2886  0.2490  0.0685
 8827W        W24961  13.043   2.858   4.662  0.1418 -0.0546 -0.1554
 8828W        W24962  12.174   2.746  15.250  0.1635 -0.0893 -0.1616
 8829W        W24963   4.597  13.157   2.766  0.2968  0.0048  0.1150
 8830W        W24964  11.001   7.787   0.431 -0.3611 -0.2038 -0.1136
 8831W        W24965  13.724  11.274  14.823 -0.1455 -0.0120 -0.1190
 8832W        W24966  14.147   0.586   3.121 -0.0181  0.4135  0.0125
 8833W        W24967   0.556  14.376  15.714 -0.0982 -0.0436 -0.1785
 8834W        W24968   9.235   4.673  14.096 -0.0444 -0.1279  0.0146
 8835W        W24969   3.728  15.432  11.410  0.1872  0.0303  0.0043
 8836W        W24970  14.814  14.936   3.565  0.2869 -0.1670 -0.0026
 8837W        W24971   1.887   7.844  14.121 -0.0984  0.0514  0.0329
 8838W        W24972   3.935   4.076  12.827 -0.1225  0.1423 -0.1519
 8839W        W24973   8.907   9.426  15.619 -0.1697  0.2411  0.0455
 8840W        W24974   3.967  16.992  11.540 -0.0367  0.0094  0.2967
 8841W        W24975   5.507   2.842  11.358 -0.2452  0.1631 -0.1731
 8842W        W24976   8.449  11.112   2.738  0.0331 -0.0693 -0.2265
 8843W        W24977  13.909  14.144   2.136  0.0213  0.1027 -0.2206
 8844W        W24978   9.194  17.727  13.540  0.0871 -0.0963  0.0709
 8845W        W24979  15.644   7.200   2.198 -0.0534 -0.0484 -0.1854
 8846W        W24980   1.984  17.602   4.802 -0.0870 -0.2245 -0.2036
 8847W        W24981   5.424  10.840   1.536  0.0123 -0.1248 -0.1952
 8848W        W24982   1.606   9.825   5.068  0.2174 -0.2206  0.1048
 8849W        W24983  16.601   4.800  12.941 -0.1159  0.1750 -0.0650
 8850W        W24984   1.712   1.755  13.028  0.0239  0.1105 -0.2729
 8851W        W24985   8.602  17.285  14.477 -0.0743 -0.0252 -0.0899
 8852W        W24986  15.229   0.540  11.727 -0.1351  0.1498 -0.1799
 8853W        W24987   7.031   3.421   5.574 -0.1656  0.2958 -0.0210
 8854W        W24988   9.466   3.166  15.645 -0.0483 -0.1182 -0.3213
 8855W        W24989   9.819  12.747   3.768  0.0241  0.2670  0.0555
 8856W        W24990  15.033   2.888   5.135 -0.0296  0.0406 -0.2410
 8857W        W24991   8.703  13.861  10.979 -0.0118  0.5042  0.0701
 8858W        W24992  13.654  16.671  13.203 -0.0599 -0.2719 -0.1620
 8859W        W24993   3.510  16.227  15.341 -0.1856 -0.0670  0.0461
 8860W        W24994  17.841  12.965   1.958  0.0632  0.2339  0.2076
 8861W        W24995   6.534  16.692  11.476  0.1273  0.2356 -0.2219
 8862W        W24996  17.159  17.066   6.304  0.1665  0.4256 -0.0312
 8863W        W24997  17.084   5.698   3.193 -0.1645  0.1974  0.3104
 8864W        W24998   8.245   3.112  16.312 -0.1912 -0.1121  0.1336
 8865W        W24999   0.200  13.654  16.248 -0.2992 -0.1928 -0.0064
 8866W        W25000   6.659   0.886  13.250  0.1698  0.1090 -0.1113
 8867W        W25001  11.998   2.426  12.699 -0.1476 -0.0299  0.2561
 8868W        W25002   7.518   5.891   1.581 -0.2968 -0.1253 -0.1085
 8869W        W25003   0.512   3.262   1.732 -0.3472 -0.0751  0.3117
 8870W        W25004   6.327  13.897  15.429  0.1847  0.1482 -0.1828
 8871W        W25005   5.927   5.372  13.815  0.4205  0.0065  0.2088
 8872W        W25006  10.932   3.349  15.054  0.1197  0.0158 -0.1944
 8873W        W25007  15.007   2.783  15.545 -0.1152  0.0443 -0.4250
 8874W        W25008  12.913  14.558  15.540  0.1083  0.0942  0.1447
 8875W        W25009   9.171  15.282   0.999  0.1707  0.1193 -0.1883
 8876W        W25010  17.659   9.354   4.664  0.0393 -0.1310 -0.1081
 8877W        W25011   0.888  14.122   0.167 -0.1222 -0.1460 -0.0654
 8878W        W25012  12.976   3.500  10.895 -0.1511  0.0224  0.2932
 8879W        W25013  14.731  16.474   5.164  0.0545 -0.1785  0.0877
 8880W        W25014  10.462   0.865   4.895  0.0348  0.1196 -0.1981
 8881W        W25015   1.475   1.726  14.695 -0.1091 -0.0259 -0.1811
 8882W        W25016   5.368  13.356   4.466 -0.0156  0.3874 -0.0822
 8883W        W25017   2.575  10.690   5.509 -0.0513 -0.0179 -0.1032
 8884W        W25018  13.228   6.744   1.027  0.1532 -0.3578 -0.0105
 8885W        W25019  10.701   9.025   0.455 -0.3123  0.3893  0.3237
 8886W        W25020  11.970   8.839  12.738  0.1865  0.2521 -0.0217
 8887W        W25021  13.823  15.571  11.767 -0.0450  0.0019  0.1517
 8888W        W25022  13.862   5.233  11.068  0.2944 -0.1125 -0.1584
 8889W        W25023  15.951  17.362  15.075  0.1218  0.0712  0.0949
 8890W        W25024  13.595   0.245   3.879 -0.1822 -0.1422 -0.1190
 8891W        W25025  17.969  10.273   0.646 -0.0610 -0.2438  0.1052
 8892W        W25026  16.084  12.124  15.414 -0.0498  0.1496 -0.0189
 8893W        W25027  17.511   0.459  15.264 -0.1094  0.1271 -0.0987
 8894W        W25028  11.549  12.571  15.798  0.0545  0.2266  0.0814
 8895W        W25029   2.982  10.688   0.027 -0.1516  0.0957 -0.1685
 8896W        W25030  14.219  11.160  12.208 -0.0426 -0.1897 -0.0723
 8897W        W25031  16.441  12.576  12.520  0.0700  0.0141 -0.1084
 8898W        W25032  12.773  17.019   4.131  0.2088 -0.0525  0.2549
 8899W        W25033   1.142  15.389   6.137  0.0699 -0.0145 -0.1373
 8900W        W25034  16.981   3.399  13.291 -0.2378 -0.0129 -0.1760
 8901W        W25035   7.703  13.573  13.158 -0.0166 -0.1017  0.0654
 8902W        W25036   9.671  13.224  13.997 -0.2579 -0.1623  0.0440
 8903W        W25037  11.187  16.926  12.992 -0.3241  0.0867 -0.0348
 8904W        W25038  14.694  13.028   5.580 -0.0185 -0.2296 -0.1821
 8905W        W25039  11.107   9.203   4.210  0.3572 -0.1352  0.1707
 8906W        W25040   3.899   5.117  13.688 -0.0809 -0.1061  0.3499
 8907W        W25041   5.768  13.120   1.509  0.1234  0.2041 -0.2182
 8908W        W25042   2.278   0.073   3.126  0.1041  0.0688  0.3774
 8909W        W25043  15.341   0.950  14.903  0.1395 -0.3941 -0.0234
 8910W        W25044  15.238   6.529   1.421 -0.1103 -0.0063 -0.3183
 8911W        W25045   0.149  16.457   2.863 -0.0185  0.0502 -0.1890
 8912W        W25046  11.607  10.372  13.877 -0.1156 -0.2333 -0.0834
 8913W        W25047  15.722  10.117   5.288  0.2126  0.0516  0.2073
 8914W        W25048   7.282  11.416  15.473  0.1078 -0.3970 -0.0840
 8915W        W25049  12.418   0.579  11.581 -0.3558 -0.0232  0.2426
 8916W        W25050  16.927   8.165  12.592  0.0912  0.0405  0.0287
 8917W        W25051   2.616   5.765  12.010  0.2426 -0.0587 -0.2224
 8918W        W25052  10.146  10.702   2.195  0.0823  0.3956  0.0357
 8919W        W25053   9.908  14.670  16.565  0.3890 -0.2982  0.1120
 8920W        W25054  11.073  13.918   0.824 -0.1692 -0.0209  0.1234
 8921W        W25055   1.536   8.022   2.050 -0.2034  0.1823 -0.0183
 8922W        W25056   6.747  12.216  12.509 -0.1601  0.1184 -0.0711
 8923W        W25057   9.913   7.477   1.407 -0.1200 -0.0012  0.1125
 8924W        W25058   9.466   5.476   0.772 -0.1002 -0.0091 -0.0326
 8925W        W25059   3.455  16.132  14.827  0.1717  0.1680  0.2063
 8926W        W25060  11.295   4.177  11.948 -0.1501 -0.1229  0.0056
 8927W        W25061  17.565   2.340   4.525 -0.2043  0.0293  0.2064
 8928W        W25062   2.320   3.388   2.008 -0.0615 -0.0794 -0.1783
 8929W        W25063  17.973   6.803  14.314 -0.2358  0.0889  0.0885
 8930W        W25064   7.501  13.774  12.275 -0.1883  0.2505  0.1165
 8931W        W25065   5.042   7.369   1.007 -0.1159  0.0074 -0.2399
 8932W        W25066  17.951   4.870   1.193 -0.0920 -0.3542  0.1307
 8933W        W25067   2.900   0.554   4.266 -0.0653 -0.2719  0.1655
 8934W        W25068   4.087  17.548  15.984 -0.3457  0.0002  0.0097
 8935W        W25069   9.170  15.224  11.502 -0.3146  0.2688 -0.1416
 8936W        W25070   1.246  12.725   2.988  0.2103 -0.2392  0.1145
 8937W        W25071   6.179  16.103   1.699 -0.0062  0.0606 -0.0236
 8938W        W25072   6.148   8.047   3.750 -0.0636  0.0586 -0.2592
 8939W        W25073   9.218  16.239   1.922 -0.0601 -0.3690  0.0199
 8940W        W25074  14.081  12.508   4.645  0.0839  0.2614  0.0635
 8941W        W25075  13.426   9.549   0.766 -0.0143  0.0098 -0.1215
 8942W        W25076   8.311   6.476   0.064 -0.0694  0.1382 -0.2159
 8943W        W25077  15.016  16.077   5.314 -0.0102 -0.0491  0.1687
 8944W        W25078  15.811   4.559  12.928 -0.1750  0.0288  0.0320
 8945W        W25079   4.173   7.395   0.114  0.0831 -0.1105  0.1013
 8946W        W25080  12.805   3.448  14.100 -0.1444  0.5648  0.3652
 8947W        W25081   8.309   4.328  15.112  0.0691 -0.0809 -0.1911
 8948W        W25082  13.661   3.273   5.176  0.3758  0.0210 -0.1593
 8949W        W25083   4.580   3.818  15.276 -0.0283  0.2440 -0.1116
 8950W        W25084   6.979   8.804  11.495 -0.0196 -0.0793 -0.0913
 8951W        W25085   2.476   1.233  13.513 -0.0664  0.3371  0.2153
 8952W        W25086   4.583  11.308  15.891  0.2586  0.2692 -0.0341
 8953W        W25087   6.933   8.549   1.779  0.0648  0.1662 -0.0336
 8954W        W25088   9.659   3.554   3.516  0.1300 -0.2827 -0.1253
 8955W        W25089   2.340  10.949   1.957  0.3124 -0.3087 -0.0180
 8956W        W25090   7.264  14.815   4.043 -0.3163  0.1634 -0.1894
 8957W        W25091  17.584  14.032   0.680 -0.0416 -0.1007  0.0298
 8958W        W25092   3.800   3.266   3.126  0.0530  0.3269 -0.1782
 8959W        W25093   9.068  14.979   4.058  0.4058  0.0621  0.0316
 8960W        W25094   1.221   3.693   1.509 -0.1095  0.0160  0.1401
 8961W        W25095   8.720   2.546   4.952 -0.0854  0.1232  0.1630
 8962W        W25096   3.806  11.714   3.590 -0.1392 -0.0119 -0.1900
 8963W        W25097   0.282   8.319   5.910 -0.0127 -0.0738  0.1564
 8964W        W25098   7.250  11.892  16.241 -0.0326 -0.0867 -0.0830
 8965W        W25099   1.620   3.538   1.274  0.1618 -0.1079 -0.1540
 8966W        W25100  13.423   6.020   4.630 -0.0414  0.1129 -0.0352
 8967W        W25101   8.860   4.511   4.541  0.2220  0.0243 -0.1052
 8968W        W25102   1.342  13.654   5.669  0.0376 -0.1014 -0.0567
 8969W        W25103   4.073   9.037  13.360  0.0197  0.0920  0.2425
 8970W        W25104   3.301  15.862  11.608 -0.1919 -0.0414 -0.3809
 8971W        W25105  10.626  11.759   2.319 -0.0798  0.1740 -0.1575
 8972W        W25106   6.046   3.014   2.794 -0.2072  0.0280 -0.3723
 8973W        W25107   3.312   5.153   3.281 -0.0101  0.2502 -0.0966
 8974W        W25108  16.614   2.906   5.701  0.4064 -0.0545  0.3366
 8975W        W25109  14.206   3.295  13.715  0.1006  0.0694  0.0565
 8976W        W25110   9.789  12.884  12.984 -0.1721 -0.1194 -0.0303
 8977W        W25111   5.867   8.824  14.163 -0.0108  0.3266 -0.2253
 8978W        W25112   1.594  15.914  15.289  0.1736  0.0249  0.0231
 8979W        W25113  16.443   4.859   0.268  0.1976  0.0320  0.1007
 8980W        W25114  12.022   4.212   5.397 -0.1486  0.0546 -0.3961
 8981W        W25115  17.885   4.510   4.058  0.1396 -0.1431  0.3523
 8982W        W25116   8.138  17.627   0.057 -0.2060  0.1343 -0.1402
 8983W        W25117   5.948  13.878  11.335 -0.1780  0.0040  0.1688
 8984W        W25118  17.572  15.997   0.214  0.3145  0.3778 -0.0911
 8985W        W25119   8.409   7.273  11.380 -0.1348 -0.0108  0.0552
 8986W        W25120   7.730  14.503   0.902 -0.0203  0.4721 -0.0340
 8987W        W25121   6.624   7.163   3.900 -0.2084 -0.0508 -0.1811
 8988W        W25122   8.724   5.127   0.764  0.1171  0.0371 -0.1302
 8989W        W25123   5.981   6.852  11.161  0.0749 -0.1561  0.0814
 8990W        W25124  13.950   8.094  13.067 -0.1147  0.1908 -0.2931
 8991W        W25125  15.765   5.940   5.009 -0.0769 -0.1923 -0.0383
 8992W        W25126  10.383   8.016   5.172 -0.1085 -0.0776  0.2810
 8993W        W25127   6.344  11.674  14.214 -0.1733 -0.1153  0.3148
 8994W        W25128   0.417  12.843   1.308  0.0604  0.1416 -0.1899
 8995W        W25129   6.226   0.899   5.675 -0.3962 -0.2001  0.1288
 8996W        W25130   5.876  16.972  11.370  0.0814  0.1051  0.2209
 8997W        W25131   7.835  10.392   2.452 -0.1735 -0.1501  0.1621
 8998W        W25132  16.000   1.731   2.680 -0.0890  0.0326 -0.2384
 8999W        W25133   5.856   5.470   3.520  0.2740 -0.0503  0.1118
 9000W        W25134   0.498  12.413  16.431  0.0927 -0.1826  0.1790
 9001W        W25135  12.899  11.492   1.017  0.3067 -0.0568  0.1611
 9002W        W25136   8.341   3.512   0.517 -0.1213 -0.1419 -0.0356
 9003W        W25137   3.290  15.807  12.888  0.1752 -0.0027 -0.1326
 9004W        W25138   8.163  13.824  11.708 -0.0904 -0.0659 -0.1113
 9005W        W25139   4.036   7.722  12.112 -0.1659 -0.3325  0.0691
 9006W        W25140   5.130   0.168  12.365 -0.2038 -0.0224 -0.2240
 9007W        W25141  12.386  14.915  13.924 -0.2426 -0.2669  0.3239
 9008W        W25142  15.773   1.935  14.590 -0.2820  0.0706 -0.0406
 9009W        W25143   1.302   3.559  15.285 -0.3840 -0.0801  0.2434
 9010W        W25144  14.691  13.040   2.613  0.1342  0.4520 -0.3325
 9011W        W25145   0.583  13.114  16.041 -0.2324 -0.2636 -0.1840
 9012W        W25146   0.750  10.402   2.535  0.2787  0.2962  0.2274
 9013W        W25147   7.739   1.328  11.165 -0.0610 -0.0375 -0.1832
 9014W        W25148   4.237  13.252  12.030 -0.0544  0.0476 -0.0763
 9015W        W25149  17.706   0.255   1.581 -0.0554 -0.3009 -0.2658
 9016W        W25150   4.292  11.025  13.494 -0.2385 -0.0707 -0.1181
 9017W        W25151   8.750   3.936  13.646 -0.0917  0.0741  0.2407
 9018W        W25152   4.523   1.546   1.409  0.1667 -0.1898 -0.1041
 9019W        W25153  15.806   1.049  16.437  0.0400 -0.3921 -0.0073
 9020W        W25154  12.191   6.720   1.008 -0.1171  0.1065 -0.1835
 9021W        W25155  16.913  13.686  11.836 -0.3742 -0.1849 -0.1164
 9022W        W25156   5.109  12.593   0.329 -0.0350 -0.0001  0.1450
 9023W        W25157   0.974  14.336   3.994 -0.1758  0.1129  0.1457
 9024W        W25158  11.420  13.763  13.439  0.1704 -0.1070  0.0672
 9025W        W25159   0.251  17.701   5.334  0.0585 -0.2532 -0.0035
 9026W        W25160  14.445   5.608  15.236 -0.3521  0.1028  0.0087
 9027W        W25161   9.020   5.107   5.540  0.3973 -0.1085 -0.0968
 9028W        W25162   5.380   2.108  12.369 -0.1233  0.1266  0.1939
 9029W        W25163   0.260   6.463   1.189 -0.0575 -0.1690  0.0195
 9030W        W25164   0.472  17.883   1.687  0.2609 -0.0627  0.0000
 9031W        W25165  10.234   2.713   0.953 -0.3302  0.2608 -0.0016
 9032W        W25166  11.326   1.081  15.552  0.0709 -0.1287  0.0508
 9033W        W25167   9.401  13.052  12.621  0.0859  0.0403  0.2077
 9034W        W25168   2.222   7.088  14.612 -0.0085 -0.0892 -0.1566
 9035W        W25169  12.526  17.924  11.549 -0.1029 -0.1529  0.1157
 9036W        W25170   1.573   4.814  12.031 -0.2645  0.0621  0.0534
 9037W        W25171  12.126  13.746  15.315 -0.2879 -0.5711 -0.1043
 9038W        W25172   5.786  16.314  13.235 -0.0455  0.1647  0.0903
 9039W        W25173   9.313   1.650   2.291 -0.0452  0.4358 -0.2603
 9040W        W25174   0.783  17.003  15.441  0.2460 -0.2361  0.0349
 9041W        W25175  17.671   2.485   2.500 -0.0565 -0.1735 -0.0815
 9042W        W25176   4.389   2.080   2.955 -0.0520  0.1813 -0.0543
 9043W        W25177  10.206   5.432  16.666  0.1192 -0.1375  0.2071
 9044W        W25178  15.912   1.993   4.354 -0.2906  0.0451  0.1674
 9045W        W25179   7.064  16.271  12.178 -0.0256  0.0022 -0.1344
 9046W        W25180   2.385  10.962  13.690 -0.0073 -0.1667  0.1937
 9047W        W25181   4.320  13.449   3.954 -0.0807 -0.1044 -0.1602
 9048W        W25182   6.527   2.886   4.848 -0.0325  0.3530 -0.4513
 9049W        W25183   4.405   1.337   3.480 -0.3997  0.2018 -0.0460
 9050W        W25184  10.066  11.281   2.879  0.1383 -0.0777 -0.1521
 9051W        W25185   3.062  11.575   5.599 -0.1321 -0.0599 -0.1335
 9052W        W25186  10.091   3.558   5.681  0.1196  0.2092  0.1842
 9053W        W25187   1.456   0.019  12.354  0.1423 -0.1907  0.2665
 9054W        W25188  16.989   5.412  12.105  0.3500 -0.2416 -0.0240
 9055W        W25189   2.409  17.466   0.865  0.0923 -0.1619  0.2598
 9056W        W25190   2.655   3.701  13.577 -0.0509 -0.0281  0.1615
 9057W        W25191  13.209   1.058   3.162 -0.5991 -0.1863 -0.2695
 9058W        W25192  16.524   5.679   0.744  0.0415  0.2046 -0.0009
 9059W        W25193  17.911  17.789   3.135 -0.1600  0.0724 -0.0546
 9060W        W25194   8.003   9.370   4.125 -0.2039  0.1097  0.1181
 9061W        W25195   1.075   5.375  14.240 -0.0003 -0.0686  0.0224
 9062W        W25196   6.984   5.881  13.144  0.1515 -0.2598 -0.0331
 9063W        W25197   7.408   9.051   1.263 -0.2736  0.1803 -0.0004
 9064W        W25198   9.883  16.760   5.467 -0.2499 -0.1036 -0.1152
 9065W        W25199  10.221   1.553   2.264 -0.0315 -0.1339  0.2872
 9066W        W25200   7.558   8.911  13.664 -0.1124 -0.2926 -0.0318
 9067W        W25201   2.269   4.701  15.969  0.1375  0.1643  0.1257
 9068W        W25202   3.144   8.305   3.774 -0.1470 -0.0701  0.1353
 9069W        W25203  10.236   3.918   2.972  0.0321  0.0310  0.0950
 9070W        W25204  12.745   9.794   5.191 -0.0598 -0.2753  0.0251
 9071W        W25205   5.638   5.873   0.749  0.0661 -0.0543  0.2285
 9072W        W25206   4.068  17.380   1.671  0.1052 -0.0795  0.0482
 9073W        W25207  13.365   3.065  16.110  0.0824 -0.3054  0.0899
 9074W        W25208   9.069  15.528  15.604  0.1161  0.3335  0.0290
 9075W        W25209  16.006   3.502   4.532  0.1880 -0.2681  0.4191
 9076W        W25210  16.120   8.630   1.953  0.0162 -0.1160 -0.0828
 9077W        W25211   9.469  13.231   5.482  0.2917  0.0751 -0.1094
 9078W        W25212  14.146   1.881  16.329 -0.1542  0.0009  0.1638
 9079W        W25213  14.853   0.776  13.307  0.0612  0.1126 -0.1744
 9080W        W25214   6.146  13.463  12.001 -0.0894 -0.0662  0.0450
 9081W        W25215   9.652   2.947   5.312 -0.2227 -0.3551  0.2330
 9082W        W25216   6.360   7.053   1.308 -0.1103  0.0128 -0.0350
 9083W        W25217  13.812   0.333   3.410 -0.3716 -0.3254 -0.0768
 9084W        W25218  14.514  15.446   4.725 -0.0574 -0.0313  0.0143
 9085W        W25219  17.555   8.415   1.234  0.0950  0.0624  0.1138
 9086W        W25220   5.694   6.375   3.260 -0.3019  0.0715 -0.3889
 9087W        W25221  17.213  17.849   5.638  0.2043  0.1417  0.0357
 9088W        W25222   0.645  13.470   5.092 -0.1298  0.3779  0.1977
 9089W        W25223  12.049   0.666   0.011  0.2117 -0.0434  0.0226
 9090W        W25224  16.417   4.776   3.656 -0.0909  0.0117  0.1600
 9091W        W25225  15.990   5.649   2.475  0.1887 -0.1904  0.2829
 9092W        W25226   8.873   0.004   0.893  0.1288 -0.2002 -0.0699
 9093W        W25227  13.613  16.161  14.916 -0.0760  0.3253  0.0426
 9094W        W25228  17.672  14.856   5.826  0.1222 -0.2064  0.1920
 9095W        W25229  11.293   4.755   5.427 -0.1940  0.0789  0.0671
 9096W        W25230   9.348   4.085  16.652  0.1396  0.2383 -0.0609
 9097W        W25231  14.515  15.587   2.068  0.1618  0.0071 -0.1632
 9098W        W25232   9.557  14.924  15.174 -0.2683 -0.0770  0.1086
 9099W        W25233  10.783   2.000   5.281  0.0191  0.2286  0.0583
 9100W        W25234   3.746   6.896   3.364  0.0621 -0.1702 -0.1777
 9101W        W25235  10.098  17.567   5.068 -0.0339  0.1272 -0.1469
 9102W        W25236  14.826   9.567   0.777 -0.0410 -0.0495  0.1461
 9103W        W25237   9.413   4.052   4.219  0.1254 -0.0906 -0.4084
 9104W        W25238  15.717   3.630  14.331  0.1481  0.2020 -0.1100
 9105W        W25239  14.328   7.218  15.980  0.3183 -0.1498 -0.0352
 9106W        W25240  15.596   0.881   3.238 -0.0421  0.2894 -0.1067
 9107W        W25241   9.355   2.112  13.951  0.0199  0.0134 -0.0307
 9108W        W25242   7.403  11.223   4.793  0.1593 -0.0787  0.2827
 9109W        W25243   7.388  14.060   1.471  0.2914  0.1822 -0.2022
 9110W        W25244   0.055  17.794  13.422  0.0980 -0.1671 -0.0475
 9111W        W25245  15.334  15.864   2.563 -0.1344  0.1056  0.1525
 9112W        W25246  10.503  11.526   2.757 -0.0184  0.1494  0.3557
 9113W        W25247  11.505  12.320   4.672  0.0614  0.0076 -0.1299
 9114W        W25248   0.367  11.905   3.737 -0.2434  0.3402 -0.0991
 9115W        W25249   5.809   8.095   4.558 -0.0998 -0.0493 -0.0663
 9116W        W25250   5.375  11.425   5.285 -0.1232 -0.1302  0.3887
 9117W        W25251  14.365   1.815  13.577 -0.0452  0.0934  0.1390
 9118W        W25252  14.379  12.086   3.686 -0.0492 -0.3967  0.1337
 9119W        W25253  12.720   6.879   3.062  0.1781 -0.1326  0.1160
 9120W        W25254  11.959  11.925   3.840 -0.2354  0.1161  0.2749
 9121W        W25255   0.336  13.501   3.027  0.1679 -0.3159 -0.0183
 9122W        W25256  15.110   2.052   0.655 -0.0914 -0.1170 -0.0184
 9123W        W25257   6.664   4.140  12.382 -0.1981  0.1900 -0.3769
 9124W        W25258  17.372   7.554  13.041 -0.1077  0.3087 -0.0576
 9125W        W25259   4.177   8.048  12.893  0.2408 -0.4864 -0.1244
 9126W        W25260   0.666  11.607  13.832 -0.1064  0.0035 -0.0330
 9127W        W25261   4.810   7.820   3.932 -0.1604 -0.1260  0.1454
 9128W        W25262   7.464   1.672   4.128 -0.1744 -0.0672  0.0673
 9129W        W25263   9.873   6.417  15.859 -0.1052 -0.0418 -0.1459
 9130W        W25264  17.696  17.276  12.691  0.3098 -0.0025  0.0807
 9131W        W25265   9.439  15.638  15.239 -0.4871  0.1999  0.1241
 9132W        W25266   1.280   9.633   0.486  0.0592  0.2619  0.1506
 9133W        W25267   5.778  13.362   0.831  0.1883 -0.1078 -0.1726
 9134W        W25268  17.096  13.463   2.044  0.1257  0.0076 -0.1121
 9135W        W25269   4.508   8.831   3.026  0.1092 -0.1697 -0.0636
 9136W        W25270   3.732  14.129   3.193  0.2935 -0.0795 -0.2587
 9137W        W25271  17.801   5.373   2.813 -0.2406  0.0649  0.0357
 9138W        W25272   9.304  13.216   4.459  0.0703 -0.1302  0.0510
 9139W        W25273  12.971  14.141   0.182  0.0423  0.1184 -0.4179
 9140W        W25274   3.953   2.909   4.857 -0.1545 -0.2184  0.1331
 9141W        W25275   0.714   6.720   2.345 -0.1578 -0.3801 -0.2718
 9142W        W25276  11.458   1.789  14.390 -0.0761  0.0054 -0.0567
 9143W        W25277  11.507  16.726   0.589 -0.2414  0.0726 -0.0878
 9144W        W25278   7.356   9.042   4.013 -0.2509 -0.0019 -0.0193
 9145W        W25279   7.655  11.441   2.499  0.2522 -0.2672  0.2521
 9146W        W25280   3.211  12.436  16.394  0.0995  0.0270  0.2525
 9147W        W25281   5.108   2.031  11.678  0.0721  0.0884  0.1094
 9148W        W25282  14.287   0.793  13.538 -0.1900  0.0808  0.1047
 9149W        W25283  10.037   0.344   1.571  0.1557  0.1822 -0.0209
 9150W        W25284  10.708   7.548   5.193  0.0594  0.0595 -0.1599
 9151W        W25285  14.555   0.578  16.574 -0.0987 -0.0718 -0.1346
 9152W        W25286   2.767   9.287  13.276 -0.3055 -0.3808 -0.2179
 9153W        W25287   7.592   4.661   0.199  0.2236  0.0305 -0.1976
 9154W        W25288  15.180  16.117  14.719  0.0100  0.0524  0.0077
 9155W        W25289   8.820   4.736  12.213 -0.4204  0.0952 -0.1272
 9156W        W25290   2.274  12.541  12.975  0.0612 -0.2811  0.0200
 9157W        W25291  14.232   7.124  11.945 -0.4271 -0.0846 -0.0147
 9158W        W25292  13.236   5.797   2.394 -0.1889  0.0704  0.0266
 9159W        W25293  16.678   8.175   1.208  0.0369  0.0733 -0.1607
 9160W        W25294  10.814  14.145  14.193 -0.0130  0.2069  0.1291
 9161W        W25295   0.346  17.181  14.904 -0.0978  0.2787  0.0281
 9162W        W25296  15.077  13.892   1.953  0.2295 -0.1410  0.1232
 9163W        W25297  16.669  11.848   0.330  0.1040  0.1025 -0.2197
 9164W        W25298  13.397  13.867   1.992 -0.1702  0.1225 -0.4404
 9165W        W25299   8.541   4.226   3.379 -0.0767 -0.4257  0.0448
 9166W        W25300   3.597  13.964   1.624  0.1645  0.0356 -0.2314
 9167W        W25301   6.581   6.269   1.435  0.1883  0.2080 -0.0389
 9168W        W25302  13.995   5.176  13.103  0.0363 -0.1440 -0.0756
 9169W        W25303   5.555  16.540  15.687 -0.1837  0.2652 -0.1212
 9170W        W25304   1.230   9.900  14.056 -0.1051  0.1032  0.0385
 9171W        W25305  14.196   6.920   2.401 -0.0809 -0.2240 -0.2618
 9172W        W25306  17.694   3.906  15.133  0.2082 -0.1893  0.2561
 9173W        W25307  13.650   0.304  14.899 -0.0992 -0.0200  0.0454
 9174W        W25308  15.141  14.297   5.992 -0.2995  0.1567 -0.0234
 9175W        W25309  11.676  12.559   5.038  0.0900 -0.2858 -0.0863
 9176W        W25310   2.926   3.817  15.506  0.1654  0.1425 -0.0146
 9177W        W25311  15.708  15.049   2.471  0.0704 -0.3044 -0.0355
 9178W        W25312   4.732  14.336   3.464 -0.0494  0.0952 -0.0549
 9179W        W25313   5.061   0.325  15.427 -0.1330  0.1049  0.1232
 9180W        W25314  16.038   3.189  15.616 -0.0535  0.1035  0.1172
 9181W        W25315  14.756  16.469   3.236  0.1435  0.3317  0.1975
 9182W        W25316   5.856  10.205  15.666  0.2905  0.1720 -0.0113
 9183W        W25317   6.914   7.633   3.650 -0.0744 -0.1663 -0.4529
 9184W        W25318   4.451   4.497  16.494 -0.2389  0.0858 -0.0660
 9185W        W25319  11.817   1.548   3.026 -0.2164  0.4006  0.2751
 9186W        W25320   5.820  14.292   0.729  0.0295  0.0919 -0.3253
 9187W        W25321   6.077   5.118  12.820  0.0624  0.3147 -0.1616
 9188W        W25322   0.482   0.229   0.117  0.0707  0.2955  0.1081
 9189W        W25323  11.581   2.132  14.739  0.1181 -0.3922 -0.0947
 9190W        W25324  16.510   8.460  14.723 -0.0571 -0.1035 -0.0877
 9191W        W25325  12.589   1.911  15.063 -0.0858  0.0139  0.2699
 9192W        W25326  12.449   1.771  12.381 -0.0859  0.3310  0.1613
 9193W        W25327  12.843  11.516   5.192  0.0907  0.1038 -0.0750
 9194W        W25328   9.282  10.479  13.596 -0.3389 -0.2439  0.2823
 9195W        W25329   5.918  15.414   4.781  0.0782  0.2907  0.1136
 9196W        W25330   2.538  16.481  14.425 -0.0224  0.2936 -0.2876
 9197W        W25331   8.742   4.565  16.148  0.2608 -0.0248  0.0640
 9198W        W25332   3.688  12.853   0.434 -0.0438  0.0939 -0.1817
 9199W        W25333   9.564  17.028   4.459 -0.3370  0.0553 -0.1571
 9200W        W25334   4.588   0.335  13.096  0.2857  0.1936 -0.2198
 9201W        W25335  14.220   7.118  15.477  0.1056 -0.2796  0.1967
 9202W        W25336  14.207   6.269  12.054  0.0272 -0.2278  0.1101
 9203W        W25337  10.685   7.615   0.062  0.0057 -0.0347 -0.1440
 9204W        W25338   0.666   5.661  14.166 -0.1425  0.1459 -0.0812
 9205W        W25339  11.464   1.832  13.844 -0.2068 -0.1734 -0.0097
 9206W        W25340  13.271   5.422  14.160  0.0150 -0.0288 -0.0427
 9207W        W25341   9.731   2.525  13.083  0.3091 -0.3829  0.0440
 9208W        W25342  11.320  17.131   2.110  0.0809 -0.0450  0.0208
 9209W        W25343  10.012  10.759   2.849  0.0491  0.0006 -0.0325
 9210W        W25344   5.064   4.391   5.517 -0.1063 -0.3575 -0.0129
 9211W        W25345   3.117  11.247  13.466 -0.1436  0.1358  0.2922
 9212W        W25346   1.204  12.325   3.366  0.0518  0.2302  0.1406
 9213W        W25347   5.379  15.879   1.842  0.1562 -0.2529 -0.1810
 9214W        W25348   8.898  10.657   4.031 -0.0533 -0.0529 -0.3038
 9215W        W25349   1.195   5.919   3.475 -0.1497  0.0709  0.2683
 9216W        W25350   7.861   4.336   5.213  0.0297  0.0122  0.0787
 9217W        W25351   0.447   4.026  14.601  0.0510 -0.1870  0.2595
 9218W        W25352  11.795   7.253   4.523  0.1143 -0.1104  0.0573
 9219W        W25353  15.686  13.488  16.322 -0.0891  0.1330  0.1568
 9220W        W25354   3.437   3.695   0.533  0.0480  0.1975 -0.2586
 9221W        W25355   0.095   7.237  11.221 -0.5077 -0.1246 -0.3576
 9222W        W25356   2.590   1.510   3.652  0.1124  0.3513  0.2233
 9223W        W25357   4.008   5.817   3.406 -0.1461 -0.0544 -0.1895
 9224W        W25358  16.814   2.393  11.789  0.2726  0.3746 -0.1621
 9225W        W25359  15.048   5.935   2.285  0.0666 -0.0014 -0.0060
 9226W        W25360  12.565  16.567   4.093  0.1538 -0.3254  0.2066
 9227W        W25361   2.509   2.817   5.324 -0.3049 -0.0081  0.1179
 9228W        W25362   8.929   3.474   2.450 -0.0243  0.2053  0.1856
 9229W        W25363  13.004   8.642  14.111 -0.1356  0.2289 -0.2490
 9230W        W25364  16.167   1.261  13.116 -0.1522  0.1153  0.2391
 9231W        W25365  17.956   7.568   2.698 -0.3078 -0.0055  0.0544
 9232W        W25366  10.611   3.552  16.331  0.0807 -0.3550 -0.2168
 9233W        W25367  17.840   8.389  16.075 -0.1079 -0.2809  0.1574
 9234W        W25368   1.598  13.964   2.709 -0.1788  0.1195  0.0072
 9235W        W25369   6.169  14.867  14.396  0.0166  0.1610  0.3351
 9236W        W25370  17.666  17.803  11.811 -0.0119  0.1395  0.1700
 9237W        W25371  17.740   0.597  14.278 -0.0569  0.3242 -0.1644
 9238W        W25372  17.090   1.528  11.979 -0.1579  0.1151 -0.0010
 9239W        W25373   7.729  12.721   1.979  0.1017 -0.0360 -0.0026
 9240W        W25374   9.221  16.750   1.555 -0.0435 -0.3991  0.1603
 9241W        W25375  11.343   3.942  14.562  0.2140  0.0950 -0.3831
 9242W        W25376  10.473   0.902   3.486  0.2286  0.1796  0.0384
 9243W        W25377  17.266   7.390  14.857 -0.2828 -0.1298  0.0470
 9244W        W25378  15.650   5.758   0.240  0.2130  0.0417  0.0600
 9245W        W25379  16.352  16.359   0.310 -0.1548 -0.2144  0.1045
 9246W        W25380  17.678   4.448  14.068  0.3451  0.1191  0.0672
 9247W        W25381   9.806   7.588  14.006 -0.0427  0.0623  0.0816
 9248W        W25382   9.343   7.379  16.488 -0.2359  0.0656 -0.1099
 9249W        W25383   6.531   0.195   3.343 -0.2993  0.1052 -0.1181
 9250W        W25384   9.420   7.749   1.792  0.1957  0.1977  0.1132
 9251W        W25385   5.469   9.176   3.282 -0.2935 -0.1653 -0.1759
 9252W        W25386   3.427   8.406  14.056  0.0922 -0.1036  0.0371
 9253W        W25387   9.244   3.030   5.772  0.0351 -0.1600  0.1196
 9254W        W25388  14.432   8.057  11.976  0.2672  0.1131 -0.1196
 9255W        W25389   5.082   0.708   3.412 -0.0928 -0.0438 -0.0828
 9256W        W25390   8.747   0.002  13.232 -0.0022 -0.0133 -0.1752
 9257W        W25391   6.949  15.525   0.893 -0.0394 -0.1088 -0.0502
 9258W        W25392   6.359   4.953   5.181 -0.0066  0.2514  0.2905
 9259W        W25393   1.376  10.138   0.392 -0.0862  0.1139 -0.1607
 9260W        W25394  11.395   0.397   3.512  0.0033  0.2006  0.3534
 9261W        W25395   5.065  14.799   5.713  0.1137  0.0654  0.0354
 9262W        W25396   9.298   2.005  12.016 -0.0844  0.0416  0.0223
 9263W        W25397   1.628   5.964  12.663 -0.0628  0.1820  0.0666
 9264W        W25398  14.698   5.549   4.958 -0.2112  0.0435 -0.4778
 9265W        W25399   0.029  16.913   4.732 -0.3732  0.0883  0.1380
 9266W        W25400   7.395   6.520   3.005  0.1453 -0.1016 -0.2596
 9267W        W25401   7.907  15.984   0.675 -0.1694 -0.1411  0.1444
 9268W        W25402  17.820  17.252   2.805 -0.0807 -0.1306 -0.3221
 9269W        W25403   1.932   3.811  13.828  0.2018  0.0419 -0.0984
 9270W        W25404   7.950   1.541   5.266 -0.0614  0.2062 -0.0279
 9271W        W25405   8.985   2.436  15.296 -0.3374  0.0815 -0.1974
 9272W        W25406   5.571  13.077   4.011  0.1016 -0.0619 -0.1172
 9273W        W25407  11.049  10.924   3.770  0.1820  0.0647 -0.2382
 9274W        W25408  17.318   5.107   0.651 -0.2343  0.1127  0.0386
 9275W        W25409   8.701   1.471   5.127 -0.3543 -0.1108  0.0159
 9276W        W25410   6.607   6.024   0.986  0.0619  0.2100  0.1488
 9277W        W25411   1.705   7.574  15.934  0.2290  0.0377 -0.0850
 9278W        W25412   2.258   6.732  13.204  0.0357 -0.0371  0.1366
 9279W        W25413  16.848  17.272  15.084 -0.2585  0.2838 -0.0104
 9280W        W25414   9.193   9.562   3.017 -0.0144  0.0827  0.0957
 9281W        W25415  11.796  15.131   2.686 -0.2602 -0.1776  0.0260
 9282W        W25416  16.166  16.703  11.010 -0.0746 -0.2057 -0.2791
 9283W        W25417   7.415   7.755   0.866  0.1003 -0.1661 -0.1954
 9284W        W25418  16.170   3.778  11.517  0.2645  0.1051 -0.0197
 9285W        W25419  11.877  11.906  12.092 -0.0623  0.2590 -0.1335
 9286W        W25420   4.446  15.820  16.059 -0.0780 -0.2011  0.2014
 9287W        W25421   0.004  15.720   2.310  0.0559 -0.0920  0.1205
 9288W        W25422  13.632  14.061   3.788  0.2032  0.0921 -0.0585
 9289W        W25423  13.778   4.659  14.738  0.1344 -0.0476  0.3403
 9290W        W25424  13.116  16.828  12.608 -0.2355  0.0567  0.1758
 9291W        W25425   6.006  15.171   2.903 -0.0823 -0.1400  0.2340
 9292W        W25426  10.955   5.385  14.975 -0.1452 -0.1885 -0.0044
 9293W        W25427   7.498   4.860  16.181  0.2251  0.1714  0.1367
 9294W        W25428  10.757   7.482  14.853  0.0622  0.2093  0.0979
 9295W        W25429   5.457  14.983   1.329  0.3993  0.0120  0.1306
 9296W        W25430  15.006  13.932  13.626 -0.0910 -0.0460 -0.1065
 9297W        W25431   7.190  14.173  12.149  0.0840  0.1881 -0.0479
 9298W        W25432   2.941   4.716   3.163  0.0149  0.3622  0.0156
 9299W        W25433  10.142   5.940   1.171 -0.2242 -0.3584  0.0492
 9300W        W25434  15.590   7.161  15.390  0.2854  0.0254 -0.1352
 9301W        W25435   6.855   5.541   0.843  0.1004  0.1036  0.0800
 9302W        W25436   7.633  12.788  13.423 -0.0462 -0.0821 -0.0267
 9303W        W25437   1.950  17.112   3.486 -0.1305  0.4069 -0.0522
 9304W        W25438   1.832   6.939   3.127 -0.4616  0.4231  0.0659
 9305W        W25439  10.234  13.993   5.398 -0.1035  0.0703  0.0271
 9306W        W25440  16.872   2.972  12.010 -0.2717 -0.1399 -0.2743
 9307W        W25441  15.843  10.641  12.194 -0.0907 -0.0528 -0.0356
 9308W        W25442  15.848   9.727  12.369  0.1032  0.0117  0.2646
 9309W        W25443  12.042   7.086  13.507  0.0262  0.0732 -0.1141
 9310W        W25444   9.841  13.461  13.613  0.0222  0.1370 -0.5146
 9311W        W25445   5.888  13.857  11.854 -0.0856 -0.0511 -0.1613
 9312W        W25446   2.405   1.663   5.626 -0.2399  0.0119 -0.1542
 9313W        W25447  12.301  14.242   1.773 -0.1299 -0.2358 -0.3193
 9314W        W25448   5.067   7.734  11.202  0.0518  0.0852  0.1214
 9315W        W25449   9.704  17.838  14.322  0.1735  0.1533 -0.1591
 9316W        W25450   7.070  17.624   3.572 -0.1810  0.1445 -0.0248
 9317W        W25451  16.853  11.690  11.867 -0.0132  0.1623  0.2783
 9318W        W25452  14.597   9.685  11.041 -0.1274  0.0589  0.1317
 9319W        W25453   3.848  11.540   4.490  0.1591  0.1782 -0.2470
 9320W        W25454   1.980  17.056  14.212 -0.1127 -0.6914  0.1413
 9321W        W25455  11.219   8.185   4.642  0.1536  0.3948  0.4232
 9322W        W25456  12.373   0.466   3.303 -0.0537  0.0916  0.3714
 9323W        W25457  12.351   2.947  14.165  0.1462 -0.0482  0.0964
 9324W        W25458  10.905   0.568   3.524  0.2887  0.2032 -0.2653
 9325W        W25459   5.311  10.603  11.324  0.1374  0.0774  0.1654
 9326W        W25460   6.808   8.198  16.205  0.0903  0.2765  0.1360
 9327W        W25461  10.151   6.427   5.946 -0.1778 -0.2419  0.0585
 9328W        W25462  15.573   4.554  11.921 -0.0112  0.3184  0.0428
 9329W        W25463  11.602  11.909  11.667  0.2094 -0.0781 -0.1240
 9330W        W25464   6.147  15.805   5.030 -0.1427  0.2260  0.0749
 9331W        W25465   4.823   8.607   1.701 -0.0194  0.1102 -0.1933
 9332W        W25466  12.505  14.153  12.025  0.1116  0.1534  0.0720
 9333W        W25467  17.266  14.405   0.246  0.2143  0.0474 -0.1718
 9334W        W25468  17.103   5.959  13.315 -0.1148 -0.0058 -0.1703
 9335W        W25469  13.296  11.226  14.577  0.0974  0.2504 -0.1993
 9336W        W25470  15.599   5.258   2.372  0.3124 -0.1165 -0.0617
 9337W        W25471  15.088   3.370  15.725  0.0819 -0.0318  0.1416
 9338W        W25472  17.220   9.510   0.452  0.0036  0.5289 -0.0222
 9339W        W25473   4.770   0.548   0.973  0.0352 -0.1050 -0.2526
 9340W        W25474   0.603   6.052  15.303 -0.2312 -0.1769  0.0013
 9341W        W25475  16.620  17.663  16.402 -0.0706  0.2438 -0.1939
 9342W        W25476   3.417   5.169  12.456  0.0995  0.1769  0.0360
 9343W        W25477   5.403   6.579   2.897 -0.1703 -0.2451  0.0038
 9344W        W25478   7.090  11.207   3.303 -0.2324 -0.3277  0.0757
 9345W        W25479  14.006   4.715   4.867  0.1482 -0.3282  0.0700
 9346W        W25480   7.873  10.750   1.721 -0.0386 -0.1219  0.0851
 9347W        W25481   5.488   4.458   2.175 -0.1225  0.0921  0.4203
 9348W        W25482   0.813  11.027   1.667 -0.1144 -0.0474  0.4585
 9349W        W25483   8.072  11.528  15.699 -0.0764 -0.1114 -0.2781
 9350W        W25484  12.011  14.622   5.259  0.0891 -0.3275 -0.0079
 9351W        W25485  10.056  16.756   4.056  0.0209 -0.0576 -0.0212
 9352W        W25486  14.891  13.723   3.671 -0.0461  0.2143 -0.2764
 9353W        W25487   0.475   1.419   2.612 -0.2265  0.0032 -0.1719
 9354W        W25488  16.120   3.505   1.066 -0.0651 -0.0442 -0.4212
 9355W        W25489  15.808  14.423  13.768 -0.3398 -0.0619 -0.0967
 9356W        W25490   5.170  14.349  16.134 -0.0160 -0.1231  0.1153
 9357W        W25491  13.872   3.693  13.409  0.0473  0.2017 -0.0534
 9358W        W25492   4.173   4.865   5.945 -0.1115  0.1305 -0.0172
 9359W        W25493  11.680  10.416   4.489 -0.1406 -0.0713  0.2854
 9360W        W25494   2.520   6.060  15.679 -0.0476  0.0596 -0.1079
 9361W        W25495  16.169   4.333  13.975  0.1316  0.1066 -0.1729
 9362W        W25496   4.098   4.083   6.468  0.0981  0.2256  0.1693
 9363W        W25497  10.114  16.921  15.421 -0.2419 -0.1843 -0.1026
 9364W        W25498  17.318   0.934   4.673 -0.2769  0.0530  0.0542
 9365W        W25499  12.596   7.964  14.177 -0.4032 -0.1623  0.0249
 9366W        W25500   0.879  16.893  16.344  0.1080 -0.2607  0.2767
 9367W        W25501  15.957   9.199  14.930  0.1462 -0.1820  0.2210
 9368W        W25502  15.403   9.395   3.993  0.2168 -0.4259 -0.1948
 9369W        W25503  10.952  14.683  12.220  0.1417 -0.1747 -0.2887
 9370W        W25504   3.105  13.015  14.616 -0.0099 -0.0931  0.2671
 9371W        W25505   8.863  13.151  12.239 -0.4335  0.1123  0.1581
 9372W        W25506  16.979  17.191  12.747 -0.0645 -0.0223 -0.0321
 9373W        W25507   8.435  16.374   2.404  0.0508 -0.1026 -0.0042
 9374W        W25508   3.097   5.827  12.938 -0.0224 -0.0653  0.1760
 9375W        W25509  15.489   7.785   3.491 -0.0386  0.3391 -0.0334
 9376W        W25510   0.256  11.113  12.184  0.0867 -0.1197  0.3132
 9377W        W25511  16.826   9.551  11.717 -0.2676 -0.3784  0.0572
 9378W        W25512   4.080  11.565  16.401 -0.2819  0.1362 -0.2123
 9379W        W25513   6.933  11.880   4.330  0.1582  0.0820  0.1455
 9380W        W25514  14.272   2.390   1.472  0.1578  0.0664  0.1208
 9381W        W25515  12.850  16.152   4.736 -0.1079  0.1383 -0.0743
 9382W        W25516   3.955   3.865   3.078 -0.2382 -0.0640  0.1501
 9383W        W25517   1.201   2.089  14.442 -0.0330  0.0110  0.0963
 9384W        W25518   3.087  13.813   1.930  0.2586  0.0042 -0.1751
 9385W        W25519  10.946   1.789   4.846  0.2565 -0.1740 -0.3597
 9386W        W25520   6.727  15.133   1.202 -0.0188 -0.1007 -0.1330
 9387W        W25521  14.469  16.195   4.870  0.0216  0.0059  0.0430
 9388W        W25522  13.139   1.154   4.771  0.2884  0.0635  0.1717
 9389W        W25523   8.712  12.759  14.230  0.1365 -0.2478  0.0967
 9390W        W25524  14.241  13.109   2.934  0.0305  0.1101 -0.0014
 9391W        W25525  15.021   0.044  14.453  0.0466  0.3404  0.2246
 9392W        W25526  10.634  12.502   2.995  0.1862  0.0678 -0.1376
 9393W        W25527   1.822  16.123  15.822 -0.0189 -0.0302  0.0281
 9394W        W25528   1.704  15.172   3.671  0.0392  0.1431  0.2267
 9395W        W25529   4.946  11.571   5.405 -0.1219  0.1237 -0.1635
 9396W        W25530  14.616  15.115  12.048  0.1247  0.0318 -0.0613
 9397W        W25531   7.628  13.222   2.127 -0.0248 -0.2665 -0.1525
 9398W        W25532  12.705  15.994   5.310 -0.0903  0.1161 -0.1333
 9399W        W25533  13.978   3.972   0.985 -0.5130 -0.0702 -0.0027
 9400W        W25534  15.191  11.700  15.297 -0.1288 -0.0512 -0.0300
 9401W        W25535  16.535   1.005  13.444  0.0466  0.0284 -0.0479
 9402W        W25536  11.916   8.275  13.056  0.0580  0.2311 -0.3926
 9403W        W25537   4.492  15.369   5.528 -0.1837 -0.3012 -0.2185
 9404W        W25538  15.075   8.750   2.496  0.1692  0.1440 -0.1408
 9405W        W25539   7.299   4.194   1.008  0.0162  0.0543  0.3289
 9406W        W25540   6.443  15.709  14.298  0.0494  0.0178  0.1861
 9407W        W25541   7.248   5.163   1.005 -0.0826 -0.1715  0.0078
 9408W        W25542  16.945   8.987  12.282  0.0265  0.1536  0.2447
 9409W        W25543   5.547   5.372   4.514  0.2704 -0.2018 -0.1388
 9410W        W25544   9.425  10.943   0.676  0.1806  0.2996 -0.2173
 9411W        W25545  14.968   0.647  10.876  0.3128  0.0445  0.3973
 9412W        W25546  10.883  14.302   1.104  0.0509  0.0401  0.1600
 9413W        W25547  11.591   9.047  11.228 -0.1499 -0.0455 -0.1846
 9414W        W25548   5.698   6.573   1.431  0.0019 -0.4271 -0.2617
 9415W        W25549   9.513   3.979  12.625 -0.3717 -0.0223  0.0083
 9416W        W25550  16.927   3.794   0.314  0.0248 -0.0632  0.0858
 9417W        W25551   6.601   0.508   5.529 -0.0114  0.0692 -0.0066
 9418W        W25552   9.546   5.961  13.373 -0.0485  0.2753  0.3684
 9419W        W25553  12.362  10.201   0.253  0.1741 -0.2011  0.2409
 9420W        W25554  11.175   7.362   4.931  0.0728  0.3653 -0.0488
 9421W        W25555   2.019   6.194   3.794 -0.0563  0.1327 -0.4425
 9422W        W25556   0.780   0.255   0.801  0.1009  0.1254  0.0064
 9423W        W25557  17.101   8.252  13.885 -0.1655  0.0773 -0.2531
 9424W        W25558  16.275  10.168   2.339  0.0267  0.3236  0.1799
 9425W        W25559   6.244   4.249   4.500 -0.1166  0.1217  0.1777
 9426W        W25560   0.136  16.287  16.580  0.0771 -0.2752 -0.1719
 9427W        W25561  14.921   0.294   3.197 -0.0644  0.0937  0.2241
 9428W        W25562  13.765   1.707   4.916 -0.0767  0.2287  0.0615
 9429W        W25563   9.330   2.467  12.824 -0.0419  0.0326 -0.4739
 9430W        W25564  13.590  16.080   4.145  0.3134 -0.3178 -0.2418
 9431W        W25565   4.531  16.462  12.931  0.1969  0.2493 -0.0144
 9432W        W25566  14.594  13.182  15.112  0.0932 -0.1288 -0.0248
 9433W        W25567   8.483   2.706   5.421  0.0963 -0.2015  0.3064
 9434W        W25568  11.660  15.324  13.327 -0.0436 -0.0837 -0.0435
 9435W        W25569   8.422  12.006  15.011  0.3613  0.1015  0.3151
 9436W        W25570   4.100   3.444   2.653 -0.4689  0.0802 -0.1348
 9437W        W25571   0.789   6.385  16.398  0.4943  0.1982 -0.0175
 9438W        W25572   3.696  10.149   0.557 -0.2446  0.0304  0.4153
 9439W        W25573  16.889  10.082   1.618 -0.0739  0.0167  0.3113
 9440W        W25574   0.069  11.829   3.274 -0.1305 -0.1241 -0.2016
 9441W        W25575  11.457  12.039   3.261 -0.0583 -0.1933  0.1094
 9442W        W25576  15.896   9.182   3.036  0.0707  0.2338  0.2712
 9443W        W25577   3.110  14.677   5.837 -0.0623  0.0797 -0.0542
 9444W        W25578  14.033   8.070   4.772  0.1005  0.1535 -0.3112
 9445W        W25579  10.811  15.154  12.017 -0.2121 -0.0775 -0.3983
 9446W        W25580  17.048  10.212   1.001 -0.2624 -0.0883  0.1978
 9447W        W25581   7.903   4.318   4.680  0.0856  0.1709 -0.2096
 9448W        W25582   6.037   2.058  14.297  0.1693  0.0811  0.1340
 9449W        W25583   1.764   8.304   2.788  0.0970 -0.2487  0.2373
 9450W        W25584   9.905  11.778   1.421  0.0620 -0.0287  0.0141
 9451W        W25585   0.070   7.162   0.598  0.0816 -0.1139 -0.1204
 9452W        W25586  14.554  16.700   1.043  0.1159  0.0933  0.0236
 9453W        W25587  15.540   3.770  11.629 -0.0246  0.0791  0.0192
 9454W        W25588  14.895   8.480  14.478 -0.3886 -0.0523  0.2617
 9455W        W25589   8.035   6.414  11.637 -0.0007  0.0793  0.0269
 9456W        W25590  14.608  14.805  13.291 -0.0912 -0.0285  0.1636
 9457W        W25591  13.866  10.694   4.053 -0.0804 -0.2082 -0.1768
 9458W        W25592   1.029   4.187  12.382  0.2532  0.2541 -0.0986
 9459W        W25593   8.847   2.623   1.193  0.1864 -0.0623  0.0717
 9460W        W25594   6.660  17.659  16.405 -0.0953 -0.4612  0.0812
 9461W        W25595   5.319  14.960   4.119 -0.2667  0.3461 -0.1678
 9462W        W25596  10.118  17.891  12.652  0.2081  0.0248  0.0757
 9463W        W25597   2.516   3.906   0.132  0.2879 -0.1996  0.0392
 9464W        W25598  12.896   7.679   3.712 -0.1545  0.1303 -0.0278
 9465W        W25599  13.567  16.993   1.034  0.0312 -0.1443 -0.1372
 9466W        W25600  14.022  11.630  15.031 -0.2252  0.3273  0.2936
 9467W        W25601   8.403  15.829  14.902  0.0870 -0.2837 -0.0229
 9468W        W25602   2.651   3.747  11.650  0.1273 -0.1052 -0.1963
 9469W        W25603  16.128   1.477  13.943  0.0661 -0.0060  0.2069
 9470W        W25604  16.994   6.695   5.750 -0.0365  0.0299  0.1413
 9471W        W25605   6.144   3.075   5.141 -0.1911 -0.0315  0.2836
 9472W        W25606   7.290  10.704  12.324 -0.1881 -0.2651  0.0242
 9473W        W25607  17.426   8.599  15.760 -0.0520 -0.1238 -0.0153
 9474W        W25608  13.133  17.940   4.031  0.1275 -0.4394 -0.0209
 9475W        W25609  16.777   3.948  15.656  0.4240  0.3099 -0.0969
 9476W        W25610   5.516  13.229  13.466 -0.0731 -0.1204 -0.1443
 9477W        W25611  16.854   2.372   1.333 -0.0245 -0.3099  0.2031
 9478W        W25612   7.952   6.249   1.211  0.1847 -0.4075 -0.1220
 9479W        W25613   4.168   2.892   4.283  0.2236 -0.2131 -0.2784
 9480W        W25614  16.026   8.361   4.812  0.2089  0.1198  0.2813
 9481W        W25615   0.953   4.407  13.121  0.2412 -0.1783 -0.1412
 9482W        W25616  16.519   4.783  12.375  0.0741 -0.1635  0.0746
 9483W        W25617  12.322   8.846  14.579  0.2707  0.2956 -0.0634
 9484W        W25618   5.250  17.703   1.337 -0.0163  0.0647  0.0892
 9485W        W25619   3.337  16.076   0.606 -0.4588 -0.3821  0.0727
 9486W        W25620   8.992  15.497   5.631  0.0745  0.0168  0.2124
 9487W        W25621   0.544   1.433  12.537  0.0374  0.0480  0.5403
 9488W        W25622   5.903  11.068  13.110 -0.0011 -0.1229 -0.0711
 9489W        W25623   9.670  12.107   3.117 -0.1571  0.0544  0.1729
 9490W        W25624  11.497   1.594  16.331  0.5270 -0.1841  0.0643
 9491W        W25625   9.333   8.547   4.521 -0.1056 -0.2764 -0.2536
 9492W        W25626  14.805   9.324   4.914 -0.0494  0.3025 -0.1281
 9493W        W25627  17.651   5.987  15.216  0.1682 -0.0344  0.0034
 9494W        W25628   9.690   4.875  16.157  0.0918  0.3528 -0.2045
 9495W        W25629   0.386   0.679  14.817 -0.0028  0.0138 -0.1115
 9496W        W25630  13.588  13.522   2.356  0.0478  0.0288 -0.4718
 9497W        W25631   1.512   7.763   2.481 -0.0993  0.0358 -0.0247
 9498W        W25632  14.604   4.425  14.173  0.1239  0.0672 -0.1203
 9499W        W25633   8.290  11.942  11.431  0.0752 -0.2629 -0.4426
 9500W        W25634   6.661   9.015  11.995  0.0445 -0.0412 -0.0705
 9501W        W25635   3.801   4.843  16.187 -0.2318 -0.1592 -0.0754
 9502W        W25636   7.583   5.213  15.375 -0.1547 -0.0096 -0.0586
 9503W        W25637  17.074   2.492  14.925 -0.0480  0.3429  0.1932
 9504W        W25638   5.267   0.171   2.202  0.0180  0.0535 -0.2467
 9505W        W25639  10.333  14.829  11.544 -0.1390 -0.1639 -0.2180
 9506W        W25640   8.136  16.689   0.034  0.1224  0.5876  0.0728
 9507W        W25641   4.283  14.020  12.345 -0.0192 -0.0025 -0.2054
 9508W        W25642   4.733  11.114   2.232 -0.3897  0.1405 -0.4005
 9509W        W25643  13.404   5.511  16.573 -0.0787  0.2969  0.3003
 9510W        W25644   7.071  10.451  14.282  0.2510 -0.0157 -0.0563
 9511W        W25645   9.214   8.507  15.816  0.1513  0.0850 -0.0574
 9512W        W25646   6.163   9.921  12.383 -0.1136  0.0745 -0.0189
 9513W        W25647   7.148   4.700  14.042 -0.2403  0.4195  0.2161
 9514W        W25648   7.806   3.944  10.686 -0.1007 -0.0785  0.1063
 9515W        W25649   1.066   0.878   2.673 -0.0651 -0.0431 -0.0848
 9516W        W25650   1.434  13.867   2.252 -0.1992 -0.1238  0.1385
 9517W        W25651  14.660   7.821   1.210  0.0112  0.2678  0.2985
 9518W        W25652   9.454   6.091   2.887  0.2047  0.0187  0.1552
 9519W        W25653  13.610   1.367   2.968  0.0125 -0.0108 -0.2175
 9520W        W25654   5.175  14.388   3.251 -0.1942 -0.0831  0.0295
 9521W        W25655  12.700  16.879  15.115 -0.0531 -0.0105 -0.1252
 9522W        W25656   7.197   9.873  12.565 -0.1112 -0.0472 -0.2099
 9523W        W25657  13.849   7.359  11.687  0.4638 -0.0130  0.0467
 9524W        W25658  11.608  17.223   5.263 -0.2311 -0.3562 -0.0394
 9525W        W25659  12.472   2.402  15.063  0.0848 -0.0111  0.2167
 9526W        W25660   3.054   7.468  14.151 -0.0263  0.0434  0.0716
 9527W        W25661   1.874  16.868  16.363 -0.6718 -0.1088 -0.5092
 9528W        W25662   1.646  16.277   4.949  0.0773  0.2163  0.2600
 9529W        W25663   6.539   1.301  14.542  0.2908 -0.1767  0.0585
 9530W        W25664  12.217  10.806  16.363  0.3095 -0.1826  0.2081
 9531W        W25665  11.245  10.791   5.269 -0.3615 -0.3492 -0.1478
 9532W        W25666   5.148   7.443   5.062 -0.1950  0.0011 -0.0280
 9533W        W25667   4.239   8.602  14.124  0.0776 -0.0463  0.4689
 9534W        W25668   6.365   6.173  11.714 -0.4789 -0.0908 -0.0349
 9535W        W25669  16.664   8.122  15.847 -0.0665  0.2703 -0.1136
 9536W        W25670   1.496  15.349  13.626  0.0178 -0.1862  0.1660
 9537W        W25671   4.188   6.269  11.305 -0.3013  0.1549 -0.4052
 9538W        W25672   4.843  16.176   4.121  0.0860 -0.1365  0.0005
 9539W        W25673   2.683   6.366   5.932  0.1684 -0.0658  0.4709
 9540W        W25674  14.660  13.055   1.558  0.3112  0.0105 -0.0184
 9541W        W25675  11.528   5.870  12.193 -0.1097 -0.1043  0.1224
 9542W        W25676   3.544   1.408   5.037 -0.0202  0.1421  0.2265
 9543W        W25677   5.999  12.147   0.522  0.2182  0.0553 -0.0154
 9544W        W25678  12.767  16.669  13.783  0.2181 -0.0964  0.0765
 9545W        W25679   1.071  13.201   2.929  0.1022 -0.0552 -0.2696
 9546W        W25680   5.707   1.166   4.493  0.1126 -0.1003 -0.0755
 9547W        W25681   5.778   9.272   0.526 -0.0088  0.6038 -0.3220
 9548W        W25682  15.006  10.270   1.991 -0.0110  0.0434  0.3025
 9549W        W25683   7.921   4.296   3.983 -0.1348  0.1719 -0.0620
 9550W        W25684  15.288  15.419  12.828  0.2870 -0.0823 -0.0876
 9551W        W25685  14.626  17.877   1.464 -0.2819  0.2579 -0.2207
 9552W        W25686  12.502  14.245  12.557  0.0025 -0.0972  0.1199
 9553W        W25687   3.587  13.559  12.572 -0.0315 -0.2639  0.0659
 9554W        W25688  11.194  14.241  14.466 -0.0175  0.2966  0.0994
 9555W        W25689  16.301   2.714   4.685  0.1883 -0.0341  0.0908
 9556W        W25690  16.507   7.422  11.522 -0.2410  0.0174  0.2080
 9557W        W25691  15.421   3.422   0.432 -0.1219 -0.0275  0.0722
 9558W        W25692   1.888  12.247   5.164  0.0978 -0.1449 -0.1215
 9559W        W25693   9.338  16.649  12.019  0.2792 -0.0351  0.1214
 9560W        W25694  14.502   2.245   4.262  0.0426  0.0008 -0.0062
 9561W        W25695   6.124   6.119   1.148  0.0419 -0.2400 -0.0193
 9562W        W25696  12.218   6.018  16.288 -0.0399 -0.0594 -0.1248
 9563W        W25697   9.623  13.775  11.430  0.2780 -0.2567 -0.1114
 9564W        W25698   2.381   4.231   1.757  0.1334 -0.1154 -0.0527
 9565W        W25699   7.227  17.707  15.230 -0.3431 -0.1711 -0.1304
 9566W        W25700  12.906   7.072   0.107 -0.1464 -0.0114  0.0880
 9567W        W25701   3.816   5.087   2.329 -0.2550  0.3308 -0.1872
 9568W        W25702   5.176   2.691  12.966  0.0388  0.0450  0.1369
 9569W        W25703  10.974   9.080  11.131  0.3231  0.2295  0.1879
 9570W        W25704   5.398   6.379  12.947 -0.0395  0.2371  0.0454
 9571W        W25705   9.719  10.821  11.531  0.0723  0.0488 -0.1216
 9572W        W25706  17.278  15.008   0.835 -0.0034  0.2263  0.3537
 9573W        W25707   4.250  11.433   5.374  0.0397 -0.2208  0.0770
 9574W        W25708   6.038   4.722  16.186 -0.1071 -0.0127  0.2317
 9575W        W25709  10.602  15.871  13.071 -0.1203 -0.0755  0.0811
 9576W        W25710  17.779  10.988  12.370 -0.1562  0.0902 -0.0065
 9577W        W25711  13.377  14.539   4.721 -0.0155  0.0018  0.2784
 9578W        W25712   2.489   8.418   3.270  0.2547 -0.2900 -0.0789
 9579W        W25713   8.179   4.215  12.912 -0.2013  0.0302 -0.1110
 9580W        W25714  13.259   9.462  11.184 -0.0995 -0.0838 -0.2750
 9581W        W25715   7.314   2.022   1.856 -0.1144 -0.2152 -0.2907
 9582W        W25716   4.653   1.813  12.997  0.4738 -0.0302  0.1274
 9583W        W25717   0.576  10.305  12.299  0.5189 -0.1260 -0.3307
 9584W        W25718   8.460   8.781  14.213  0.0061 -0.1637  0.2491
 9585W        W25719   5.428   3.340   2.112 -0.1975 -0.1794 -0.2107
 9586W        W25720   9.359  12.267   4.430  0.1252  0.0792 -0.0785
 9587W        W25721   8.324   1.872  12.361  0.2407 -0.1847  0.4073
 9588W        W25722   1.481   4.367  15.751 -0.1051 -0.0687  0.1986
 9589W        W25723   8.502  14.075  12.985  0.0410  0.0395 -0.0702
 9590W        W25724   9.335   3.688  13.047  0.1933 -0.0611 -0.3154
 9591W        W25725  14.211   5.817  15.973  0.0665 -0.0841  0.2588
 9592W        W25726   7.798  14.275   1.472  0.0764  0.2928 -0.0804
 9593W        W25727   6.903  10.989  16.225 -0.0493 -0.3342  0.2139
 9594W        W25728   8.904  16.954   5.055  0.1621 -0.1201  0.2356
 9595W        W25729  13.789   4.668  13.016 -0.0683  0.2527  0.1721
 9596W        W25730  13.690  11.099   0.075  0.0502  0.0225 -0.0519
 9597W        W25731   1.389   4.269   2.362 -0.1270 -0.0716 -0.0299
 9598W        W25732   1.031  12.660  15.093  0.0385  0.0224  0.0133
 9599W        W25733   9.377  14.428  15.063  0.0212 -0.0720 -0.0189
 9600W        W25734   9.650  15.410   5.677 -0.0062  0.0838  0.1370
 9601W        W25735   2.835   5.197   3.400 -0.0736 -0.1336 -0.0446
 9602W        W25736   9.350  15.375   3.343  0.1374  0.2187  0.2051
 9603W        W25737  10.797  11.957  12.851 -0.0622 -0.2432 -0.2547
 9604W        W25738   0.562  13.281  14.055 -0.0523  0.0173 -0.0336
 9605W        W25739  12.111  10.392  13.146  0.2004  0.2648  0.0391
 9606W        W25740  17.022   7.528   2.987 -0.0597  0.2336  0.0238
 9607W        W25741   2.008   1.139   2.844  0.0909 -0.0635 -0.4283
 9608W        W25742   8.960   4.129   3.056 -0.0158  0.1519 -0.3213
 9609W        W25743  15.766   2.957   2.376  0.1152 -0.0588  0.1053
 9610W        W25744   7.659  15.263  10.939  0.1304 -0.2863  0.0086
 9611W        W25745  10.434  16.193   5.083 -0.1842  0.0028 -0.4304
 9612W        W25746   8.749   4.927  11.306 -0.0690  0.1413 -0.3423
 9613W        W25747   2.012   5.774   1.924 -0.1482  0.1494 -0.0452
 9614W        W25748  15.663  11.965  14.560  0.2973 -0.1940  0.3561
 9615W        W25749   4.749   8.508  13.504  0.2318  0.0690 -0.2027
 9616W        W25750   3.939  16.693  13.508 -0.1801 -0.2656  0.0575
 9617W        W25751  16.701  16.124  16.690  0.2947  0.1522 -0.3351
 9618W        W25752   9.520   3.116   0.531  0.1802 -0.0572  0.2333
 9619W        W25753  12.102   6.108  15.684 -0.0193  0.0050  0.1750
 9620W        W25754   9.221   5.213  14.650  0.0529  0.0522 -0.0051
 9621W        W25755  11.464   1.694  14.882 -0.2259  0.2855  0.2095
 9622W        W25756  16.130   0.103   3.406  0.0457  0.3292 -0.2894
 9623W        W25757   3.368  17.891  15.830 -0.0280 -0.4048  0.0842
 9624W        W25758  11.763   9.387   0.430 -0.1676  0.0461  0.1845
 9625W        W25759   7.164  12.770  15.255 -0.1531  0.0458  0.1179
 9626W        W25760  12.549   8.918   4.381  0.1693  0.1072 -0.0796
 9627W        W25761   1.158   5.247   2.210 -0.1778 -0.1194 -0.1110
 9628W        W25762   7.057  13.220   0.917  0.1467  0.2282  0.2214
 9629W        W25763  16.965  12.279  16.309 -0.2426  0.3632 -0.4345
 9630W        W25764  10.176   1.907  12.529  0.0530 -0.0407 -0.3091
 9631W        W25765  14.095   6.283  15.712 -0.2300 -0.2396 -0.0080
 9632W        W25766  12.899  11.934  12.465  0.0482  0.1112 -0.1194
 9633W        W25767   4.685   4.666   2.846  0.0774 -0.1138 -0.1478
 9634W        W25768  15.365   4.665  11.256  0.2008 -0.0739  0.4557
 9635W        W25769   3.447   2.820   4.975 -0.0098  0.2291 -0.0120
 9636W        W25770   0.165   3.545  10.205  0.3162  0.1678  0.3616
 9637W        W25771  11.526   7.268   0.927 -0.2357  0.1300  0.0273
 9638W        W25772   0.190   0.254   2.025 -0.1685  0.4460  0.1139
 9639W        W25773   9.659   8.283  14.696  0.2634 -0.2909 -0.0892
 9640W        W25774  11.924   2.705   0.643 -0.0517 -0.1228 -0.1158
 9641W        W25775  15.170   5.739   5.805 -0.3237  0.1943  0.0164
 9642W        W25776  14.950   0.805   3.928 -0.1691 -0.0652 -0.0920
 9643W        W25777   7.992  16.092   5.400  0.1489 -0.0279  0.0645
 9644W        W25778   6.361   5.513   5.261  0.1846 -0.3314 -0.0111
 9645W        W25779   8.097   8.924   1.405 -0.1685 -0.2595 -0.0654
 9646W        W25780   3.217  14.938  12.687 -0.1248  0.1187 -0.1675
 9647W        W25781   2.064   9.820   5.643 -0.0077 -0.2321  0.1435
 9648W        W25782  14.954  13.953   4.118  0.0420 -0.0585 -0.0712
 9649W        W25783  10.926   2.715  15.353  0.0351 -0.1044  0.0130
 9650W        W25784   7.724  16.276   3.060  0.0627 -0.0186 -0.0087
 9651W        W25785  11.735  10.957  13.673 -0.1963  0.4057 -0.0271
 9652W        W25786  15.995  10.542   2.576  0.0684 -0.2525 -0.1022
 9653W        W25787   7.640   5.398   6.156  0.0172  0.0645 -0.1705
 9654W        W25788   0.394   3.099  13.543  0.1122 -0.2494 -0.1773
 9655W        W25789  16.195   3.956   2.519 -0.1398 -0.1178  0.1260
 9656W        W25790  10.795   8.932  11.670 -0.0858 -0.0255 -0.1377
 9657W        W25791  10.733  15.584  14.116 -0.1320 -0.1429  0.2010
 9658W        W25792  11.351  11.698   5.281  0.0382  0.0737  0.2446
 9659W        W25793   8.960   4.965   1.536 -0.0171 -0.1236  0.2337
 9660W        W25794  11.616   9.666  10.265 -0.2917 -0.1302  0.2151
 9661W        W25795  12.030  15.068   4.301 -0.2258  0.0405  0.0682
 9662W        W25796   1.273  14.110   5.530 -0.1926  0.4157  0.1313
 9663W        W25797   8.310   1.217   0.001  0.1049  0.0721 -0.0059
 9664W        W25798   7.560   6.520   4.265 -0.1962 -0.3439 -0.1233
 9665W        W25799  14.622  16.796   5.956  0.0068  0.0428 -0.1152
 9666W        W25800  15.874  11.180  14.921 -0.0046 -0.0950 -0.0649
 9667W        W25801   2.890   1.252  14.760  0.1321  0.1830  0.0564
 9668W        W25802   5.101  15.351   1.162 -0.0450  0.0671  0.1148
 9669W        W25803  16.785  11.252   4.274 -0.2297  0.0246 -0.0973
 9670W        W25804   5.887   7.639   1.835  0.1790  0.1616  0.1194
 9671W        W25805   0.090   8.129  13.609  0.2267  0.1606 -0.1373
 9672W        W25806   0.241   2.564  13.962 -0.2956  0.1753  0.2673
 9673W        W25807  16.608   3.993   2.953  0.0923 -0.1414  0.1001
 9674W        W25808  14.847   4.326   4.674 -0.2571 -0.0175  0.1219
 9675W        W25809  11.078  11.627  10.975  0.0888 -0.1035  0.1546
 9676W        W25810  12.957  13.711   3.021 -0.0973 -0.1889  0.3486
 9677W        W25811   9.747   9.294   4.668  0.1120 -0.2410 -0.1485
 9678W        W25812   4.669   8.351   3.872  0.1377  0.1274 -0.1023
 9679W        W25813  13.799   3.196   1.513  0.3213 -0.1458  0.0791
 9680W        W25814  17.364  15.634  16.163 -0.3694  0.3346 -0.0805
 9681W        W25815  15.761  14.872   4.663 -0.1382 -0.1343 -0.1489
 9682W        W25816  16.870   3.663   4.080  0.0739 -0.0350 -0.1886
 9683W        W25817   7.989   0.654   3.043 -0.1212 -0.0146 -0.0065
 9684W        W25818   9.343   8.929  13.055  0.1431 -0.2770  0.1130
 9685W        W25819   5.995   2.644  15.718  0.1443 -0.2695 -0.1142
 9686W        W25820  15.699  17.141   2.944 -0.1577  0.0619  0.0147
 9687W        W25821   0.721  11.151   3.022 -0.1997 -0.1859 -0.0558
 9688W        W25822   0.302  13.846  13.016  0.1556 -0.1462  0.1467
 9689W        W25823   8.856   5.773  15.358 -0.1059  0.4339 -0.2627
 9690W        W25824   6.261   8.680  11.308  0.3981 -0.0439  0.2093
 9691W        W25825   3.775  17.541  12.293  0.0359  0.2284  0.0038
 9692W        W25826   9.935  14.369   2.613  0.1589 -0.1015 -0.2683
 9693W        W25827   1.111  15.202   2.851  0.0610 -0.2443  0.1235
 9694W        W25828  16.621  14.890   1.281  0.0737  0.0520 -0.0621
 9695W        W25829   7.454   4.271  13.901  0.0815  0.1376  0.0860
 9696W        W25830   4.323   5.521   4.278 -0.0469  0.2082 -0.2373
 9697W        W25831   7.712  10.549  14.672 -0.0551 -0.3997  0.2867
 9698W        W25832  15.419  14.861   4.309 -0.0072  0.0747 -0.1417
 9699W        W25833  17.576   1.959   1.554 -0.2885 -0.2095 -0.0415
 9700W        W25834   2.722   1.223   5.206  0.0856 -0.0216 -0.4235
 9701W        W25835   4.654   3.107   4.281  0.2913 -0.1518 -0.0877
 9702W        W25836   9.671  15.802   3.453  0.1891  0.0020  0.0495
 9703W        W25837   7.460   9.325  12.009  0.0004 -0.2715  0.0816
 9704W        W25838  15.051   8.584   5.428  0.0888  0.1421 -0.0116
 9705W        W25839   8.724   4.701   1.152  0.0874  0.1155 -0.2266
 9706W        W25840  15.055   8.977  15.418 -0.0403  0.0921 -0.3290
 9707W        W25841   1.693   4.892   4.084 -0.2141 -0.0361 -0.0115
 9708W        W25842  10.434   9.104  15.095 -0.3730 -0.3629  0.1642
 9709W        W25843  15.507  13.350  11.567  0.1774 -0.1124 -0.1034
 9710W        W25844  13.984  15.511  12.611 -0.1012 -0.1468  0.1468
 9711W        W25845   4.616   5.600   2.643 -0.1026 -0.0281  0.2259
 9712W        W25846   9.934   3.085  15.518 -0.0373  0.0881 -0.0156
 9713W        W25847   3.438  16.229  14.205 -0.2328 -0.0294  0.1258
 9714W        W25848   3.047   9.717   4.818 -0.2921 -0.0383 -0.2173
 9715W        W25849   7.586   3.901   2.371 -0.1224  0.0454  0.1196
 9716W        W25850  13.906   6.259   1.427  0.5062  0.0373 -0.1353
 9717W        W25851  17.363   2.498   5.163 -0.2040  0.0647 -0.0047
 9718W        W25852  14.148   5.388   6.156 -0.0243 -0.0415 -0.2843
 9719W        W25853   6.499   7.890  14.748 -0.0518  0.1569  0.0270
 9720W        W25854  14.986  16.902   1.342  0.0370 -0.0481  0.2325
 9721W        W25855   9.639  14.066   1.177 -0.1044  0.1093  0.1917
 9722W        W25856  17.386   8.874   3.178  0.0396  0.1619  0.4235
 9723W        W25857   1.498  15.931  16.252 -0.1152  0.2259  0.0241
 9724W        W25858   2.168   8.218  14.353 -0.2597 -0.1394 -0.2292
 9725W        W25859   9.979   1.517  15.503  0.3563 -0.0424 -0.4465
 9726W        W25860  15.880   3.739   1.406 -0.0116 -0.1833 -0.3250
 9727W        W25861   6.035   0.270   1.653 -0.1616 -0.0820  0.1891
 9728W        W25862   0.113   4.693   3.227 -0.1444  0.3083 -0.0259
 9729W        W25863  15.058   4.916  13.383 -0.0975  0.0040  0.0347
 9730W        W25864   3.231   9.014  14.996 -0.1774 -0.0798 -0.0676
 9731W        W25865   3.811   3.988   5.619 -0.0254 -0.0380 -0.0857
 9732W        W25866   1.765  13.942  15.925  0.0898  0.0216  0.0300
 9733W        W25867  14.054  10.353  13.828 -0.1095 -0.2573  0.1109
 9734W        W25868   6.876  14.796  14.622 -0.0253 -0.1054  0.3926
 9735W        W25869  14.545  11.424  15.510 -0.1169  0.1119  0.3677
 9736W        W25870   0.327  15.448  16.458 -0.0210 -0.1060 -0.2908
 9737W        W25871   2.230   3.057   0.832  0.1700 -0.0956  0.0551
 9738W        W25872  17.345   3.408   2.753 -0.0548 -0.0030  0.0950
 9739W        W25873  15.101  17.876  12.698 -0.0121 -0.1515 -0.3771
 9740W        W25874  10.239  13.117  13.020  0.0224  0.2607 -0.0946
 9741W        W25875  11.964  13.112  12.500 -0.0063  0.1629 -0.0332
 9742W        W25876   8.313   8.052   2.953 -0.0193 -0.0775 -0.1611
 9743W        W25877   7.394   1.514   1.928  0.0589  0.0127  0.1358
 9744W        W25878  11.059   3.687   1.761 -0.1070 -0.0683 -0.1460
 9745W        W25879  10.332   8.383  11.236  0.1787  0.1823  0.0922
 9746W        W25880  12.495   2.141  12.772  0.3376 -0.3259 -0.0389
 9747W        W25881   1.282   6.945   5.395 -0.1273 -0.0874 -0.0361
 9748W        W25882   8.545   0.517   2.062 -0.3137  0.1750  0.1234
 9749W        W25883   1.561   3.413  12.771 -0.3711  0.0449 -0.2254
 9750W        W25884   1.631  15.749  13.321  0.0090  0.0729  0.0602
 9751W        W25885   3.584  16.358  13.351  0.1618 -0.2142 -0.1791
 9752W        W25886  17.212   0.935  14.952 -0.1495 -0.0878  0.1543
 9753W        W25887   5.223   7.429  13.573 -0.3241  0.2334  0.0122
 9754W        W25888   8.312   1.425  13.456 -0.0725 -0.1320  0.2403
 9755W        W25889  10.648   9.207   4.894 -0.0411 -0.1069  0.0525
 9756W        W25890   9.675  16.386  16.096 -0.1735 -0.0420  0.1338
 9757W        W25891  16.790   5.442   3.690 -0.1102 -0.2755  0.1324
 9758W        W25892  17.877  17.974   0.514  0.1681 -0.3811 -0.2620
 9759W        W25893   0.901   1.416  13.770  0.0474  0.0700 -0.1700
 9760W        W25894   7.571  17.368  13.479 -0.1577  0.0336  0.0729
 9761W        W25895  12.329  11.081   2.573  0.0801  0.1986 -0.2760
 9762W        W25896  12.573  15.530   2.052 -0.1987  0.2517 -0.0963
 9763W        W25897  11.763  16.838  16.547  0.1405 -0.0339  0.0415
 9764W        W25898   1.026   2.954  11.787 -0.1646 -0.2987  0.4613
 9765W        W25899   1.816  14.817  14.790  0.1075 -0.0279  0.2569
 9766W        W25900  13.389   2.596  12.410 -0.1254 -0.1749  0.0176
 9767W        W25901   1.697  10.076   2.904  0.2982  0.1097 -0.0808
 9768W        W25902  17.004   8.307  14.879 -0.1189  0.0271  0.3596
 9769W        W25903   7.529  13.467   5.791  0.0099 -0.0234  0.0955
 9770W        W25904  14.267   5.409  14.719 -0.0395  0.0058 -0.3391
 9771W        W25905  15.109   0.400   5.386  0.1031 -0.2616 -0.0567
 9772W        W25906   4.086  12.035   0.133  0.1590  0.1202 -0.0365
 9773W        W25907   5.472  12.603  14.623 -0.1311  0.1754  0.1077
 9774W        W25908  13.067  10.110  12.138  0.1139 -0.2993  0.2148
 9775W        W25909  17.207   1.755  12.962 -0.1198 -0.0974 -0.3409
 9776W        W25910   7.958  14.746  15.834 -0.1181  0.1586  0.1909
 9777W        W25911  10.575   7.513  12.695 -0.0588  0.1850 -0.2634
 9778W        W25912   1.208   4.346   2.936 -0.1186 -0.0125 -0.0447
 9779W        W25913   7.182   3.009  11.673  0.0827  0.0518 -0.1839
 9780W        W25914  16.900   0.164   0.249 -0.0167 -0.0110  0.3313
 9781W        W25915   6.201  15.609  15.986  0.1083  0.2961  0.2073
 9782W        W25916  17.516   5.740   0.009  0.1194  0.0947  0.0956
 9783W        W25917   2.585   8.395   0.968 -0.1248  0.0781  0.1039
 9784W        W25918  15.744  10.428   4.841 -0.3258  0.1410 -0.1207
 9785W        W25919   9.229   3.436  13.446 -0.2544  0.1421 -0.1155
 9786W        W25920   0.865   1.816   3.418  0.2440 -0.0101 -0.0432
 9787W        W25921   5.067   8.368   4.935 -0.3220 -0.2304 -0.1632
 9788W        W25922   7.832  13.557  14.182  0.3001  0.1128 -0.1140
 9789W        W25923   8.181   2.465  14.684 -0.1205  0.3082  0.1097
 9790W        W25924   2.200   1.899   0.384 -0.0438  0.1725 -0.0028
 9791W        W25925  17.646  16.443   0.041  0.0092 -0.0025  0.0662
 9792W        W25926  17.137  15.526   0.959  0.0884  0.0000 -0.0698
 9793W        W25927   3.142  12.785   1.120  0.0686 -0.0955 -0.0478
 9794W        W25928   6.087  12.070   4.618 -0.0710 -0.2487 -0.0640
 9795W        W25929  12.456   3.065  15.508 -0.0230  0.0191  0.0809
 9796W        W25930   4.952   3.609  15.562 -0.2672  0.3288 -0.1343
 9797W        W25931   6.186  12.838  10.355 -0.0407 -0.0825 -0.1061
 9798W        W25932  12.829  16.381   1.132  0.0089 -0.1071  0.0146
 9799W        W25933   1.193   4.865  15.032  0.2818 -0.0556 -0.0251
 9800W        W25934  16.475   8.095  11.349 -0.0103  0.1007  0.0437
 9801W        W25935   6.549  16.889  13.374  0.1316 -0.2658  0.6036
 9802W        W25936   4.126  12.367   2.823  0.0886  0.0037 -0.1267
 9803W        W25937   0.722   2.611  15.586 -0.2330 -0.1225  0.1374
 9804W        W25938   7.075   4.189  11.980  0.1707 -0.2800  0.1996
 9805W        W25939  17.627   1.503  16.391  0.0187  0.0131 -0.0630
 9806W        W25940   4.185  10.833  15.273 -0.2005  0.0697 -0.0495
 9807W        W25941  11.931   9.085  13.600  0.1654 -0.0895 -0.2002
 9808W        W25942   0.963  16.068   0.197  0.1047 -0.0200  0.4476
 9809W        W25943   8.720  10.304  15.939 -0.3031  0.2120 -0.4230
 9810W        W25944  17.103  16.862  14.988 -0.1270  0.1920  0.2775
 9811W        W25945  15.594  16.249  12.350  0.2873  0.3073  0.0831
 9812W        W25946  17.719   6.728   2.430 -0.0077  0.0218 -0.0063
 9813W        W25947   6.933  15.425   2.772 -0.3135 -0.4094  0.1254
 9814W        W25948  13.628  17.409   2.392 -0.0198  0.1462  0.3194
 9815W        W25949   0.051  16.400   3.377  0.0460 -0.1376  0.2144
 9816W        W25950   3.498   1.519   0.624 -0.1609 -0.3290 -0.1046
 9817W        W25951   1.383   3.306  11.380 -0.0041 -0.1422 -0.0429
 9818W        W25952   1.285   7.125  14.353  0.0814 -0.2980 -0.1814
 9819W        W25953   8.590   8.098  15.555  0.1727  0.1414  0.1325
 9820W        W25954   0.310  14.992   4.088  0.3604 -0.1422  0.2039
 9821W        W25955  16.796   8.650   0.844  0.0849  0.3697  0.2911
 9822W        W25956  15.907   5.894   3.509  0.2718 -0.1319 -0.1367
 9823W        W25957  17.331   9.861   1.234 -0.1372 -0.4101 -0.0416
 9824W        W25958  13.735  11.044   1.553  0.3469 -0.1829  0.0143
 9825W        W25959   0.828   9.357   0.263 -0.0486 -0.1085  0.2121
 9826W        W25960   8.491  15.363  14.448  0.1156  0.1315  0.0844
 9827W        W25961   0.084   6.825  15.900  0.1617 -0.1675 -0.0077
 9828W        W25962  12.378  13.446   3.419 -0.0991  0.0936  0.1726
 9829W        W25963   8.377   0.795  11.378 -0.0311  0.0750 -0.1986
 9830W        W25964  11.922   7.156   1.881 -0.4324 -0.2446 -0.0372
 9831W        W25965   1.048   0.445   2.416 -0.0343 -0.1554  0.0719
 9832W        W25966   1.814   6.778  13.447 -0.0370  0.0533  0.1846
 9833W        W25967  17.387  11.376  16.016 -0.1521 -0.0267  0.2668
 9834W        W25968   5.574   2.930  15.628 -0.2450  0.0189  0.3733
 9835W        W25969  15.929  11.428   2.021 -0.2594  0.1768  0.0378
 9836W        W25970  12.072  17.083   0.706 -0.3550 -0.3163 -0.0173
 9837W        W25971  14.758   2.268   0.351  0.0320 -0.2585 -0.0283
 9838W        W25972   5.282  15.667  14.229  0.2442 -0.0856 -0.3342
 9839W        W25973   7.587  14.147   2.479 -0.2330 -0.1679 -0.1794
 9840W        W25974   5.495  12.758   0.021 -0.0369 -0.1103  0.1070
 9841W        W25975   4.609   2.720   6.036  0.1734  0.1765  0.0601
 9842W        W25976   5.766   0.901   0.011  0.2794 -0.2186  0.1608
 9843W        W25977   8.471   5.036   5.135 -0.0119  0.0301  0.1106
 9844W        W25978  15.935   0.544   1.388 -0.0270  0.0110 -0.1007
 9845W        W25979  17.063  11.078  15.576  0.3281  0.1919 -0.0684
 9846W        W25980  10.256  16.008   0.718  0.0140 -0.1947 -0.1973
 9847W        W25981  13.198  14.676  14.273  0.3624  0.0700 -0.1001
 9848W        W25982   8.811  10.809  12.164 -0.1866  0.1098  0.2384
 9849W        W25983  16.009  15.922   2.598 -0.0293  0.1160  0.1291
 9850W        W25984   2.094   5.897  16.475 -0.3755 -0.0558 -0.1176
 9851W        W25985  13.176   7.847   4.641  0.1876  0.1301 -0.5563
 9852W        W25986   1.616  16.153  14.616 -0.1192  0.0235  0.1844
 9853W        W25987  13.849  17.507  15.356 -0.3164 -0.0778  0.1045
 9854W        W25988  14.653   9.185   2.508  0.1002 -0.0530  0.2447
 9855W        W25989   6.798   6.017  14.012  0.0594 -0.0151  0.3777
 9856W        W25990   8.192   0.867   0.820 -0.0225 -0.1296  0.1872
 9857W        W25991   9.735   7.895  12.940  0.0704 -0.1926  0.1355
 9858W        W25992  12.192   7.120  14.358 -0.2099  0.0018 -0.1773
 9859W        W25993   3.345  17.403  12.058  0.1730  0.0964  0.1469
 9860W        W25994   9.865   7.535   3.947 -0.0896 -0.1527  0.1306
 9861W        W25995  12.943  10.667   6.454  0.1063  0.1547  0.0084
 9862W        W25996   6.335   4.160  13.731 -0.0477 -0.2651 -0.1823
 9863W        W25997  13.673   5.015  11.514  0.3050  0.0763 -0.3237
 9864W        W25998   7.234   7.764  15.118 -0.1371 -0.2945 -0.0805
 9865W        W25999   2.883  15.610  13.599  0.0383  0.3421  0.1413
 9866W        W26000  14.605   0.694   2.974 -0.0678 -0.2329  0.0360
 9867W        W26001   2.720   9.921  16.553  0.0750 -0.1779 -0.3048
 9868W        W26002   5.519  11.963  12.920  0.0766 -0.0341  0.0463
 9869W        W26003   4.384   5.785   5.665  0.0355  0.0483 -0.1657
 9870W        W26004  17.235  16.032   1.804 -0.2698  0.0346  0.0248
 9871W        W26005  11.275  15.817   5.484  0.0778 -0.2503  0.0313
 9872W        W26006   5.320  11.928   2.490 -0.1977 -0.0807 -0.1930
 9873W        W26007  16.123   1.570  11.694  0.0898 -0.0672 -0.0166
 9874W        W26008   0.629   7.210  12.214 -0.2140 -0.0861  0.0212
 9875W        W26009   7.220   7.786  11.372  0.0696  0.3384 -0.3623
 9876W        W26010   9.999   8.521   1.733 -0.0467 -0.1638 -0.2233
 9877W        W26011  16.414  15.088   4.099  0.0344  0.0969 -0.0344
 9878W        W26012   4.660   2.387   5.425  0.2863 -0.0829 -0.0681
 9879W        W26013   9.079  12.800   1.435 -0.1426 -0.2805 -0.3123
 9880W        W26014  16.415  12.036   1.438 -0.0109  0.1254  0.0233
 9881W        W26015  12.018  13.964  15.758  0.0722  0.0078  0.0309
 9882W        W26016   9.826   2.470   4.459 -0.1195 -0.0820 -0.0193
 9883W        W26017   6.259  16.259  12.728 -0.0355 -0.0806  0.0110
 9884W        W26018   4.850  10.423  15.698 -0.3609  0.0311 -0.0083
 9885W        W26019   9.411  14.446  16.585  0.1692 -0.0396 -0.0147
 9886W        W26020   2.240   1.924  11.736 -0.1897 -0.0685 -0.0913
 9887W        W26021  13.057   1.635   5.566 -0.4058 -0.0106  0.0854
 9888W        W26022   2.985  13.912  15.723  0.0689 -0.0242 -0.0361
 9889W        W26023  14.615  17.140   0.088  0.2343  0.0154 -0.1165
 9890W        W26024  10.721  17.724   1.118  0.0966 -0.1588  0.3051
 9891W        W26025  13.292  10.543   4.862  0.1347 -0.0507  0.0365
 9892W        W26026  11.955   0.707   4.280 -0.0536  0.2419  0.1408
 9893W        W26027   1.729  17.892   2.595  0.1020  0.1406  0.2016
 9894W        W26028  15.481  11.680   0.265 -0.0914 -0.1513  0.0574
 9895W        W26029  10.525   7.874  12.343 -0.0662  0.1769 -0.0776
 9896W        W26030   4.132  14.799   4.987  0.0962 -0.0451  0.0899
 9897W        W26031  10.415  11.183  15.525 -0.0117  0.0065 -0.1467
 9898W        W26032  10.440  10.202  16.141  0.1613  0.0121 -0.1248
 9899W        W26033   2.667  13.877   5.416 -0.2253  0.0135 -0.1244
 9900W        W26034   2.172  12.271  12.004 -0.2040  0.0310 -0.1149
 9901W        W26035   9.374   6.368  15.284 -0.1649 -0.0063 -0.1982
 9902W        W26036   0.057  13.514  12.039  0.0712  0.0718  0.1664
 9903W        W26037   2.168  17.038  11.963  0.1956 -0.0934  0.0590
 9904W        W26038  11.133  11.263   1.539 -0.0502 -0.0823 -0.0730
 9905W        W26039   5.048  17.587   6.013 -0.3658 -0.1073  0.0980
 9906W        W26040   0.193  15.030  12.130  0.0845  0.0704 -0.0508
 9907W        W26041  16.798  13.104  13.145 -0.0571 -0.2857  0.1627
 9908W        W26042  16.789  12.854  15.548  0.0385 -0.1412  0.0283
 9909W        W26043   3.612  14.627  12.020  0.2951 -0.1243  0.0417
 9910W        W26044   5.539   4.496  13.917 -0.0753 -0.0330  0.2319
 9911W        W26045   9.620   8.855   1.598 -0.0070  0.2182  0.1013
 9912W        W26046   7.306   5.600   3.051 -0.1878 -0.1403  0.0878
 9913W        W26047   9.421  15.270  14.866  0.2184  0.0968 -0.1243
 9914W        W26048  17.552  16.448  13.929 -0.0035 -0.1153 -0.1496
 9915W        W26049   9.308  12.798  12.176 -0.3695  0.0262 -0.0465
 9916W        W26050  14.340  13.048   5.210 -0.3285  0.1093 -0.0753
 9917W        W26051   3.958   1.153  12.130  0.2836 -0.0949  0.0002
 9918W        W26052  14.748  17.559   5.581  0.3953  0.3602  0.0089
 9919W        W26053   0.558   1.536  11.929  0.0185  0.0113 -0.0254
 9920W        W26054   8.946   2.007  15.622  0.2392  0.2300 -0.1511
 9921W        W26055  17.229  15.118   4.354 -0.1579 -0.1044 -0.0752
 9922W        W26056   5.364  11.095   1.965  0.1422 -0.1676  0.1631
 9923W        W26057   3.544  17.786  13.332  0.1662  0.0488  0.1058
 9924W        W26058   4.752  15.800   4.430 -0.4571 -0.0642 -0.2746
 9925W        W26059   1.750  11.744   4.532  0.0481 -0.1266 -0.1901
 9926W        W26060  17.582  17.932  16.581  0.1126  0.0270  0.2787
 9927W        W26061  14.242   2.208   2.063 -0.0675 -0.0324  0.0563
 9928W        W26062  15.177   1.219  13.028  0.1328 -0.0926  0.0733
 9929W        W26063   9.507  17.376  13.290  0.0239  0.0724  0.1859
 9930W        W26064   1.163   2.694  16.297 -0.1229  0.0232 -0.0227
 9931W        W26065  17.719  17.115   2.266  0.1204  0.1281 -0.0421
 9932W        W26066  10.168  17.016   0.098  0.3442  0.1591 -0.0804
 9933W        W26067   9.183   4.804   0.956  0.1848  0.3962 -0.2157
 9934W        W26068  12.561   5.334   0.331 -0.2723  0.0908  0.1567
 9935W        W26069  16.860  11.948  15.426  0.3177 -0.0102  0.1955
 9936W        W26070   5.370  11.785   3.574 -0.0174  0.1400  0.3084
 9937W        W26071  13.617   1.977   0.413  0.0200 -0.0471 -0.1149
 9938W        W26072  13.233   5.521   2.791  0.0668  0.0363  0.1314
 9939W        W26073   8.546  13.816  13.928 -0.1565 -0.2660  0.0532
 9940W        W26074  17.727  17.480  15.544  0.1093  0.1595  0.0149
 9941W        W26075   7.483  16.745   1.594 -0.4008 -0.1281 -0.3639
 9942W        W26076  15.374   5.371   4.097  0.0272  0.0808  0.1123
 9943W        W26077   6.585   8.556  11.746 -0.2601 -0.2363 -0.4369
 9944W        W26078   5.992  10.185   4.260 -0.1887 -0.1148  0.0975
 9945W        W26079   5.951   5.106   3.220 -0.1291  0.1403  0.0617
 9946W        W26080  17.807   8.770   1.501 -0.3414  0.2207  0.2074
 9947W        W26081  17.093  10.224  15.022  0.2743 -0.2283  0.1070
 9948W        W26082   9.321   9.020   2.249 -0.0735  0.1060 -0.2563
 9949W        W26083   4.349   1.467  12.828  0.0205  0.1640 -0.1584
 9950W        W26084   5.251   4.056  12.117 -0.0327 -0.2318  0.2183
 9951W        W26085   0.736   7.288  14.771 -0.3982  0.1667 -0.0060
 9952W        W26086  13.414   7.824   5.176  0.0405 -0.2204  0.0649
 9953W        W26087  14.088  16.098   4.085  0.0868 -0.1583 -0.0378
 9954W        W26088  16.089   9.758   1.154  0.0021 -0.2097 -0.1343
 9955W        W26089   9.688  10.189  12.657 -0.2344 -0.1886  0.2152
 9956W        W26090   8.312   6.966   0.479 -0.0697  0.0415 -0.2015
 9957W        W26091   2.314   6.199  11.690 -0.0709  0.1627 -0.0762
 9958W        W26092  12.710   7.288   2.143 -0.0596 -0.0500  0.0879
 9959W        W26093  12.120   0.113  14.873 -0.0382 -0.0012  0.2675
 9960W        W26094  12.096  16.468  16.718  0.2002 -0.2580  0.0835
 9961W        W26095   8.437   6.741   3.064  0.1240  0.1790 -0.1489
 9962W        W26096   8.471   8.954   0.323  0.1556  0.0007  0.0414
 9963W        W26097   7.986  14.816   1.235  0.0117  0.1210 -0.2064
 9964W        W26098   3.413   9.374   0.911 -0.1046  0.1838  0.1168
 9965W        W26099  12.408   3.800  14.284 -0.0088  0.0430  0.0173
 9966W        W26100  16.762  16.589   0.099  0.2415 -0.0918 -0.0339
 9967W        W26101  10.714   9.131  12.374 -0.1648 -0.2970 -0.2594
 9968W        W26102   1.574  17.456   2.936  0.2510 -0.2232 -0.1810
 9969W        W26103  16.124  12.111  14.543 -0.1255 -0.1466 -0.0864
 9970W        W26104   3.380   0.308  11.814  0.2040  0.1425 -0.2308
 9971W        W26105  15.166  10.327   1.440 -0.0041 -0.0481 -0.0544
 9972W        W26106  17.849   1.351  14.500  0.2309 -0.1459  0.3823
 9973W        W26107   5.166  17.854   5.029  0.1583  0.1231  0.1223
 9974W        W26108   9.944  16.455  15.581  0.1971  0.0343  0.0493
 9975W        W26109  10.719  17.229  12.349 -0.1627  0.0737  0.0867
 9976W        W26110  12.980  11.968  14.741 -0.1337  0.0167  0.0374
 9977W        W26111  12.274  17.082  16.520 -0.0679 -0.2267 -0.1155
 9978W        W26112  12.502  17.219  14.743  0.0217 -0.1302 -0.0325
 9979W        W26113   3.607  13.716   4.682  0.2434  0.0215  0.1799
 9980W        W26114   4.017  14.691   0.412  0.0156  0.3171  0.0993
 9981W        W26115  10.237  10.682   4.948 -0.2770 -0.1214 -0.0742
 9982W        W26116  16.778  11.591  14.201  0.0227  0.3769  0.1478
 9983W        W26117  13.336  10.985   4.664  0.0763  0.0044  0.1953
 9984W        W26118   8.688   9.399   0.404 -0.1317  0.0256  0.1000
 9985W        W26119   0.780   8.453   2.158 -0.0522  0.0774 -0.0604
 9986W        W26120  16.090  14.356   1.557 -0.1854 -0.0867  0.0060
 9987W        W26121   1.152   0.911  14.885 -0.0871 -0.4736 -0.0583
 9988W        W26122  12.295  17.656  11.872 -0.0366  0.2332 -0.2322
 9989W        W26123   4.052   8.492   5.008 -0.0469 -0.0547 -0.0286
 9990W        W26124  11.546   8.061  14.310  0.3628  0.0581  0.1241
 9991W        W26125  11.502  15.077   3.399 -0.0890  0.0855  0.2129
 9992W        W26126   9.074   6.409   0.779 -0.2980 -0.1265 -0.0152
 9993W        W26127  16.050   3.361   1.775  0.1461  0.1200  0.1969
 9994W        W26128  17.231   1.793   2.241  0.0356 -0.0390  0.0803
 9995W        W26129   5.107  12.728   1.967  0.0521  0.0754 -0.0192
 9996W        W26130   4.757   9.360   2.541 -0.1455 -0.0102 -0.0527
 9997W        W26131  12.930   9.247   0.080 -0.1764  0.2635  0.1143
 9998W        W26132  15.386   5.112   0.267 -0.2800 -0.2145 -0.0262
 9999W        W26133   9.537   8.635   2.556  0.2335  0.0093 -0.0004
10000W        W26134  16.862   0.397  12.718  0.3869 -0.0264  0.1646
10001W        W26135   6.254  14.804   1.088 -0.3965  0.0413  0.0890
10002W        W26136  12.571  13.341   2.105  0.1583 -0.1928 -0.1191
10003W        W26137   7.990  14.053  12.162  0.2225 -0.1733  0.0257
10004W        W26138   1.929   3.113   3.685 -0.0559 -0.0140 -0.0497
10005W        W26139   5.499   2.050   1.507 -0.0612 -0.0359 -0.1775
10006W        W26140   4.390   3.533  10.618 -0.1753 -0.0148  0.4186
10007W        W26141  12.768   6.122  14.498  0.0965 -0.0676 -0.1820
10008W        W26142   1.408   0.922   4.847 -0.2241  0.0604 -0.1908
10009W        W26143  10.530   4.601  12.810 -0.1576  0.0308 -0.1036
10010W        W26144  16.993   2.984  14.200  0.0376  0.1481  0.0346
10011W        W26145   9.774   0.197  11.311  0.0593 -0.5947  0.0550
10012W        W26146   1.406   1.405  13.873 -0.2422 -0.0306 -0.3168
10013W        W26147   2.523   9.674   4.470  0.0370 -0.4047 -0.2512
10014W        W26148   0.142   4.482   0.906  0.1177 -0.0879  0.0381
10015W        W26149   2.429  12.326  16.637  0.1870  0.0171  0.0018
10016W        W26150  14.667  17.161   4.358  0.0352 -0.0530 -0.1680
10017W        W26151  11.677   8.758  15.848  0.2396  0.1291  0.4544
10018W        W26152  17.935   6.130  16.542  0.0771  0.1273 -0.2318
10019W        W26153  13.726   6.781   5.741  0.1634 -0.2301  0.0583
10020W        W26154   0.662   2.080   0.625  0.1316 -0.2130 -0.0615
10021W        W26155  11.445  13.301  16.269 -0.4150 -0.0409  0.1008
10022W        W26156  10.857   8.512  11.251  0.2030  0.0292  0.3361
10023W        W26157   7.101  14.632  16.252 -0.2268  0.4527  0.3005
10024W        W26158   8.045  11.334   0.418  0.0680  0.0630 -0.0213
10025W        W26159  11.319   8.018  15.231 -0.1601 -0.0669 -0.2672
10026W        W26160  12.892   7.415   5.614  0.1203  0.3197 -0.2042
10027W        W26161   4.939   4.087  15.758  0.0335 -0.0507 -0.1374
10028W        W26162  11.238  14.430  13.982  0.0258 -0.0341  0.1455
10029W        W26163   1.118  14.543   3.473  0.1994 -0.0929  0.2129
10030W        W26164  14.240  14.470  13.200  0.0269 -0.1359 -0.1876
10031W        W26165   2.681   2.127   0.464 -0.1676  0.0495 -0.1609
10032W        W26166   7.235  11.285  13.975 -0.2194  0.1327 -0.0352
10033W        W26167   0.177  16.973  14.431 -0.2040 -0.1827  0.2521
10034W        W26168   9.929   6.387   4.899 -0.3052  0.1972  0.2741
10035W        W26169  16.468   3.438   4.257 -0.2647  0.0482  0.1066
10036W        W26170  11.876   3.556  12.419  0.0103  0.3580 -0.1082
10037W        W26171   0.545  13.638   4.642  0.0541  0.0023 -0.3258
10038W        W26172   5.620   4.919   0.714 -0.0046  0.0223 -0.0303
10039W        W26173   9.359   3.269   3.173 -0.0561 -0.0961 -0.3075
10040W        W26174  16.770  17.527  12.304  0.0493 -0.0104  0.0425
10041W        W26175   6.855   3.184   0.134  0.0003 -0.1155  0.1824
10042W        W26176   5.417  12.220   0.053 -0.0756 -0.0552  0.0653
10043W        W26177   2.653  14.825  12.046  0.0656  0.0127 -0.3379
10044W        W26178  16.399  11.576   1.224  0.1336  0.0329 -0.0984
10045W        W26179   4.474  15.581   2.819 -0.1208 -0.0520  0.1691
10046W        W26180  16.253  13.244   5.160  0.0296 -0.4343 -0.0987
10047W        W26181   2.206   3.474   3.495  0.0621  0.1243  0.1303
10048W        W26182   0.514   2.358   4.491 -0.1404 -0.0096  0.0600
10049W        W26183   6.235   0.579  16.723 -0.1379 -0.0844 -0.1638
10050W        W26184  11.663  14.377  16.565  0.1487 -0.1050 -0.1960
10051W        W26185  12.645   7.207  16.445  0.0753  0.0538 -0.2018
10052W        W26186   9.043   3.964   4.609  0.2165 -0.2358 -0.0236
10053W        W26187  14.560  16.448  13.505 -0.2097  0.0070  0.2628
10054W        W26188  11.022   5.851  14.175 -0.4185 -0.3609 -0.2337
10055W        W26189   8.909  14.072   4.505 -0.0928  0.0488 -0.0672
10056W        W26190   9.899   7.409   5.865 -0.0393 -0.1598 -0.1455
10057W        W26191  17.585   8.363   1.780 -0.0697 -0.1028 -0.3615
10058W        W26192   1.928  13.030   2.503  0.0154  0.1637 -0.0641
10059W        W26193  13.270  15.399   2.738 -0.1025  0.0846  0.0689
10060W        W26194   0.864   5.174   0.968 -0.4276  0.0933 -0.2805
10061W        W26195  10.330   0.043   1.297  0.1702  0.2446 -0.1834
10062W        W26196   3.837   8.818  14.937 -0.0726 -0.1384 -0.2898
10063W        W26197   2.344  11.815  13.662  0.3995 -0.2137 -0.1545
10064W        W26198  13.111  14.121   4.492  0.2259 -0.2721  0.0048
10065W        W26199   6.961  10.624  13.763 -0.3851 -0.1230  0.4097
10066W        W26200   0.110   3.119   2.930 -0.1103 -0.0709  0.2606
10067W        W26201  13.767  11.578  13.968 -0.0959 -0.0296 -0.1211
10068W        W26202   7.647   7.238  16.675  0.2279 -0.1333  0.0308
10069W        W26203   9.631  12.749   2.026 -0.3226 -0.2592 -0.1073
10070W        W26204  15.279   7.167   3.513  0.1360  0.2664 -0.1884
10071W        W26205  12.003  17.343   3.123  0.0412 -0.1146 -0.0805
10072W        W26206  17.705   3.651  14.707 -0.3070 -0.1997  0.0403
10073W        W26207  17.047   5.817  16.636  0.1492 -0.0031 -0.3492
10074W        W26208  17.187  12.170   0.849  0.0551  0.0681  0.2179
10075W        W26209   8.472   8.438  11.418 -0.1058 -0.3444  0.1674
10076W        W26210   6.214   7.245   4.302 -0.0734  0.2481 -0.1057
10077W        W26211  15.983  11.983  12.820 -0.1424 -0.0797 -0.3545
10078W        W26212  17.536   2.482  12.892 -0.0013  0.1356  0.4601
10079W        W26213   5.861  13.495  14.432  0.1410  0.0112  0.2663
10080W        W26214   7.619   1.872  14.069 -0.2909  0.0688  0.2958
10081W        W26215  10.293  14.560   0.490  0.1910 -0.2084 -0.2435
10082W        W26216  16.483   6.586   3.211  0.4498  0.0326  0.0359
10083W        W26217   0.511  14.248  11.878 -0.1075  0.0320  0.0410
10084W        W26218   1.350  14.285  16.481  0.3166 -0.0281 -0.1401
10085W        W26219  15.914   6.272   5.509  0.1873 -0.1689 -0.0648
10086W        W26220  12.652   0.139   3.707  0.0629  0.3320 -0.1448
10087W        W26221   2.756   5.706  15.191  0.1086 -0.0773  0.0097
10088W        W26222  10.210   5.328   3.116  0.0768  0.1487  0.2210
10089W        W26223  12.458  13.946  16.185 -0.0057  0.1192  0.0092
10090W        W26224   8.848  13.283  14.148 -0.3356  0.0227  0.1394
10091W        W26225  13.554   3.234   2.806  0.1940  0.3325  0.3291
10092W        W26226   0.550  11.999   5.296 -0.0126  0.0261  0.0492
10093W        W26227   7.827  13.400  10.983  0.0230 -0.0967 -0.3269
10094W        W26228  11.008   5.863   4.239  0.2888  0.0936  0.2030
10095W        W26229   6.093  16.520   3.435 -0.2271  0.0056  0.0334
10096W        W26230  15.001   7.304  16.287  0.1783 -0.2968  0.0504
10097W        W26231  13.664   3.330  13.696 -0.1839 -0.5339  0.1590
10098W        W26232  11.176  17.308  14.478  0.1958 -0.0862 -0.1070
10099W        W26233  10.660   8.184   1.356 -0.3493  0.2928  0.0488
10100W        W26234   0.883  12.292   5.095 -0.2137 -0.1733  0.3361
10101W        W26235   4.401   3.602  16.239 -0.1386 -0.1416  0.0036
10102W        W26236   6.658   7.155   0.418  0.0096  0.0747  0.1956
10103W        W26237  15.454   7.391   2.638 -0.0191  0.0775 -0.1957
10104W        W26238   7.261   4.246   0.187  0.2840  0.0600 -0.1261
10105W        W26239  16.979  12.812   4.721 -0.0428  0.2001  0.0226
10106W        W26240   8.884  16.554  16.401  0.4867 -0.3091 -0.1485
10107W        W26241  17.460   0.581   1.880 -0.1279 -0.2549  0.5610
10108W        W26242  14.881   9.450   1.536  0.2702  0.3046 -0.0450
10109W        W26243   9.785  10.031  16.071 -0.1106  0.0043  0.0080
10110W        W26244   6.052   7.209  15.784  0.1250  0.0336  0.1314
10111W        W26245   1.143   2.761   3.863 -0.0609 -0.0370 -0.0156
10112W        W26246  16.379   2.691   1.637  0.1120  0.0006  0.3380
10113W        W26247   3.602  14.553  12.518  0.1017  0.0395 -0.1081
10114W        W26248   6.653   1.983  15.645 -0.1996 -0.4354 -0.0075
10115W        W26249   4.170   3.449   1.655 -0.2185 -0.2182 -0.2011
10116W        W26250   6.440   8.475   2.955 -0.1492  0.2967  0.0744
10117W        W26251   4.992   5.365  14.261 -0.0820 -0.0672  0.3246
10118W        W26252   2.500   5.125   3.004  0.3395  0.0781 -0.0796
10119W        W26253  14.705   0.928   4.343  0.5164  0.0424  0.0932
10120W        W26254   1.945   2.489  15.241 -0.1720  0.2742  0.1775
10121W        W26255  13.203  14.217  14.068 -0.0506 -0.0506 -0.0097
10122W        W26256   2.337  10.584   5.012 -0.0689 -0.2147 -0.0875
10123W        W26257  12.741  16.453  11.902 -0.3599  0.0418  0.1410
10124W        W26258  10.256  13.283  11.576  0.1475 -0.0936  0.2269
10125W        W26259   8.044   5.898  14.162 -0.1952 -0.1719 -0.3342
10126W        W26260  17.322   5.172  16.513 -0.0027  0.1464 -0.0352
10127W        W26261  14.853   0.945   5.568  0.3170  0.0132  0.0508
10128W        W26262   3.526  10.206   2.201 -0.0646  0.1746  0.0126
10129W        W26263  16.543  14.038  16.210 -0.3428 -0.0409 -0.0990
10130W        W26264   7.304   4.496   3.312  0.0512 -0.0793  0.0855
10131W        W26265   6.199   7.266   0.287  0.0474 -0.2550 -0.1331
10132W        W26266   8.514   4.635  15.700  0.0627  0.1687 -0.1445
10133W        W26267   4.949   5.075   3.773  0.1754 -0.1487 -0.1932
10134W        W26268   2.486  15.897   3.226  0.0762 -0.0579  0.2103
10135W        W26269   5.733  16.489  14.259  0.1174 -0.0391  0.5461
10136W        W26270  10.992   6.188   4.643 -0.0787 -0.0735  0.1118
10137W        W26271  15.122  14.268   2.324 -0.0041  0.0559 -0.0514
10138W        W26272   3.653   9.788   4.910 -0.2121 -0.1576  0.0247
10139W        W26273  12.776   1.681   5.948 -0.1479  0.1234 -0.3013
10140W        W26274  12.603   0.939   3.187 -0.0864 -0.2009  0.0295
10141W        W26275   0.263   2.509  15.526  0.2221  0.0894 -0.0703
10142W        W26276   8.309   1.780   5.493  0.1041 -0.0167  0.0327
10143W        W26277   9.873  16.274   5.213 -0.1654  0.0799 -0.1356
10144W        W26278   6.783  16.047   1.769  0.1426  0.0516 -0.4829
10145W        W26279   5.033  16.875   0.065  0.2734  0.1608  0.0514
10146W        W26280  16.160   8.278   2.343 -0.1377  0.1529 -0.1880
10147W        W26281   5.960  16.016   3.399 -0.2298 -0.0561 -0.1541
10148W        W26282   7.148  14.960   0.884  0.1583  0.1525 -0.2890
10149W        W26283   8.566  13.697   4.428 -0.0796 -0.0619 -0.1883
10150W        W26284  11.797  17.953  12.522 -0.2571  0.1961 -0.1126
10151W        W26285  10.881   1.382  15.471 -0.0228 -0.1329 -0.1903
10152W        W26286   3.337  12.598  15.560  0.0871 -0.4830 -0.1129
10153W        W26287  12.823  17.390  15.278  0.0914 -0.1357 -0.2070
10154W        W26288  15.078  12.800   5.020  0.0148  0.2560 -0.0746
10155W        W26289   8.254   5.170  14.757  0.1520 -0.0016  0.1051
10156W        W26290  13.719  14.840  15.815  0.0727  0.0453  0.0929
10157W        W26291  16.559   9.255   1.019  0.1022 -0.1679 -0.2283
10158W        W26292   3.659   0.262  12.969 -0.0262  0.3124 -0.0534
10159W        W26293  15.717  15.027  15.444 -0.1344  0.0708  0.2621
10160W        W26294   8.520  14.126  11.464  0.1314 -0.1824 -0.0830
10161W        W26295   8.742  15.988   1.799 -0.0292 -0.2037 -0.0944
10162W        W26296   7.689  16.477   3.987 -0.1416 -0.2314  0.0237
10163W        W26297   1.484  12.222  16.445  0.0084  0.0650  0.4715
10164W        W26298   1.182  13.552   0.884 -0.1270  0.0417  0.4314
10165W        W26299   9.888   8.196  13.445  0.0710 -0.1367 -0.2630
10166W        W26300  13.940   8.287   2.636  0.0486 -0.0602  0.1448
10167W        W26301   6.205  12.590   0.156  0.2456 -0.0917  0.0746
10168W        W26302   8.596  12.923  15.125 -0.0573 -0.1992  0.4804
10169W        W26303  11.988   7.372  13.103 -0.1624  0.4684 -0.1162
10170W        W26304   4.635  10.608  14.363  0.4539 -0.0991  0.0299
10171W        W26305   7.530   1.431  15.746  0.1566 -0.2938 -0.0828
10172W        W26306   5.838   8.120   5.487  0.0552 -0.0452  0.3824
10173W        W26307  10.899  13.195   5.782 -0.0343  0.0905 -0.0666
10174W        W26308   7.210   8.045   3.665  0.0931 -0.0618  0.1127
10175W        W26309  16.295  15.620   0.998  0.0703 -0.0811 -0.0896
10176W        W26310   6.296  15.074   3.983  0.0641 -0.0074 -0.2653
10177W        W26311   1.195  12.631   1.243 -0.0792 -0.1841 -0.1492
10178W        W26312   5.414   3.692   0.942  0.1843  0.2906  0.1525
10179W        W26313   2.270   1.391  16.720  0.1662 -0.0837  0.0560
10180W        W26314   1.436   0.055  16.705  0.0466  0.0961 -0.0941
10181W        W26315   5.867  16.189  12.462  0.0754  0.2853 -0.1980
10182W        W26316  15.032   5.332   3.126  0.2981  0.0163  0.0946
10183W        W26317   7.353   2.499  16.301  0.1650  0.0134 -0.1378
10184W        W26318   6.320  14.216  11.501 -0.2687 -0.0506  0.0801
10185W        W26319  16.537   0.265  12.276  0.2587 -0.0532  0.1357
10186W        W26320   3.495   1.337   3.477 -0.0308  0.1342 -0.3172
10187W        W26321   2.622   1.709   0.192  0.2341  0.0223 -0.2429
10188W        W26322   4.455  12.534  13.692 -0.3314  0.2431 -0.1052
10189W        W26323  17.972   1.429  12.433  0.3041 -0.2443 -0.1833
10190W        W26324   0.732   1.379   4.599 -0.0851  0.0384 -0.1050
10191W        W26325   8.292  11.178  16.462  0.1394 -0.3380 -0.2205
10192W        W26326   4.106   2.183   5.358  0.1517 -0.1639 -0.1415
10193W        W26327  12.645  16.886  12.190  0.1013  0.1732 -0.0431
10194W        W26328   5.695   3.173   5.378 -0.0137 -0.1848 -0.1065
10195W        W26329  14.205   7.178  13.669 -0.0577  0.0823 -0.1046
10196W        W26330  15.493   1.437  16.719  0.0359 -0.1414  0.2754
10197W        W26331  12.288  14.638  15.290  0.0094 -0.0233 -0.1802
10198W        W26332   7.100  15.749  15.057 -0.0317 -0.0465 -0.2253
10199W        W26333   9.935   9.824   3.839 -0.2183  0.1337 -0.2808
10200W        W26334  13.654  11.181   3.807 -0.1455  0.2140  0.0079
10201W        W26335   7.426   1.433  16.330  0.2376 -0.0015  0.3715
10202W        W26336   5.425  16.929  11.592 -0.1110  0.0415 -0.2928
10203W        W26337  16.734   1.457  14.600  0.1389  0.0177  0.1834
10204W        W26338   6.519   7.769   5.074 -0.1574 -0.0801 -0.0883
10205W        W26339   1.582   0.944  13.520  0.0296  0.0233  0.0346
10206W        W26340  13.398  13.977  16.723 -0.0630  0.1194 -0.0217
10207W        W26341   9.112  16.625  13.477  0.1241 -0.0244 -0.0226
10208W        W26342  13.744   6.373  12.294 -0.1353 -0.0173 -0.0632
10209W        W26343  11.532   4.046  14.118 -0.4412  0.0566 -0.1724
10210W        W26344  17.946  10.641   4.225  0.0363 -0.0893  0.0298
10211W        W26345  13.748   3.318   2.326 -0.1408  0.3243  0.2593
10212W        W26346   7.425  10.144   5.901  0.0142  0.1410  0.0669
10213W        W26347  12.163   1.093  12.866  0.0423  0.0963 -0.0498
10214W        W26348  10.118   8.982   1.732  0.0611 -0.4553 -0.2839
10215W        W26349  12.626   1.164  16.350  0.0560  0.0262 -0.4211
10216W        W26350   0.789   7.755  14.882 -0.1790 -0.0921  0.1509
10217W        W26351  10.858   9.019  15.657  0.2441  0.1049  0.3018
10218W        W26352  10.093   3.011   5.623 -0.0055  0.2716 -0.3936
10219W        W26353   3.624   2.018   0.470 -0.1718 -0.1847  0.0220
10220W        W26354  12.708   4.607  16.561 -0.1663 -0.2609  0.0489
10221W        W26355   4.302  15.452   5.978  0.2550  0.2069 -0.0092
10222W        W26356  12.613  11.510  12.623  0.2899 -0.0664  0.2641
10223W        W26357  14.988   1.311   2.321  0.0993  0.0728  0.1725
10224W        W26358   0.491  15.502  14.170  0.2676 -0.2931 -0.0834
10225W        W26359  17.581   4.079   3.997 -0.2613 -0.0158 -0.0719
10226W        W26360   5.591  17.075  15.648 -0.0240  0.0451  0.2932
10227W        W26361  17.549  15.273   1.240 -0.0214  0.2017  0.0912
10228W        W26362  14.620   3.253  13.458 -0.0315  0.3707  0.0221
10229W        W26363  13.044   0.620   2.871 -0.0958  0.2351 -0.1681
10230W        W26364   7.891   0.769   3.507  0.0716  0.2406 -0.3922
10231W        W26365  15.812   5.093  14.808 -0.0998 -0.5298  0.0236
10232W        W26366   4.442  14.796  12.576 -0.1037 -0.0907 -0.3271
10233W        W26367  10.308   1.208  15.266 -0.0527  0.0954 -0.2758
10234W        W26368   5.786  12.044   2.754  0.0795  0.1982 -0.1091
10235W        W26369  11.847  13.482  16.625 -0.0374  0.2507 -0.0472
10236W        W26370  11.794   4.568   5.580 -0.0851 -0.0482  0.0438
10237W        W26371  14.003  10.550   3.391  0.0906  0.0913  0.0903
10238W        W26372  14.971   9.962  13.718  0.1945  0.1463 -0.2565
10239W        W26373  13.051   1.345  12.680 -0.2046  0.3821  0.1343
10240W        W26374   1.656  10.310   2.501 -0.2074  0.2251 -0.0424
10241W        W26375  13.677   6.046   3.987  0.1939  0.1324 -0.0490
10242W        W26376   4.537   5.636  11.763  0.1078 -0.0043 -0.0008
10243W        W26377   7.641   7.235   3.870  0.0739 -0.4094 -0.0046
10244W        W26378   5.554   7.482   2.361 -0.1805 -0.0638  0.0324
10245W        W26379  15.225   3.187  15.214  0.0615 -0.0526  0.1320
10246W        W26380   3.524   5.925   3.522  0.0721 -0.1873 -0.0181
10247W        W26381  11.383  16.966   4.715  0.0594 -0.0854 -0.1313
10248W        W26382  14.862  14.777   1.703  0.2557 -0.0194 -0.0879
10249W        W26383  14.783   7.456  11.623  0.0110  0.2007 -0.0615
10250W        W26384   0.333   8.415   2.913  0.2103 -0.2531 -0.3053
10251W        W26385   6.596  15.953  15.800  0.0979 -0.0155 -0.4091
10252W        W26386   9.312  14.622   0.352  0.0888 -0.1735 -0.0881
10253W        W26387  11.036  16.024  13.306  0.1103  0.0056 -0.1515
10254W        W26388  15.217   4.044   5.019 -0.2300  0.0725  0.1510
10255W        W26389  15.747   8.802   0.019 -0.2376  0.3632  0.2733
10256W        W26390  14.797   6.275   3.364 -0.1082 -0.0476  0.0163
10257W        W26391  13.743   9.787  14.489 -0.0698  0.0464  0.0999
10258W        W26392   7.434  13.568  15.277  0.0276  0.2427 -0.1912
10259W        W26393  14.396   9.477   4.116 -0.2096 -0.0101  0.0387
10260W        W26394   8.000  16.911   4.882  0.2135  0.3422 -0.0046
10261W        W26395   6.089  15.486   0.279  0.1902  0.0117  0.0573
10262W        W26396  12.178  16.603   4.719  0.1035  0.1664  0.2010
10263W        W26397   7.727  12.980  16.161  0.0861 -0.0368 -0.2345
10264W        W26398  11.680   4.973   1.822  0.0735  0.2465 -0.2522
10265W        W26399  16.111  13.286  12.983 -0.0919  0.2950 -0.0473
10266W        W26400   9.890  13.212   3.823  0.1590  0.1809  0.0584
10267W        W26401   1.364  14.832  13.239  0.0534  0.1714  0.0803
10268W        W26402   3.009   8.633  15.936  0.1957  0.1805 -0.0290
10269W        W26403  13.332  12.568   2.864  0.0196  0.0310  0.0037
10270W        W26404  17.435   4.658  12.345  0.1224 -0.2047 -0.0947
10271W        W26405   8.036  17.057  16.289 -0.1647  0.1626  0.0657
10272W        W26406   4.815   8.306  11.846  0.1147 -0.0322  0.0251
10273W        W26407  15.879  13.586   4.960 -0.0167  0.0789 -0.2462
10274W        W26408  15.283   2.622   3.257  0.0307 -0.0694 -0.0694
10275W        W26409   6.898   7.194  11.910  0.0578 -0.1405  0.0374
10276W        W26410  16.990  12.251  13.704 -0.0005 -0.1611 -0.0256
10277W        W26411   9.333  15.719  11.588 -0.2002  0.2384 -0.2943
10278W        W26412  13.387   1.529  14.647  0.2232  0.0339  0.0349
10279W        W26413   8.492   0.817   3.698 -0.0560 -0.0575 -0.0211
10280W        W26414  17.563   5.862  12.603 -0.2105  0.0690 -0.1323
10281W        W26415   5.115   6.338  15.711  0.0190 -0.1962  0.2220
10282W        W26416  10.296  17.327  16.184  0.2967  0.0944  0.0107
10283W        W26417  13.024  17.366  13.443 -0.2088 -0.1536  0.1656
10284W        W26418  15.079  17.650  14.840  0.0032  0.0186  0.0834
10285W        W26419   1.728  16.794  15.243 -0.2785  0.2518  0.2685
10286W        W26420  17.362   7.605  11.580  0.0653  0.0808  0.0545
10287W        W26421   5.243  17.898   5.597  0.0059 -0.5165 -0.1943
10288W        W26422   3.067  11.815   1.038 -0.0065 -0.0568 -0.1672
10289W        W26423   4.883   4.342  13.480 -0.2079  0.1666 -0.2476
10290W        W26424   3.604   1.531   3.012 -0.1246 -0.1508 -0.0915
10291W        W26425  17.648   5.177  14.701 -0.0847 -0.1215  0.0047
10292W        W26426  16.088  15.107   1.075  0.0340  0.0455  0.2251
10293W        W26427  11.194  13.936   0.298 -0.2799  0.0814 -0.0006
10294W        W26428  16.126   9.274   5.423 -0.0129 -0.0550  0.0974
10295W        W26429   6.298  10.312  14.545 -0.3335  0.1341 -0.2459
10296W        W26430  16.977   7.351  11.764 -0.0637  0.1542  0.3397
10297W        W26431  14.614   3.171   2.873 -0.0491  0.0622 -0.1176
10298W        W26432  14.558   5.454  13.924  0.1750  0.3087  0.0780
10299W        W26433  11.919   6.733   5.315 -0.0359  0.1375  0.3824
10300W        W26434  16.375   4.266  16.316  0.3174 -0.0565  0.0202
10301W        W26435   3.522   5.191  13.312  0.1300 -0.0715 -0.2662
10302W        W26436   6.016   0.377   3.451  0.0486  0.1524  0.0534
10303W        W26437   1.687  17.149   0.137  0.0117 -0.0803 -0.3199
10304W        W26438  17.684  10.593  10.602 -0.3286  0.1010  0.0610
10305W        W26439   9.299   4.062   0.869  0.3574 -0.2429  0.2332
10306W        W26440  15.249  11.339  16.231  0.1432 -0.1838  0.0042
10307W        W26441  14.286   9.846   2.898 -0.0229 -0.2112  0.2212
10308W        W26442  17.279  14.312   1.423 -0.1067 -0.2912  0.0347
10309W        W26443   4.362   8.349   1.030  0.0992  0.4216 -0.0138
10310W        W26444  16.210  16.964  14.045  0.0562 -0.0797 -0.0015
10311W        W26445   9.842   6.958  14.304 -0.1960  0.0962 -0.0322
10312W        W26446  17.748  11.640   1.986 -0.1079  0.1166 -0.3019
10313W        W26447  14.246   1.610   5.478  0.0383  0.1161 -0.2670
10314W        W26448   2.833  11.713  15.771  0.2173 -0.2508 -0.5310
10315W        W26449   7.460   4.593  12.702 -0.0612 -0.2119  0.2870
10316W        W26450  13.705   5.996  15.887 -0.1652  0.1459  0.0940
10317W        W26451   3.744  11.958   4.063 -0.0622 -0.1175  0.1760
10318W        W26452  15.754  16.562   5.574 -0.0276  0.1848 -0.3445
10319W        W26453   6.724   3.488   2.258  0.1068  0.0515 -0.0504
10320W        W26454   9.960   8.732  11.813 -0.2522 -0.1701  0.0077
10321W        W26455   8.311  13.703  13.504 -0.1855  0.1114  0.1769
10322W        W26456  13.801   2.851  12.255 -0.0090  0.2246 -0.0417
10323W        W26457   2.259  10.744   0.657 -0.0576 -0.0162  0.3359
10324W        W26458  14.178   2.559  12.298  0.0130 -0.0850  0.1323
10325W        W26459   3.199  16.051  13.326  0.0475 -0.0906 -0.2044
10326W        W26460   2.200  13.027  13.074  0.3681 -0.1000 -0.1360
10327W        W26461  10.137   5.793   4.769 -0.1133  0.2735 -0.0345
10328W        W26462   5.806  17.823  14.890  0.0087  0.1517  0.2533
10329W        W26463  16.478   9.981   4.669 -0.0766  0.0284 -0.2004
10330W        W26464   5.350   4.212   0.392 -0.0091 -0.0381  0.0388
10331W        W26465   6.940   2.567  12.859  0.0178 -0.1088  0.1138
10332W        W26466   1.415  14.247   3.809 -0.0231  0.0462 -0.0098
10333W        W26467   4.973   0.460   2.478 -0.2551  0.1491 -0.0042
10334W        W26468   5.165  11.890   5.093 -0.0429  0.2243 -0.0985
10335W        W26469  11.897   3.272  15.406  0.0752 -0.1279  0.0825
10336W        W26470  15.091   6.441  16.498  0.1611  0.0172 -0.0521
10337W        W26471  13.589   6.440   1.773  0.2029 -0.1497 -0.1025
10338W        W26472   6.682   1.181   2.736  0.0144  0.0574 -0.0338
10339W        W26473  12.398  10.419   0.687  0.2253 -0.1841  0.0903
10340W        W26474   2.736   2.231   2.981  0.0422  0.1854  0.0651
10341W        W26475   8.566  12.701  16.534 -0.0316 -0.3565 -0.0934
10342W        W26476   5.053  13.879   6.065  0.2112 -0.0137 -0.3330
10343W        W26477  17.025   3.991   5.326 -0.0854 -0.2826  0.1649
10344W        W26478  16.179  17.069   1.578  0.0673  0.1049 -0.0827
10345W        W26479   9.657   1.446   4.892  0.0261 -0.1062 -0.1677
10346W        W26480   2.056  12.259   2.442 -0.1002 -0.2208 -0.1484
10347W        W26481  11.111   2.836  15.765 -0.1196  0.1100 -0.1697
10348W        W26482   3.058   8.284  12.972  0.2754  0.3603 -0.1746
10349W        W26483  13.789  15.497   1.543  0.0347 -0.0096 -0.0393
10350W        W26484  14.651  15.216  15.830 -0.1184  0.0271 -0.0280
10351W        W26485  14.103  15.127  15.685 -0.2928 -0.1695  0.2957
10352W        W26486  16.611  14.953   4.943 -0.2718 -0.0512 -0.1337
10353W        W26487  13.438  10.891   0.836  0.2238 -0.0085  0.0224
10354W        W26488   1.883  11.120  16.561 -0.1545  0.2837 -0.0668
10355W        W26489   3.414   2.221   2.152  0.1857 -0.3716 -0.3156
10356W        W26490   0.175   0.026   3.996  0.2650 -0.2533 -0.0647
10357W        W26491   2.757   5.452   5.015  0.1168 -0.2332 -0.1308
10358W        W26492  15.765  15.587   4.222 -0.0004 -0.0309 -0.0750
10359W        W26493   9.054   2.162   3.006  0.0253 -0.0178 -0.1951
10360W        W26494   3.080  11.362   0.131  0.0134  0.3447  0.0671
10361W        W26495  10.654  13.643   4.066 -0.0624  0.2578  0.2993
10362W        W26496   9.805   9.827   1.816  0.1182 -0.1301 -0.0296
10363W        W26497   6.713   3.574  13.238 -0.2855  0.1550 -0.1399
10364W        W26498  17.490  10.921   1.422  0.1243  0.3016 -0.0378
10365W        W26499   9.693   0.201  16.616  0.3141  0.0676 -0.0878
10366W        W26500   0.036  11.714   2.462 -0.3353  0.3019  0.0296
10367W        W26501  16.897   8.027   2.611 -0.2646  0.0984 -0.2775
10368W        W26502   3.625  13.703   3.526  0.1298  0.0177 -0.0764
10369W        W26503   6.789  14.535  10.237  0.0219  0.0167  0.3805
10370W        W26504   9.459  16.217   4.645 -0.3643 -0.1292  0.0964
10371W        W26505  10.479   2.368   2.195  0.0901  0.2181  0.2320
10372W        W26506   3.723   7.013   0.792  0.0497  0.0287  0.0015
10373W        W26507   0.225   1.407  11.512 -0.1401 -0.2093 -0.1224
10374W        W26508   9.705   4.737   3.952  0.1770 -0.0933  0.1790
10375W        W26509   5.741  11.500  11.060 -0.3446 -0.0541  0.0693
10376W        W26510  17.150   5.397  14.738 -0.1877 -0.0886  0.0501
10377W        W26511   9.516   7.217  15.537 -0.0415  0.0774  0.0187
10378W        W26512   0.458  17.536  13.256  0.0856  0.2213 -0.1870
10379W        W26513   2.916  11.187   3.756 -0.0233  0.0384  0.1597
10380W        W26514  10.904   8.610   4.561  0.2380  0.0805  0.1562
10381W        W26515  15.816  12.660  13.840 -0.1252  0.2967 -0.2209
10382W        W26516  11.437  15.319   0.844 -0.0472 -0.1923 -0.1009
10383W        W26517   2.009  11.647  12.729  0.1231  0.0643 -0.0055
10384W        W26518   6.665   8.123   0.177 -0.1604 -0.3195 -0.1888
10385W        W26519  15.173  13.794   2.514  0.2089  0.1335 -0.0637
10386W        W26520  14.213  10.051   0.495  0.3016  0.2573 -0.1537
10387W        W26521  17.257  13.867   4.495 -0.2277 -0.0985 -0.2091
10388W        W26522   0.646   6.209  12.672 -0.1658  0.2229 -0.0093
10389W        W26523   5.071   1.838  14.961  0.1280  0.0128  0.0438
10390W        W26524  15.153  14.590  15.449 -0.0518 -0.0040 -0.0275
10391W        W26525   4.543  11.473   2.746  0.1384  0.0537 -0.0270
10392W        W26526   2.439  11.859   5.700  0.2876  0.1814  0.2138
10393W        W26527   6.697   1.282  12.001 -0.2135  0.1100 -0.1796
10394W        W26528  14.300   0.624   4.477  0.2858 -0.0564  0.1201
10395W        W26529   3.980   9.509   0.124 -0.4558  0.1376 -0.3997
10396W        W26530   8.233  13.759  11.214  0.1144  0.0800 -0.2246
10397W        W26531  12.422   6.306   1.458  0.3654 -0.2435  0.1184
10398W        W26532  16.352   4.977  14.831  0.1951  0.2429 -0.0158
10399W        W26533  15.261   5.856  11.635 -0.0013 -0.2110  0.3843
10400W        W26534  13.746   1.370   0.284  0.2072 -0.1658 -0.2429
10401W        W26535  11.716   4.135   1.576  0.0653 -0.1594 -0.1306
10402W        W26536  11.118  14.308  11.981  0.1020  0.1680  0.0898
10403W        W26537   4.114   0.299   3.089 -0.1379 -0.1001 -0.1829
10404W        W26538  10.933   0.164   2.309 -0.3615 -0.2295  0.1366
10405W        W26539  14.929   9.374   3.395 -0.0924  0.0759 -0.2649
10406W        W26540   1.596   1.882   3.452  0.0402 -0.3306  0.0186
10407W        W26541   8.913  12.843   2.753  0.0211 -0.0100  0.1497
10408W        W26542  13.392   6.721   3.912  0.0312  0.1353 -0.1343
10409W        W26543   7.683  15.405  14.903  0.0353 -0.0102  0.0636
10410W        W26544   6.636  12.040  12.966 -0.4495  0.1570 -0.1977
10411W        W26545  10.880   9.076  14.898  0.1534 -0.1138  0.3572
10412W        W26546  16.788   5.916   3.651  0.0168 -0.1112  0.0262
10413W        W26547   8.981   7.001  16.364 -0.0531  0.3404  0.2144
10414W        W26548   2.636  14.037  11.849  0.1028 -0.1907  0.0905
10415W        W26549   2.560  12.004  12.408 -0.2370 -0.2146 -0.1431
10416W        W26550   9.120  14.190  16.273  0.0303 -0.0165  0.0834
10417W        W26551  10.646  10.405   1.599  0.0168  0.1676 -0.0210
10418W        W26552  10.166   3.801   0.886 -0.1587  0.3090 -0.1319
10419W        W26553   3.978   3.466  12.712 -0.0901  0.1095  0.1897
10420W        W26554  13.053  13.571  15.582  0.0783  0.3307  0.1066
10421W        W26555   9.202  14.137   1.953  0.2474 -0.0583  0.0304
10422W        W26556   6.090   1.172   4.083 -0.0809  0.2604  0.1214
10423W        W26557  14.520  11.336   4.333 -0.0509 -0.0297  0.0860
10424W        W26558  16.410   0.525   3.811  0.0450  0.1567  0.1184
10425W        W26559   8.449  10.792  13.765  0.2369  0.0202  0.0043
10426W        W26560   7.344   6.223   2.607 -0.0941  0.1035 -0.4145
10427W        W26561   3.093  10.898  14.723  0.1055  0.3868 -0.1172
10428W        W26562  14.742   1.629   1.788 -0.3739 -0.3046  0.1879
10429W        W26563  10.568   0.422   0.947  0.3070  0.3630  0.3189
10430W        W26564  12.744  16.997   4.630 -0.0626 -0.2410  0.1420
10431W        W26565  12.893   1.825   1.458  0.2025  0.4677 -0.0627
10432W        W26566  14.526   3.284  11.966 -0.0792  0.1115 -0.0942
10433W        W26567  15.451   1.241   2.431  0.2139 -0.3078 -0.1820
10434W        W26568  10.350   7.637   4.737  0.2823 -0.0222  0.1440
10435W        W26569  16.763  16.610  13.577 -0.1275  0.0235 -0.4377
10436W        W26570  11.846   6.003  13.884  0.0289 -0.1030  0.0515
10437W        W26571   8.178  13.746   0.571 -0.0235  0.2795 -0.0266
10438W        W26572   1.198   4.790  15.557 -0.0187 -0.0193 -0.0895
10439W        W26573  15.862  15.827  15.194 -0.1502  0.6801  0.1551
10440W        W26574   5.799   3.624   1.761 -0.0597  0.3206  0.1801
10441W        W26575  17.092   7.209   2.512  0.0957 -0.2642  0.2548
10442W        W26576   4.329   2.021   1.075 -0.4266 -0.1260  0.2516
10443W        W26577  15.183   5.868   4.208 -0.2063  0.0050  0.0504
10444W        W26578   2.929  14.428   3.159  0.0240  0.1815 -0.0926
10445W        W26579   8.671  13.771   0.708 -0.1053  0.0813 -0.1242
10446W        W26580   6.069  14.360   5.282 -0.1255  0.0669 -0.0953
10447W        W26581   7.377   5.702  12.878 -0.0658 -0.0559  0.3244
10448W        W26582   5.699   2.516   2.807  0.0794 -0.1510  0.1125
10449W        W26583  13.125   1.693   2.299 -0.1715  0.1805 -0.1146
10450W        W26584  15.616   2.851   1.238 -0.3353  0.0380 -0.1715
10451W        W26585   1.355  10.665   3.663  0.1790 -0.0790  0.1050
10452W        W26586   2.227  12.842   1.272  0.1322 -0.5125 -0.1799
10453W        W26587  11.353  13.367   5.429  0.0260 -0.3016  0.2380
10454W        W26588   1.593  15.522   2.801  0.0745 -0.0544 -0.5000
10455W        W26589  16.997   1.200  13.707  0.0671 -0.0858  0.0310
10456W        W26590   6.576  10.752  11.795 -0.0298 -0.0495 -0.1355
10457W        W26591   0.076  17.271   1.923  0.0269 -0.0530 -0.0604
10458W        W26592   0.094   5.016   3.732  0.0288 -0.1656 -0.1845
10459W        W26593   6.058  16.706  15.709  0.2630  0.3142 -0.0255
10460W        W26594   7.171  14.304   2.809  0.0794 -0.1748 -0.2440
10461W        W26595   3.680   1.044   1.312 -0.2101  0.1467  0.1236
10462W        W26596  16.659   8.290  11.853  0.0639 -0.1754  0.2667
10463W        W26597  13.914  11.712  12.396  0.0629  0.0274 -0.0557
10464W        W26598  16.943   9.176  16.361 -0.1299 -0.1610  0.0170
10465W        W26599   9.422   9.340  15.558  0.2921  0.0265  0.2184
10466W        W26600  13.315   3.650   2.597  0.1714 -0.0059 -0.0206
10467W        W26601  12.065   9.039   1.723  0.3352  0.2427 -0.1343
10468W        W26602   1.919  15.238   2.503 -0.0560  0.2691 -0.0733
10469W        W26603   3.306   3.135   1.737  0.2448  0.0446 -0.0954
10470W        W26604   8.464  17.710  15.934 -0.0110  0.0908  0.1347
10471W        W26605   0.482   8.061   4.288 -0.1849  0.0508  0.0053
10472W        W26606  17.468   0.498   2.478  0.2288  0.1198 -0.0176
10473W        W26607  12.310  15.755  14.785 -0.3316 -0.0469  0.2868
10474W        W26608   9.306   8.850  16.576 -0.0771  0.0415 -0.3346
10475W        W26609   2.016   1.665  11.352  0.0187  0.1461  0.2402
10476W        W26610  10.722   7.279   4.673 -0.2144 -0.1141 -0.1202
10477W        W26611   7.215  12.174  15.367  0.0325  0.0544  0.1733
10478W        W26612  12.652  12.816   0.812 -0.0984  0.1550  0.1080
10479W        W26613  13.652  16.359   3.156  0.0760 -0.1869 -0.0104
10480W        W26614  11.248   5.690   5.320 -0.1357  0.4287  0.0318
10481W        W26615  16.732   3.909   2.475  0.2754 -0.1449  0.0097
10482W        W26616   0.538   0.066  15.388  0.0605 -0.0498 -0.0318
10483W        W26617   4.792   9.181   1.146  0.2487 -0.0732 -0.1378
10484W        W26618   7.713  12.761   3.834  0.2187  0.1031  0.1221
10485W        W26619   0.675   2.642  11.557 -0.1133 -0.0341  0.0250
10486W        W26620  14.268   3.072  12.379 -0.2057 -0.0650 -0.1266
10487W        W26621   9.633  17.828  15.709  0.0934 -0.0668 -0.0076
10488W        W26622   4.005  17.066   4.569  0.0965  0.0223 -0.2797
10489W        W26623  10.129   0.538   4.132  0.0226  0.2509  0.1516
10490W        W26624   7.018  16.786   2.938 -0.0343 -0.2378  0.0830
10491W        W26625   1.659   1.402  14.419 -0.0405  0.1626  0.1701
10492W        W26626   6.710   6.753   1.455  0.3281 -0.0600  0.1009
10493W        W26627   7.589   8.439   4.629 -0.0389 -0.0472 -0.0926
10494W        W26628   7.915  12.016   0.188  0.0031 -0.0799 -0.0391
10495W        W26629   6.324  11.051  12.708 -0.4500  0.0542 -0.0540
10496W        W26630   7.876   0.920  12.911  0.0714 -0.6559 -0.1175
10497W        W26631  14.181   6.113   1.027  0.1974 -0.2207  0.0810
10498W        W26632   1.936   8.808  12.002 -0.2360 -0.2904 -0.0533
10499W        W26633   8.205   2.328   2.703 -0.1856 -0.1557  0.0630
10500W        W26634   6.277  11.532  11.411  0.0840  0.1097 -0.5144
10501W        W26635  15.912  16.640   1.084  0.0136 -0.0038 -0.1714
10502W        W26636   6.380   9.726  14.565 -0.1659 -0.0458  0.2351
10503W        W26637   6.025   6.789  12.782 -0.1587  0.2758 -0.0820
10504W        W26638   4.994  13.960  11.906 -0.2113 -0.1007  0.3225
10505W        W26639   5.076  17.017  15.512  0.0652 -0.0129  0.1104
10506W        W26640   0.284   2.504   0.624 -0.0137  0.1186 -0.1286
10507W        W26641  11.304   8.581   1.528  0.3032  0.3934 -0.1795
10508W        W26642  10.933  17.829   4.313  0.2190 -0.2224 -0.0314
10509W        W26643   4.950  15.063  15.402 -0.0334 -0.0203 -0.0198
10510W        W26644  16.112  16.032  12.437  0.1673  0.0688 -0.3639
10511W        W26645  14.809   2.462  14.146 -0.0143  0.0526  0.2744
10512W        W26646   0.069   4.343   1.914 -0.1563 -0.1676  0.1172
10513W        W26647   4.653  12.141   1.250 -0.2376  0.0237 -0.0515
10514W        W26648   9.686   9.544  12.524 -0.0924 -0.1981 -0.1075
10515W        W26649  13.609  14.783   5.316  0.0558  0.0867  0.0383
10516W        W26650  14.113   6.916   3.364 -0.3770 -0.0336 -0.0544
10517W        W26651  16.576  10.001   5.338 -0.3512 -0.1887 -0.0454
10518W        W26652   7.438   6.247  10.950  0.0963  0.1012  0.2353
10519W        W26653   5.242   5.634  11.104 -0.0190 -0.4240  0.2008
10520W        W26654  16.506   3.881   5.359 -0.1565  0.0925 -0.0191
10521W        W26655  12.737   3.139  12.701  0.1566 -0.0130 -0.0402
10522W        W26656  15.241  14.324   5.068  0.1379 -0.1198 -0.0206
10523W        W26657  17.975  13.183  14.107  0.0011 -0.1314 -0.4044
10524W        W26658   6.697  17.955  13.565  0.2589  0.0439  0.1508
10525W        W26659  10.717   7.102  11.665  0.0021 -0.1360  0.2140
10526W        W26660   7.971   0.724  14.672 -0.1482 -0.0894  0.0508
10527W        W26661   0.310  12.973   5.669 -0.0299  0.0107  0.1075
10528W        W26662   8.726  10.156   2.159  0.3100 -0.2075  0.0334
10529W        W26663   6.937   5.141  14.689  0.0687  0.2121  0.2135
10530W        W26664  13.137   5.074  15.802 -0.2362  0.0596  0.1604
10531W        W26665  11.673   6.198  12.622 -0.1587 -0.0773 -0.1542
10532W        W26666   5.047   9.489   0.811  0.0913 -0.0875  0.0063
10533W        W26667  16.094  13.300   0.408  0.2592  0.0159  0.1085
10534W        W26668   0.728   0.845   4.631  0.2064  0.1613  0.0677
10535W        W26669   9.071   8.704   1.409 -0.1904 -0.0944  0.2261
10536W        W26670  16.256  12.780  14.594  0.1595 -0.1132 -0.0003
10537W        W26671  10.690   1.493   2.359 -0.0401 -0.2352  0.1004
10538W        W26672   1.073   3.559  12.586  0.1950 -0.0792 -0.0567
10539W        W26673  14.141  14.148  15.734  0.1837 -0.1383 -0.0552
10540W        W26674   4.113   5.242  13.244 -0.0441 -0.0108 -0.1241
10541W        W26675  13.214   7.044   2.967  0.0495 -0.1189  0.0689
10542W        W26676  12.245  15.088  15.489  0.1118 -0.1762 -0.3768
10543W        W26677  14.237   8.286  16.012  0.1799  0.1240  0.0732
10544W        W26678  10.043   6.200   3.996  0.0354  0.0905  0.2806
10545W        W26679   3.654  14.929  14.621  0.2748  0.1304 -0.1368
10546W        W26680   4.781   5.184   1.756 -0.1754 -0.3280  0.0627
10547W        W26681  17.927   9.553  13.529 -0.2732  0.0988  0.1018
10548W        W26682   9.883   9.349  14.723  0.2044  0.0923  0.1566
10549W        W26683   5.854   1.035  12.729  0.0899 -0.0707  0.2920
10550W        W26684  16.404   3.712  15.871 -0.2378  0.0026 -0.0493
10551W        W26685   5.584  17.839  13.851 -0.0595 -0.1129 -0.1985
10552W        W26686   2.714  14.522  14.451 -0.1430 -0.1472  0.1062
10553W        W26687   0.746  14.175  12.915  0.2456 -0.1466 -0.0528
10554W        W26688   6.592  16.168   5.072 -0.0893 -0.1294  0.0612
10555W        W26689  10.825   6.400  10.463 -0.0970  0.0639  0.1570
10556W        W26690   5.095   3.119   3.417 -0.1294 -0.2114  0.0908
10557W        W26691  13.563   0.104  15.330 -0.3233  0.1395 -0.1635
10558W        W26692  16.672   9.231   3.220  0.0926  0.0946 -0.0253
10559W        W26693  17.008  16.405  14.735 -0.0788  0.0025  0.0427
10560W        W26694  10.539  13.309   0.569  0.3716 -0.1246  0.0967
10561W        W26695   8.494  13.777  15.659  0.0969 -0.2679  0.2428
10562W        W26696  17.557  14.225   3.056 -0.1892 -0.1293  0.1651
10563W        W26697   0.250   3.463  12.478  0.0022 -0.2111 -0.0456
10564W        W26698  10.657   0.613   2.190 -0.0340  0.0101  0.0805
10565W        W26699  17.743   8.535   4.259  0.0143 -0.1552 -0.2813
10566W        W26700   0.005  16.091   6.132  0.3003  0.0511 -0.3821
10567W        W26701   0.734   2.624  16.492 -0.2292  0.1463 -0.0251
10568W        W26702   2.825   3.850   4.274 -0.0330 -0.0966  0.0041
10569W        W26703  11.860   1.528  14.094 -0.0957  0.2460 -0.0514
10570W        W26704   5.020  12.940  15.335 -0.0392 -0.1727 -0.0094
10571W        W26705   3.155   8.947   5.959  0.1480  0.2631  0.1026
10572W        W26706  15.546   2.157  12.192 -0.0047 -0.0395 -0.1660
10573W        W26707   0.075   6.375   3.807 -0.1295  0.2359  0.0290
10574W        W26708   6.306   6.834   3.532 -0.3197  0.2179  0.1097
10575W        W26709   1.995   5.370   2.692  0.1541  0.0176 -0.2152
10576W        W26710   6.707  13.884   4.175  0.4026 -0.1749 -0.1422
10577W        W26711  17.601  11.068  15.670  0.0237  0.2123  0.1167
10578W        W26712  10.130   1.405  12.470  0.4426 -0.3353 -0.0111
10579W        W26713   4.503  11.218   1.673  0.2052 -0.1191 -0.1249
10580W        W26714   0.477   9.357  13.934  0.2463 -0.0609 -0.0623
10581W        W26715  16.644  16.931   1.438 -0.0290  0.2218  0.0983
10582W        W26716  12.714   3.299   1.024 -0.1698 -0.0507  0.2075
10583W        W26717   3.449   8.668  13.032  0.0056  0.1418 -0.2370
10584W        W26718   6.286  14.494  13.925 -0.1628 -0.0654 -0.3195
10585W        W26719   1.317   5.393   5.042 -0.3551 -0.2533  0.0820
10586W        W26720   7.311   6.990   3.334  0.3472  0.0133  0.2905
10587W        W26721   2.537   9.445   0.983 -0.0168 -0.0481 -0.1153
10588W        W26722   5.204   3.047  12.666 -0.1522  0.1192 -0.0441
10589W        W26723   2.827   4.111  12.947 -0.0300 -0.0167 -0.1034
10590W        W26724  14.701   9.859   0.336 -0.0112  0.3832  0.0936
10591W        W26725   5.278   2.043  15.548  0.3834 -0.2031  0.0904
10592W        W26726  14.593  14.128  16.613  0.0610 -0.0426  0.1675
10593W        W26727   1.963  12.875   0.091  0.3436  0.2190 -0.1024
10594W        W26728   7.153   1.537   2.794 -0.1156  0.1659 -0.1976
10595W        W26729  10.534   6.191   4.945 -0.0727  0.1606  0.1962
10596W        W26730   2.222   1.948  12.952 -0.1971 -0.0968  0.0064
10597W        W26731  13.912   2.732  14.045 -0.0788  0.2228  0.1800
10598W        W26732  16.037  15.429  13.725  0.0529  0.0355  0.2628
10599W        W26733   9.298  14.724  12.778  0.0693  0.3692 -0.3042
10600W        W26734   0.222   0.567  14.015  0.1388  0.4147  0.2293
10601W        W26735  13.836   9.857   0.752 -0.0892 -0.0540 -0.0068
10602W        W26736   2.383   3.365   5.595  0.1702 -0.1308 -0.0870
10603W        W26737   0.337   9.136  16.004  0.1600  0.0103  0.1004
10604W        W26738   4.281  15.122  14.228 -0.0647 -0.2572  0.3059
10605W        W26739   0.353  13.601   3.592  0.1621  0.1345  0.3007
10606W        W26740  17.266   2.712  15.639 -0.1451  0.1503  0.2184
10607W        W26741   9.872   4.762   1.603  0.0708 -0.1143 -0.0109
10608W        W26742  12.520  12.609  14.393  0.0209 -0.1509  0.0212
10609W        W26743   1.829   3.573  11.459 -0.0664  0.2474 -0.0233
10610W        W26744  17.146  11.304  16.701  0.0392 -0.0579  0.5536
10611W        W26745   6.383  12.495  13.142  0.2637 -0.0868  0.2583
10612W        W26746  16.215   7.462   3.633 -0.0178  0.1307  0.0832
10613W        W26747  14.931  11.197  13.073  0.1861  0.2174  0.0602
10614W        W26748   4.237   0.432   0.903 -0.0111 -0.0774 -0.1071
10615W        W26749   2.430   8.744  12.110 -0.1346 -0.0963 -0.0427
10616W        W26750  16.944   6.547  11.439 -0.1693  0.0692  0.0320
10617W        W26751  11.828  14.045   1.962  0.0365  0.1085 -0.1400
10618W        W26752   8.636  10.815   5.350  0.1122  0.1185 -0.2878
10619W        W26753  10.821  12.838  14.702  0.1677  0.0021 -0.1098
10620W        W26754   1.969  14.692   2.413  0.0194 -0.0986 -0.0003
10621W        W26755   6.778  10.843  12.424  0.2307 -0.1546 -0.3558
10622W        W26756  10.107   1.457  13.814 -0.0117  0.1584 -0.0210
10623W        W26757  12.282  16.280   4.363 -0.1791  0.1907 -0.0338
10624W        W26758   0.156   8.909  15.104  0.1739  0.1369 -0.1296
10625W        W26759  14.899   7.377   5.457  0.2413  0.0925  0.0200
10626W        W26760  10.325  10.950  13.912  0.1956 -0.1704 -0.1161
10627W        W26761   4.016  10.071   2.820  0.0543  0.2292 -0.1109
10628W        W26762   2.326   6.591   1.734 -0.0124 -0.0929 -0.1977
10629W        W26763   6.303  13.774   3.851 -0.0684  0.0474  0.1315
10630W        W26764  12.626   2.014   4.114  0.1836 -0.2269 -0.1491
10631W        W26765  14.227  10.765   1.166  0.0280  0.1364  0.0482
10632W        W26766   9.351   9.671  16.073 -0.3649 -0.0005 -0.0106
10633W        W26767   2.893   2.299  12.959 -0.3713 -0.1739 -0.0378
10634W        W26768   4.288  12.374  11.685 -0.1062 -0.1430 -0.0301
10635W        W26769   3.486  13.746   4.054  0.1819  0.3419  0.1048
10636W        W26770   8.131   1.235   3.600  0.1309  0.0575  0.1908
10637W        W26771   8.445   7.179  12.914 -0.1237  0.0265 -0.1083
10638W        W26772  14.018   1.483   3.209  0.0167  0.0469 -0.1323
10639W        W26773   5.232  16.026   0.514  0.0025 -0.1782 -0.1042
10640W        W26774   8.115   2.590  12.188 -0.1196 -0.3167 -0.3496
10641W        W26775  11.984  11.301  13.988 -0.0869  0.3990 -0.0043
10642W        W26776  17.408  17.830   0.844 -0.0570 -0.0678 -0.1882
10643W        W26777  11.484  16.979   3.730 -0.1319 -0.0040 -0.2720
10644W        W26778   9.250  11.027  14.723  0.0467  0.0185  0.1849
10645W        W26779   7.026  12.756   0.689 -0.0089 -0.3077  0.0910
10646W        W26780   3.652   7.735   2.070 -0.2210  0.1751 -0.1287
10647W        W26781  16.267   5.197   4.467 -0.4693 -0.4296 -0.0689
10648W        W26782   7.547   7.916   4.554 -0.1546  0.2121 -0.0556
10649W        W26783   7.047   9.113  14.939 -0.2388  0.1199  0.3224
10650W        W26784   8.941   8.147  11.587 -0.3332  0.1667  0.1339
10651W        W26785   6.972  14.210   3.305  0.2998  0.2248 -0.0344
10652W        W26786  10.936   1.225  11.342  0.1182 -0.3068 -0.0423
10653W        W26787  13.291   6.821  11.959  0.2574  0.0490 -0.0685
10654W        W26788  10.991   4.797   6.030  0.0525  0.2126 -0.3776
10655W        W26789  15.265  11.547   5.508  0.0600  0.0292 -0.2471
10656W        W26790  15.527  10.857  14.310  0.0997 -0.2546 -0.0049
10657W        W26791   6.490   0.696   4.552  0.1045 -0.0626 -0.1642
10658W        W26792   5.901   5.954  11.946 -0.4122  0.4383  0.2267
10659W        W26793   3.072  11.357  14.488 -0.0302 -0.3346 -0.0417
10660W        W26794  13.035   5.752   5.465 -0.0532  0.2275 -0.1400
10661W        W26795   7.304  12.700   5.469 -0.1134  0.2881 -0.0627
10662W        W26796   0.487  15.785  14.592 -0.0968  0.0791 -0.3665
10663W        W26797  11.223   2.931   5.049 -0.2157 -0.1568 -0.0477
10664W        W26798   6.351  16.907   3.208  0.0216 -0.0971  0.0840
10665W        W26799   8.586   5.260   4.242  0.0721  0.1773  0.1686
10666W        W26800  17.696  10.927  16.144 -0.1911 -0.0195  0.1087
10667W        W26801   5.696  10.284  15.216  0.4320  0.1065 -0.0869
10668W        W26802   7.484   4.313  16.092 -0.1534  0.1925  0.0328
10669W        W26803  14.873   6.466   4.607  0.2092  0.2443 -0.3040
10670W        W26804   6.091   9.638   4.924 -0.1094 -0.0107  0.1327
10671W        W26805   5.727  11.981  13.332 -0.3438  0.2030 -0.0072
10672W        W26806   7.303   6.161  12.701 -0.2149 -0.0860 -0.2609
10673W        W26807  11.839   8.529   3.578 -0.0689  0.0001 -0.0474
10674W        W26808   6.916  15.918   3.009 -0.0956  0.1026 -0.0800
10675W        W26809   9.368   2.307  15.703  0.0556 -0.1911  0.1455
10676W        W26810  11.730  13.528   0.349 -0.0823 -0.1988 -0.0908
10677W        W26811  10.235  12.892  15.272  0.0710 -0.1483  0.0011
10678W        W26812   3.220   3.450   0.919 -0.2126 -0.1408 -0.2572
10679W        W26813   5.121  14.053   3.803 -0.1657 -0.1384  0.1030
10680W        W26814  14.997   9.978   1.117  0.1800 -0.2525  0.2638
10681W        W26815  13.877   1.918   2.305  0.4177  0.0593  0.0484
10682W        W26816   9.192  10.826   4.874  0.0308 -0.1844  0.2509
10683W        W26817  12.918   3.665   3.092 -0.0410  0.2857 -0.3210
10684W        W26818  11.047   5.652  12.875  0.0583  0.0584  0.1202
10685W        W26819  12.560   0.633  15.349 -0.1088  0.2671 -0.0665
10686W        W26820  10.541   2.513  16.380 -0.5156  0.0112 -0.2090
10687W        W26821  11.859   1.800   4.342  0.2373  0.0012  0.1904
10688W        W26822  15.001   8.152  14.923  0.0059  0.0198  0.0880
10689W        W26823   0.203   6.647   4.326  0.2169 -0.0321 -0.0056
10690W        W26824  14.170   5.393  12.626 -0.0060 -0.0609 -0.2434
10691W        W26825   0.160   4.207  15.456  0.3622  0.0450  0.0810
10692W        W26826  16.354   3.250  13.098 -0.0324 -0.4759  0.2767
10693W        W26827  13.083  15.708   4.752 -0.1640  0.0898 -0.1159
10694W        W26828   8.338   1.741   1.926  0.4511  0.0764  0.2063
10695W        W26829   0.849   1.718  16.017 -0.1390  0.0865 -0.0604
10696W        W26830   5.229   7.540  15.324  0.1772  0.1629  0.2593
10697W        W26831  13.109   7.345  12.161  0.2274 -0.1668 -0.0164
10698W        W26832  10.337   3.768  12.668 -0.0327 -0.0857 -0.0066
10699W        W26833  15.272   8.444  15.820  0.1610  0.2289 -0.0743
10700W        W26834   4.464  15.903  13.848 -0.1534  0.0167  0.1631
10701W        W26835   7.152   6.438   3.462 -0.0656  0.1243 -0.1691
10702W        W26836  14.817  10.381  14.597 -0.2915 -0.0133  0.0680
10703W        W26837   9.219  16.625   4.712  0.0993  0.0924  0.2065
10704W        W26838   2.076   5.706   5.612  0.0576 -0.1279 -0.1098
10705W        W26839  12.325   5.284  14.021 -0.0890 -0.4878 -0.0792
10706W        W26840   1.009  11.907   4.315 -0.2586 -0.2201  0.2164
10707W        W26841   9.291   2.548   4.908  0.1178  0.0611 -0.1078
10708W        W26842   5.245  10.556  11.996  0.1149  0.0796  0.0285
10709W        W26843   9.757  15.325   4.241  0.0038 -0.4707 -0.0115
10710W        W26844   8.019  13.370  11.434  0.0922  0.1231  0.2553
10711W        W26845  13.485  10.638   3.650 -0.1284  0.1626 -0.0325
10712W        W26846  13.508   4.140   3.472  0.1944  0.0601  0.0054
10713W        W26847  15.124  12.184  12.281  0.0142  0.2469  0.0720
10714W        W26848  14.926   0.677  15.070  0.0831 -0.2188  0.1368
10715W        W26849   9.569   3.931   2.155  0.1064  0.0642 -0.1143
10716W        W26850   4.937  16.138  12.903  0.1217  0.0715  0.0809
10717W        W26851  10.088   3.410   5.223 -0.1634 -0.2931 -0.1924
10718W        W26852   7.261   2.048  16.556  0.3124  0.0659  0.0570
10719W        W26853   7.699   8.800  12.487  0.1511  0.0547  0.0355
10720W        W26854  14.622   5.945   0.705 -0.2874 -0.0033  0.3419
10721W        W26855   6.420  15.020   1.585  0.2067 -0.0729 -0.1582
10722W        W26856   4.291   0.492  12.202 -0.0196 -0.2850 -0.2437
10723W        W26857  12.571   8.937  16.332 -0.0583  0.2082  0.1649
10724W        W26858  15.790   4.153  15.703  0.0352 -0.3993  0.4196
10725W        W26859   8.906   9.116   3.811  0.1050  0.1806 -0.0105
10726W        W26860   8.534   7.156  13.572 -0.0821  0.0435 -0.1923
10727W        W26861   1.731   5.333   4.708 -0.0826  0.2626 -0.2152
10728W        W26862  16.369  13.151  15.708  0.0201  0.3105 -0.2375
10729W        W26863   1.779  11.760   5.082 -0.0340 -0.1942  0.3926
10730W        W26864  13.359  11.147  12.257 -0.0396  0.0367  0.0140
10731W        W26865   2.559  10.062   5.474  0.1299  0.1335 -0.0282
10732W        W26866  12.681   4.637  14.577 -0.2894 -0.3818 -0.0782
10733W        W26867  17.505  16.493   5.662 -0.2091 -0.2884 -0.2656
10734W        W26868  12.438   1.686  13.929  0.0424 -0.0598 -0.4005
10735W        W26869   5.718   7.795  12.488 -0.2362 -0.2448  0.1008
10736W        W26870  17.285   7.966  14.603  0.1118  0.1016 -0.0008
10737W        W26871   8.566   6.515  10.480 -0.0884 -0.0696 -0.4882
10738W        W26872   1.110   9.765  13.200  0.2972 -0.1282 -0.2107
10739W        W26873  10.328   9.877   2.385 -0.2767 -0.1790 -0.0202
10740W        W26874   1.991  12.855  12.653 -0.0975  0.1889  0.3211
10741W        W26875   4.598  14.600  15.482  0.0020 -0.0119  0.2358
10742W        W26876   1.213   9.958   0.842  0.0435 -0.4897 -0.0438
10743W        W26877  16.016  10.406   3.530  0.1870  0.2008  0.0924
10744W        W26878   4.018   9.083   4.707  0.1127  0.0637 -0.3156
10745W        W26879   7.997  16.116   2.292 -0.2835  0.3236 -0.0542
10746W        W26880  11.080  17.274   1.482  0.1512  0.1552  0.0426
10747W        W26881  10.358   3.094   4.030  0.1425 -0.0719  0.0076
10748W        W26882   6.764   4.459  13.849  0.1429  0.1953 -0.1890
10749W        W26883  11.798   7.102   2.552 -0.0376 -0.0232  0.3004
10750W        W26884   6.475  11.794  10.997 -0.1137  0.0577  0.2171
10751W        W26885  12.968   7.727  15.245  0.1165  0.2871  0.2612
10752W        W26886   5.605  12.380  10.478 -0.0798  0.1083  0.0917
10753W        W26887   8.348  12.324   0.184 -0.1339  0.0623 -0.1793
10754W        W26888  12.942   6.942  11.597  0.2514 -0.0493 -0.2285
10755W        W26889   4.571  12.899  11.693  0.4615 -0.2692  0.0128
10756W        W26890  16.662   0.221   3.514 -0.0806  0.0691 -0.0490
10757W        W26891  16.363   4.707  13.686  0.3141 -0.0903  0.0356
10758W        W26892  11.352  12.340  12.594  0.1006 -0.0859 -0.1117
10759W        W26893   2.108   4.939   4.323  0.0450 -0.0789  0.0636
10760W        W26894  10.209   0.197   0.585 -0.1785 -0.1561  0.0429
10761W        W26895   6.225  12.043   6.089  0.0678  0.0219  0.0487
10762W        W26896  15.669  13.182   4.962 -0.0248 -0.0258 -0.4576
10763W        W26897  17.187  16.927   1.775  0.1939  0.0083 -0.0989
10764W        W26898   0.461   4.049  16.468 -0.2068  0.3557  0.1780
10765W        W26899   0.439  10.082   0.358  0.0053  0.0025  0.2305
10766W        W26900   0.208  15.129   5.324  0.0714 -0.0146 -0.0808
10767W        W26901  17.661  11.306   5.475  0.3667  0.0507 -0.0112
10768W        W26902   5.701  17.483  14.320 -0.2076 -0.0748 -0.3643
10769W        W26903  15.346  12.472   0.897  0.1252 -0.2690  0.1373
10770W        W26904  10.515  14.415   5.408 -0.0008  0.1349 -0.1365
10771W        W26905   5.056   1.440  14.692 -0.0841  0.2906 -0.3158
10772W        W26906   7.381   9.279  15.234 -0.0923 -0.1081 -0.1361
10773W        W26907   6.633  14.870  12.214 -0.1059 -0.2566  0.2143
10774W        W26908  10.266   0.222   2.402 -0.1360 -0.1316  0.0424
10775W        W26909   4.289  17.715   1.239  0.0869  0.1760  0.0988
10776W        W26910  17.190  14.656  15.101  0.0464 -0.3671  0.1337
10777W        W26911  10.831   7.323  10.349  0.3502  0.0378 -0.2993
10778W        W26912  15.333   6.853  14.338 -0.2899  0.2466 -0.3345
10779W        W26913   0.592  11.037   1.170  0.2000  0.1364 -0.0692
10780W        W26914   0.138  13.941   3.290  0.2594  0.0460 -0.1562
10781W        W26915   6.334   3.325   0.603 -0.0000 -0.0626  0.0423
10782W        W26916   4.750  15.555  14.130  0.0677 -0.2236  0.1123
10783W        W26917   4.812   3.262   3.008  0.1126 -0.0023 -0.0995
10784W        W26918  16.945   4.960  12.300  0.0024  0.3815 -0.1781
10785W        W26919  12.813   0.284   0.133 -0.0413  0.0583  0.2422
10786W        W26920   9.632  12.526  11.828 -0.0518 -0.3141  0.3073
10787W        W26921   9.269  14.440   3.347 -0.1231 -0.0881  0.0883
10788W        W26922   5.988   6.264   2.684  0.3490 -0.0912 -0.3112
10789W        W26923   5.851  13.145   6.075  0.0655  0.0284 -0.0319
10790W        W26924  16.351  15.269   0.595 -0.0277 -0.2377  0.0044
10791W        W26925   4.541   6.646   5.545  0.0930 -0.0387 -0.0808
10792W        W26926  14.815   9.981   2.493  0.0745  0.3221  0.0270
10793W        W26927   9.223   2.502  14.860 -0.0701 -0.1809  0.0590
10794W        W26928   8.897  17.626   2.304 -0.2079  0.1589  0.3940
10795W        W26929  14.344   1.013   3.343 -0.1223  0.0853  0.1498
10796W        W26930  13.259  14.897  11.757 -0.0395 -0.0222  0.1078
10797W        W26931   8.987   9.649  14.288  0.0087  0.3676 -0.3021
10798W        W26932   7.397   7.308  15.007 -0.0959  0.1261 -0.1898
10799W        W26933   4.466   8.199   2.546 -0.0189 -0.0155  0.2327
10800W        W26934  14.156   3.757   2.387  0.1491 -0.1090 -0.1030
10801W        W26935   5.405   9.919   0.179 -0.1694 -0.1285 -0.0123
10802W        W26936  16.184   7.205  12.782 -0.0716 -0.0405  0.2394
10803W        W26937   1.830   7.612  11.688  0.1254  0.1794 -0.0971
10804W        W26938   2.567   3.079  16.471  0.1764 -0.0126  0.0211
10805W        W26939  10.368  17.278   0.802 -0.1736 -0.0252  0.0311
10806W        W26940   0.151   7.656   4.126 -0.4001  0.2273 -0.1251
10807W        W26941   4.154  15.217   6.396  0.1107 -0.0932  0.2429
10808W        W26942   7.551  12.027  15.058 -0.1548 -0.0239 -0.1065
10809W        W26943   1.022   9.321  11.723 -0.1318 -0.0404 -0.1168
10810W        W26944   0.155  14.463   1.833 -0.2717  0.2589  0.1985
10811W        W26945  13.092  11.320   2.580  0.0519  0.2331  0.0109
10812W        W26946   9.846  10.369   1.116  0.1832  0.0296 -0.1088
10813W        W26947  14.141  15.051   2.796  0.0612  0.0942  0.3942
10814W        W26948  11.039   3.299  15.539  0.0865 -0.0328  0.2406
10815W        W26949  10.942   4.787  14.268  0.0715  0.1243 -0.2938
10816W        W26950   7.505   9.428  11.194  0.0448  0.0723  0.3878
10817W        W26951  10.478   0.635   1.449  0.0288 -0.1030 -0.1067
10818W        W26952  15.813  16.419  12.837  0.0300 -0.4979 -0.2985
10819W        W26953   7.037   2.939   3.133 -0.1125 -0.2847 -0.0373
10820W        W26954   3.480   0.105   2.464  0.4518 -0.0003 -0.2717
10821W        W26955   2.164  17.454  14.573  0.0567 -0.2475 -0.0509
10822W        W26956  11.062   3.191   1.863  0.1447  0.0312  0.0688
10823W        W26957  11.491  10.261   1.801 -0.3693  0.3330  0.1677
10824W        W26958   8.422  12.509  16.078  0.2178  0.1183  0.0492
10825W        W26959  10.826  13.842  15.983 -0.0510 -0.1250  0.1028
10826W        W26960  12.103  12.235  15.995 -0.1641 -0.0831 -0.0896
10827W        W26961   0.326  13.142   2.573 -0.1618  0.4070 -0.0343
10828W        W26962   1.385   8.324   5.087  0.2160 -0.3517  0.1473
10829W        W26963  16.046  14.659   0.773  0.0398  0.5021  0.0781
10830W        W26964  11.844   5.894  13.022 -0.3067  0.0216 -0.4471
10831W        W26965  11.662  10.206   2.253  0.0975 -0.0425 -0.0689
10832W        W26966   2.106   7.297   4.542 -0.2542  0.1630 -0.0251
10833W        W26967   3.687   2.243  13.485 -0.1436  0.1282 -0.3164
10834W        W26968  12.699   1.302   0.670 -0.1432  0.0835 -0.2331
10835W        W26969   3.582  13.576   1.106  0.2094  0.3222 -0.0808
10836W        W26970  16.299   5.264   0.609 -0.0302 -0.2401  0.2846
10837W        W26971   5.543   7.985   5.057 -0.0926  0.0039  0.1195
10838W        W26972  11.739  12.245   6.059 -0.0264  0.1400  0.1129
10839W        W26973  15.572   6.504  15.916  0.1826  0.0621 -0.1934
10840W        W26974   2.320   0.957  11.450 -0.1673 -0.0837 -0.1298
10841W        W26975   5.213  15.361  13.542 -0.1641  0.1394  0.1039
10842W        W26976  10.719   4.940  16.191 -0.2877  0.1933 -0.2235
10843W        W26977  14.668   8.672   2.191  0.1674 -0.2237 -0.0604
10844W        W26978   1.615  12.135  13.233 -0.0841  0.1724  0.0768
10845W        W26979   5.692   7.605   4.595 -0.0679  0.4731  0.0294
10846W        W26980   9.410  12.055   2.643  0.1194  0.2264 -0.1664
10847W        W26981  15.579   1.769  13.910 -0.0131 -0.0128  0.0860
10848W        W26982   8.081  12.544   2.352 -0.2097  0.1956  0.2218
10849W        W26983   2.940  14.467   1.215  0.0045 -0.2943 -0.0290
10850W        W26984   9.543  14.176   0.279  0.2865  0.1213  0.1492
10851W        W26985   1.047   1.241   0.841  0.1299  0.0496 -0.1253
10852W        W26986  11.029  17.657   6.254  0.0651  0.1336  0.2069
10853W        W26987   1.417   8.166   1.604 -0.1800  0.2712 -0.1796
10854W        W26988   8.488  14.320  12.524  0.2211  0.1684  0.4070
10855W        W26989   1.482   3.402   0.493  0.0620  0.0926 -0.1917
10856W        W26990   6.388  11.611   1.252  0.0899 -0.3955 -0.0338
10857W        W26991  10.922   1.014   5.712  0.2836 -0.1587  0.2314
10858W        W26992   4.211  17.819   2.325  0.0477  0.4687  0.0614
10859W        W26993   8.986   7.569  12.444 -0.0808 -0.0153 -0.2548
10860W        W26994  16.649  16.229  14.369  0.3378  0.0965  0.2361
10861W        W26995   3.496   2.831  14.677  0.1322 -0.1730  0.0134
10862W        W26996  17.906   3.594  12.088  0.1433 -0.0530  0.0783
10863W        W26997   4.424  17.826   4.595  0.2796 -0.1238  0.2180
10864W        W26998  17.793   8.151   0.079 -0.1418  0.2526  0.0229
10865W        W26999  13.520   8.512  11.012  0.3151 -0.1157  0.1604
10866W        W27000  15.305   8.641   4.576 -0.0459  0.1285 -0.3736
10867W        W27001   1.550  10.230  11.488  0.1010  0.0525  0.2377
10868W        W27002   0.381  12.702  13.998 -0.0085  0.1106  0.1510
10869W        W27003   3.640  10.384   3.763  0.0348  0.1109 -0.0125
10870W        W27004   7.843  16.466   4.669  0.3938  0.0558 -0.1574
10871W        W27005  15.912  15.756   5.518 -0.0206  0.1814  0.0225
10872W        W27006  16.224   4.326   5.236  0.0958 -0.0577  0.0929
10873W        W27007   2.107   6.658   3.588 -0.2720 -0.2824  0.4040
10874W        W27008   1.120  11.121  11.747 -0.0050  0.0499  0.2551
10875W        W27009   4.187  14.842   0.867 -0.0681 -0.1805 -0.1370
10876W        W27010  12.141  12.380   5.257  0.0643  0.2485 -0.0830
10877W        W27011  13.698  12.277  13.144 -0.1756 -0.0558 -0.2929
10878W        W27012  10.915   9.892  11.125 -0.1841  0.1507  0.1326
10879W        W27013  12.633  16.378  14.910 -0.1142 -0.2412 -0.2501
10880W        W27014   3.755  17.586  15.620  0.0552  0.0390 -0.0799
10881W        W27015   6.578  11.643   5.275  0.2472 -0.2162 -0.2963
10882W        W27016   0.673   8.214   5.620 -0.2775  0.1469 -0.0205
10883W        W27017   0.600   7.927   6.042 -0.3322  0.3418 -0.2500
10884W        W27018   0.366   8.947   3.993 -0.2291 -0.2478 -0.2154
10885W        W27019   6.969  11.122  14.608  0.0284  0.1842  0.1629
10886W        W27020   1.119   1.118   4.420 -0.0948  0.0266 -0.0788
10887W        W27021   4.872   2.249  15.808  0.1115 -0.1224 -0.0665
10888W        W27022  14.448   1.036   4.789  0.2171  0.1140  0.1424
10889W        W27023   9.962  14.113  11.271  0.1670  0.0235  0.4787
10890W        W27024  11.888  10.171   4.894 -0.0255 -0.2814 -0.1467
10891W        W27025  11.283   1.556   1.170  0.0866  0.2861  0.2872
10892W        W27026   2.124  11.769   0.933 -0.1177 -0.0326  0.2993
10893W        W27027  11.586   6.383  14.753  0.2462 -0.0572  0.0755
10894W        W27028   0.490  14.366   1.394 -0.4867 -0.2238 -0.1075
10895W        W27029  16.540   3.342   0.654 -0.0083  0.2311  0.2561
10896W        W27030  10.197  15.737   3.454  0.0123 -0.3208 -0.1219
10897W        W27031  11.852  16.887   4.547 -0.0614 -0.4869  0.0637
10898W        W27032   7.693  14.452  16.617  0.0206 -0.2595  0.2401
10899W        W27033  11.621   6.250  15.785  0.1577 -0.2525 -0.1250
10900W        W27034  15.705  17.497  16.041 -0.1680  0.3078  0.0644
10901W        W27035  15.328  15.672  11.950 -0.0550 -0.0139 -0.0097
10902W        W27036  15.915  16.282  13.342  0.0338 -0.2027  0.0479
10903W        W27037   6.798  11.916   0.640 -0.1877  0.0641 -0.0284
10904W        W27038  16.822  12.552  15.090 -0.0613  0.3098 -0.1229
10905W        W27039   6.899  15.742  16.651  0.0377  0.3037  0.0512
10906W        W27040   9.821  13.283  12.670 -0.2332 -0.2423 -0.1392
10907W        W27041  15.787   4.192  12.232 -0.2053  0.2557  0.3167
10908W        W27042  14.613  17.022  13.618  0.0519 -0.0931  0.1028
10909W        W27043   4.569   7.432   2.138 -0.0967  0.1684 -0.1629
10910W        W27044   7.483   2.408   5.555 -0.0798 -0.0707  0.4274
10911W        W27045  16.522  15.922  16.257 -0.0239  0.1101  0.2086
10912W        W27046  16.185   2.435  16.636  0.0132  0.2468  0.1976
10913W        W27047   5.237   8.122   1.487 -0.0503  0.1337 -0.0749
10914W        W27048   2.394   4.089  12.675  0.3088 -0.0331 -0.3952
10915W        W27049  13.099   4.980  16.515  0.2500  0.2262  0.1429
10916W        W27050  16.856  11.978   1.719  0.3808 -0.2513 -0.0590
10917W        W27051   0.878  17.469   0.324 -0.0926 -0.0731 -0.0328
10918W        W27052  15.818   7.820  11.861 -0.0029  0.1658 -0.1841
10919W        W27053  11.940  14.946  15.013 -0.0776 -0.2504  0.1270
10920W        W27054   6.475   3.158   5.655  0.0783  0.1009 -0.0553
10921W        W27055  16.959   7.790   1.095 -0.2289  0.0063  0.5521
10922W        W27056   1.831  10.541   3.526 -0.3225  0.1153 -0.1602
10923W        W27057   8.230   4.918  12.314  0.1820  0.1004  0.0654
10924W        W27058  14.462  16.603   6.388 -0.1672 -0.1192 -0.0038
10925W        W27059   3.051   6.524   3.911 -0.2725  0.0340  0.2474
10926W        W27060   8.890   8.916  16.138 -0.1163  0.0501 -0.1318
10927W        W27061  12.434  17.646  15.558  0.3474  0.2519  0.1762
10928W        W27062  12.304  17.543   0.039  0.0216  0.0434 -0.1631
10929W        W27063   8.296   2.386   3.413 -0.0266 -0.0209  0.0417
10930W        W27064  10.232   0.607  12.238 -0.2430  0.0205 -0.0525
10931W        W27065   4.394   8.390  11.496  0.0707 -0.0755 -0.2266
10932W        W27066   1.921  12.816   5.441  0.0801 -0.0327 -0.1588
10933W        W27067   9.978  11.453  15.824  0.2935  0.0519 -0.0774
10934W        W27068  15.569   2.718   0.708  0.1682  0.0074  0.1879
10935W        W27069   7.626  17.035  15.596  0.0597  0.0377  0.0599
10936W        W27070  11.113   7.513  15.283  0.1884  0.2625  0.3127
10937W        W27071   1.524  12.610   0.846  0.0970 -0.1193 -0.0322
10938W        W27072  10.811   3.167   0.961  0.2126 -0.1810 -0.0654
10939W        W27073  17.659   3.578  16.248 -0.0180 -0.1363 -0.1047
10940W        W27074   1.822  13.786   4.833 -0.0766  0.1341 -0.0462
10941W        W27075   0.567   5.184   3.856 -0.1570 -0.0366 -0.0990
10942W        W27076  13.789  12.452   0.059  0.4341  0.0494 -0.1515
10943W        W27077   1.111   0.205  13.081 -0.0583 -0.0833  0.0197
10944W        W27078  17.236   7.382  14.220  0.1227  0.1575  0.1648
10945W        W27079   5.244  13.576   0.416 -0.1984  0.0090  0.2102
10946W        W27080  17.630  13.412   1.164 -0.0302  0.0300 -0.0726
10947W        W27081  14.805  14.432  12.856  0.2048 -0.1316 -0.0352
10948W        W27082   5.883  14.212  13.756 -0.0719  0.0616  0.0302
10949W        W27083   8.141  16.938  11.412 -0.2144 -0.1662 -0.0479
10950W        W27084  16.732  10.466  11.541 -0.2807  0.2104 -0.2955
10951W        W27085  13.949   8.329   1.535 -0.1771 -0.1052 -0.0037
10952W        W27086  16.991  10.819   4.524  0.5116 -0.3067 -0.1868
10953W        W27087  14.250   5.512  16.640 -0.3430  0.3603  0.1854
10954W        W27088  11.922   2.773   0.023 -0.0849  0.0143  0.0347
10955W        W27089  15.920  14.957   2.023 -0.2247  0.1263  0.0245
10956W        W27090   4.817  14.363  12.663  0.2229  0.1056  0.0911
10957W        W27091   6.964  11.031   3.878 -0.2912 -0.5661  0.0244
10958W        W27092  13.910   8.688   1.061  0.2816 -0.1760  0.0262
10959W        W27093   8.706  11.264  15.098 -0.1968  0.2330  0.0480
10960W        W27094  16.818  17.634   0.120  0.1952 -0.1600  0.0064
10961W        W27095  13.176   2.616  11.354  0.0638  0.2276 -0.0881
10962W        W27096  10.726   7.051  12.714  0.1706  0.0184  0.0224
10963W        W27097   6.349  16.389  10.786 -0.2317 -0.5481  0.0872
10964W        W27098  12.401   5.310  15.259 -0.3169 -0.0831 -0.0632
10965W        W27099   9.460   1.397  14.670  0.2170  0.1398 -0.1561
10966W        W27100   2.160  12.682  11.731 -0.0727  0.2394  0.1352
10967W        W27101   2.926   6.015  10.342 -0.0506  0.0952 -0.0934
10968W        W27102   2.681   6.362  11.307 -0.2614 -0.0719  0.1211
10969W        W27103   1.114  16.632   1.230  0.4044 -0.1282  0.0769
10970W        W27104  17.092  13.094   0.528  0.2165 -0.0095  0.3045
10971W        W27105  12.368  17.122   3.364  0.3288  0.2267  0.0965
10972W        W27106  11.511   0.579  12.274  0.2032  0.1691 -0.0801
10973W        W27107  15.791   4.580   4.943  0.0250  0.0990  0.0250
10974W        W27108  15.434   3.850  12.097  0.2344  0.1528 -0.1827
10975W        W27109   6.424   6.734   0.561  0.1610  0.2091  0.1110
10976W        W27110   0.223  16.402  12.610  0.0673 -0.1119 -0.1864
10977W        W27111   0.675   6.889   0.586  0.2414 -0.1868  0.1909
10978W        W27112  16.149  14.360   2.813 -0.3082  0.1407 -0.0121
10979W        W27113   5.885   7.493   5.693 -0.0390  0.1151 -0.0940
10980W        W27114  15.286  10.065  16.025 -0.1729  0.2409  0.0803
10981W        W27115   1.398  14.515  14.801 -0.2044 -0.0243 -0.0444
10982W        W27116   6.182  10.569   4.557 -0.1431 -0.2055 -0.1335
10983W        W27117  13.674  17.189  14.951  0.1977  0.2232 -0.0242
10984W        W27118  14.614   8.063   3.857 -0.0206  0.0912 -0.2324
10985W        W27119  12.587  16.280  16.010  0.0609 -0.2606  0.1597
10986W        W27120  12.338   6.586   4.049  0.1996  0.3638  0.1458
10987W        W27121   6.880  12.765   1.460  0.1871 -0.3604 -0.2452
10988W        W27122  10.158  12.286  15.324  0.0089 -0.0463 -0.0318
10989W        W27123   7.279  14.535   1.187 -0.0019  0.0034 -0.2672
10990W        W27124   2.642  17.388   0.398  0.1524 -0.0020  0.0767
10991W        W27125  15.954  11.126   3.202 -0.1904 -0.0410 -0.0094
10992W        W27126  16.810  11.552  12.943  0.0906 -0.0583 -0.1199
10993W        W27127  14.023  17.399  15.774 -0.1601 -0.0035  0.3711
10994W        W27128   0.174   3.290  11.240  0.2418 -0.1141  0.2160
10995W        W27129   1.301  13.248  14.743 -0.0840  0.0528  0.1935
10996W        W27130   1.283   1.611  10.745 -0.1049 -0.0555  0.1536
10997W        W27131   7.691   4.164  16.569 -0.0163 -0.1854  0.0772
10998W        W27132  16.223   6.548   5.891  0.2525 -0.1396 -0.1509
10999W        W27133   1.994   1.515   4.809 -0.0094 -0.2951  0.3542
11000W        W27134   0.210   6.102  11.318 -0.2103  0.1844  0.1095
11001W        W27135  10.021   4.529   5.603  0.1124 -0.0040 -0.1143
11002W        W27136   7.053  16.133  14.755  0.0687  0.0404 -0.1863
11003W        W27137   0.600   4.008   3.830 -0.0536  0.2102 -0.0815
11004W        W27138   2.606  15.957   1.744 -0.0138  0.0150  0.2945
11005W        W27139  13.817   2.776  13.563  0.0528  0.1096 -0.0858
11006W        W27140   6.294  15.619  13.184 -0.1504  0.0816  0.0609
11007W        W27141   5.940   8.354   0.754 -0.0067 -0.4744 -0.1684
11008W        W27142   9.571  14.495   5.248 -0.0082  0.0910 -0.1199
11009W        W27143   6.166   9.979  15.369  0.1629 -0.1816  0.1645
11010W        W27144   6.167  15.145  16.164  0.1855 -0.0922 -0.0290
11011W        W27145   9.486   7.766  12.247  0.5043 -0.1636  0.0051
11012W        W27146   8.910   7.272  13.129 -0.2105 -0.5327 -0.1811
11013W        W27147  16.978   1.935  11.662 -0.0684  0.1119  0.0733
11014W        W27148   8.063   8.785   4.370  0.0487  0.1025  0.0190
11015W        W27149  10.761   9.752   3.353 -0.2323  0.1384 -0.1447
11016W        W27150   3.897   2.895  14.165 -0.0533 -0.0200 -0.0913
11017W        W27151   0.609  17.209   0.929 -0.0071  0.2550  0.0282
11018W        W27152   2.242  11.035   3.031 -0.1586 -0.2490 -0.3551
11019W        W27153   7.498   7.241   2.357 -0.1345  0.0423 -0.1202
11020W        W27154   1.168   0.662  14.449 -0.0493  0.5249  0.1221
11021W        W27155   2.624  14.127  16.569  0.0051 -0.1411  0.0150
11022W        W27156   3.932   6.356  12.576  0.1291  0.0718  0.1307
11023W        W27157  11.589  16.140  14.446  0.0184  0.0507  0.0437
11024W        W27158  16.467  11.051  13.044 -0.0732  0.1892  0.0306
11025W        W27159   4.086   0.842  11.729  0.4428  0.0105  0.0429
11026W        W27160  11.709   8.016  14.864  0.2738  0.0891  0.0275
11027W        W27161  17.879  17.056   4.230 -0.2428  0.1368 -0.1794
11028W        W27162   3.966   2.950   2.551 -0.1091 -0.1327 -0.3082
11029W        W27163   7.477   7.890   3.098 -0.7364 -0.2489  0.1107
11030W        W27164   0.095  17.478  13.794 -0.3089 -0.0175  0.0345
11031W        W27165   4.409   1.384   1.873  0.2468  0.0962  0.0457
11032W        W27166   6.648   1.657   0.625  0.1671 -0.2014 -0.0462
11033W        W27167   0.957   4.536   0.316 -0.0190 -0.1011  0.2837
11034W        W27168   2.485  10.978   2.493  0.0701 -0.1565 -0.0838
11035W        W27169   5.282   7.060   0.635  0.0955  0.0764  0.0110
11036W        W27170   2.737  13.057  15.539 -0.0225  0.1474 -0.1280
11037W        W27171  11.312   8.270  11.373 -0.0283  0.0494 -0.2437
11038W        W27172  14.615  14.268  15.980 -0.0697  0.1661  0.0662
11039W        W27173   8.107   4.778   2.820  0.0334 -0.1339  0.0692
11040W        W27174  14.470   2.159   6.180 -0.1948 -0.0623  0.0189
11041W        W27175   3.280  13.023   5.240 -0.0041 -0.1769 -0.2508
11042W        W27176   7.402  11.538   3.569  0.1168  0.1943 -0.1485
11043W        W27177   4.857  10.671   5.706  0.1467 -0.2131 -0.3346
11044W        W27178  15.075   0.879   3.019  0.2224 -0.0384  0.1105
11045W        W27179  11.341  13.818  12.501  0.0279 -0.0739  0.0028
11046W        W27180  16.184   6.606   4.152 -0.1657 -0.0044 -0.1785
11047W        W27181  12.033   9.361  15.320 -0.6613  0.0175 -0.0372
11048W        W27182   4.043   5.857   1.774  0.5075 -0.0060  0.2992
11049W        W27183  10.442   5.461  14.369 -0.3125  0.3142  0.1922
11050W        W27184   7.255   2.850  15.918 -0.0422  0.1116  0.0836
11051W        W27185   5.983   9.110  11.367  0.1072  0.2984 -0.2688
11052W        W27186  17.751   0.518   5.669  0.2386  0.0606 -0.4337
11053W        W27187   6.250   7.617   2.675 -0.1443  0.0110  0.0002
11054W        W27188  16.277  16.694   4.765  0.0486 -0.0672  0.3491
11055W        W27189  14.974   3.813  15.946  0.0813 -0.1828  0.2774
11056W        W27190   6.500  11.762   4.660  0.3486 -0.1314  0.0940
11057W        W27191   2.631  16.962  12.460 -0.3006  0.0232  0.0390
11058W        W27192  13.968   5.778  14.916 -0.4999 -0.1552 -0.0506
11059W        W27193  17.909   8.683   3.154  0.0663  0.2630 -0.0890
11060W        W27194   4.264  14.894  15.792 -0.0378 -0.3082  0.2160
11061W        W27195  13.042   9.100   4.329  0.0241 -0.2152 -0.0797
11062W        W27196  15.940   7.452   1.865 -0.0791 -0.1089 -0.0845
11063W        W27197   1.538  14.498   2.976 -0.1162  0.0781  0.1553
11064W        W27198  10.606  13.795  13.697  0.0647  0.3431 -0.1749
11065W        W27199  14.635   9.986  14.226 -0.0339  0.2739 -0.1085
11066W        W27200   2.586   1.403  12.065  0.1561 -0.0675 -0.0565
11067W        W27201   8.983  14.622   1.704  0.1993 -0.1112  0.2004
11068W        W27202  14.665   9.213  16.269  0.1687  0.2225  0.1217
11069W        W27203   8.477   3.297  14.120 -0.2065 -0.0983 -0.0277
11070W        W27204  15.963   3.802  11.996  0.1111  0.2144 -0.0089
11071W        W27205   3.493   2.476   0.655 -0.1571  0.1362  0.3191
11072W        W27206  13.957   2.662   4.736 -0.2154  0.1460  0.5018
11073W        W27207   7.247   3.509   3.635  0.2440  0.3589 -0.1468
11074W        W27208  15.924   4.060  12.944 -0.0087  0.1198  0.2619
11075W        W27209   5.549   4.615   3.280  0.2863 -0.0814 -0.1502
11076W        W27210   1.569   5.350   2.408 -0.3847 -0.1347  0.1629
11077W        W27211   7.925   0.125   1.428 -0.2525  0.1239 -0.2033
11078W        W27212   8.792   4.530  13.334  0.1535  0.0973  0.1414
11079W        W27213  12.726   2.457  14.538  0.1408 -0.2277  0.1884
11080W        W27214   9.667   1.175   4.459  0.0047  0.3551 -0.1095
11081W        W27215  15.099   0.874  14.033 -0.4602 -0.1076  0.1433
11082W        W27216   1.086   5.362  14.730  0.3030  0.0503 -0.0708
11083W        W27217  17.090  17.671   4.079  0.2033 -0.1999  0.0214
11084W        W27218  11.162   6.536  14.352  0.3523  0.0544 -0.0358
11085W        W27219  17.428  11.074  12.068  0.0687  0.0890 -0.0585
11086W        W27220  12.892   8.597  15.484 -0.2267 -0.0495  0.0378
11087W        W27221  14.466  16.097   3.740  0.2881 -0.0963  0.3179
11088W        W27222  14.925  17.585   2.496 -0.1825 -0.0078  0.3395
11089W        W27223  17.312   3.558   0.107  0.1296  0.1086  0.0160
11090W        W27224   7.509   1.084  15.385 -0.0140 -0.1457  0.1700
11091W        W27225  16.520  12.359  15.436  0.0620 -0.3593 -0.2589
11092W        W27226   3.044  10.163   1.140 -0.2915 -0.3683  0.1785
11093W        W27227  17.467  15.776  13.271  0.3852 -0.0676 -0.0932
11094W        W27228   6.538  16.105   1.337 -0.0684 -0.2960 -0.1954
11095W        W27229  11.332  15.589  13.059 -0.2382  0.1096 -0.3679
11096W        W27230  13.658  15.746  13.125 -0.2356  0.1255  0.2536
11097W        W27231   8.679   9.599  14.770 -0.0148 -0.0466  0.2084
11098W        W27232  10.036  14.086   2.248 -0.1480 -0.1261 -0.0357
11099W        W27233   8.159  12.956  12.223 -0.0291  0.0224 -0.2072
11100W        W27234  12.898  13.985  15.275  0.2565  0.0197  0.1060
11101W        W27235  12.813  16.507   2.088 -0.1027 -0.0923  0.1347
11102W        W27236  16.472   0.829   2.128 -0.0355  0.0174  0.1818
11103W        W27237   7.824  14.724  11.113  0.0466 -0.3389  0.1487
11104W        W27238   8.954  11.294   1.941  0.1636  0.1727 -0.2452
11105W        W27239  13.013  11.079  11.707 -0.2182 -0.0212  0.0405
11106W        W27240   9.637   5.628   2.727 -0.1007  0.1075  0.4832
11107W        W27241   9.684  16.652   0.205 -0.1602  0.2568  0.3179
11108W        W27242   5.252  15.788   4.275  0.4777 -0.2920 -0.0063
11109W        W27243  16.951  10.605  16.073 -0.0713  0.0179 -0.1780
11110W        W27244   5.021  11.316  14.326  0.1501  0.0785  0.0334
11111W        W27245  12.229   6.506   4.518 -0.1779 -0.4515  0.1636
11112W        W27246   9.230  14.992  16.122  0.2621  0.3204 -0.2374
11113W        W27247   2.420  10.940  15.169  0.0994 -0.2544  0.1409
11114W        W27248  11.097  14.233  12.451  0.0182  0.2204 -0.1116
11115W        W27249   5.350   5.585  12.001  0.1921 -0.0006 -0.0967
11116W        W27250  13.585  13.737   0.434 -0.0951 -0.0406  0.3012
11117W        W27251   0.132  17.345   3.253 -0.2228 -0.3081  0.0012
11118W        W27252  17.488  10.535   5.245 -0.0825  0.0953  0.1783
11119W        W27253  11.800  16.089   2.253  0.2560 -0.1261  0.0526
11120W        W27254  11.244  14.382   0.164  0.3396 -0.1851 -0.1944
11121W        W27255   2.753   5.031   6.235  0.2119  0.0563 -0.0680
11122W        W27256  16.004   3.989  16.140 -0.2089  0.1186 -0.1699
11123W        W27257   9.363   4.615   1.545 -0.3033  0.1913  0.2637
11124W        W27258  17.271  11.067  14.754 -0.0430 -0.0330  0.1061
11125W        W27259   9.909   6.768   2.050  0.1066  0.0841 -0.0689
11126W        W27260   3.728  12.772   5.138 -0.1570  0.0381 -0.2048
11127W        W27261  13.722  11.695   1.133 -0.2002  0.0190 -0.2086
11128W        W27262   9.898   3.495   1.277  0.0319  0.2402  0.3229
11129W        W27263  11.020  13.293   4.227  0.1735 -0.3502 -0.2068
11130W        W27264   4.501  12.613  12.124 -0.2476 -0.0423 -0.0797
11131W        W27265  14.342   0.899   0.826  0.0964  0.2299  0.0467
11132W        W27266  15.216   5.321   4.728  0.0781  0.0763 -0.2297
11133W        W27267  12.816  14.001   3.389 -0.2864 -0.0055  0.0943
11134W        W27268  17.760  11.199   4.933 -0.2157  0.1708 -0.1538
11135W        W27269   5.068   7.808  14.678 -0.0685  0.1854 -0.3498
11136W        W27270   0.886   1.188   1.408 -0.2679  0.2862 -0.1886
11137W        W27271  10.000  17.902  15.368 -0.0520  0.0497 -0.3211
11138W        W27272   7.246   9.584  14.692 -0.1012  0.0482 -0.1919
11139W        W27273   6.937  15.806   3.512  0.0851  0.1612  0.0419
11140W        W27274   8.610  14.132  13.565  0.1309  0.3506  0.1986
11141W        W27275   1.563  15.318  11.177 -0.2403  0.0326  0.1022
11142W        W27276  11.253  12.834   4.162 -0.1131 -0.3836  0.1473
11143W        W27277   0.795   4.536  12.076 -0.3721  0.0191  0.0303
11144W        W27278   8.377   9.577  15.689  0.0337  0.1053  0.3839
11145W        W27279   5.267   0.902  11.955  0.5032 -0.1274  0.2989
11146W        W27280  11.444  17.292  11.764 -0.1506  0.2379  0.1524
11147W        W27281  10.933  15.323   5.407 -0.1451 -0.1838  0.0923
11148W        W27282  10.022  17.816  12.186 -0.2836 -0.1368 -0.0617
11149W        W27283   6.243   1.448  14.879  0.3117  0.0582 -0.1200
11150W        W27284  11.786   5.996   5.066  0.1864  0.1634  0.0155
11151W        W27285   6.160  11.964  14.609  0.0888 -0.0160  0.1794
11152W        W27286  12.933  15.402   0.230 -0.1078  0.0191 -0.1306
11153W        W27287   0.991   5.574   5.566  0.3009 -0.0682  0.1097
11154W        W27288  15.235  13.361   5.726  0.2721  0.1113  0.1330
11155W        W27289  12.655   6.286   4.299 -0.1768  0.2677  0.4593
11156W        W27290  17.236  10.429   1.464 -0.1295  0.2783  0.0573
11157W        W27291  10.126  10.137  16.522 -0.2337 -0.3326 -0.1193
11158W        W27292   0.253   4.757   2.476 -0.0754 -0.1599 -0.0386
11159W        W27293   3.884  13.939  13.684 -0.3831 -0.1318  0.2306
11160W        W27294  16.073   6.146   3.937 -0.1889 -0.0541  0.0582
11161W        W27295   3.598  16.700  11.670  0.1593  0.3778 -0.0610
11162W        W27296   9.234  14.079  14.170  0.2345 -0.2776 -0.1896
11163W        W27297   0.456  11.381   1.581 -0.0043  0.1655  0.2386
11164W        W27298  10.167   8.470   0.014  0.0159 -0.0178 -0.0568
11165W        W27299   9.273  15.712  14.691  0.2572 -0.0640  0.4151
11166W        W27300   6.851   4.252  15.252  0.0704  0.0372  0.3528
11167W        W27301   1.607   2.989   4.115  0.0905  0.3582 -0.3668
11168W        W27302   5.826   2.113  11.623 -0.1873 -0.0184 -0.0116
11169W        W27303   5.672   1.368  13.020 -0.0477  0.0047  0.0038
11170W        W27304  17.340  10.753   3.079  0.0120  0.2344 -0.1457
11171W        W27305   9.193  14.392  14.588  0.0279  0.1389 -0.2592
11172W        W27306   1.092  17.093   0.168  0.2001  0.1203  0.0369
11173W        W27307   1.033  14.738  16.340 -0.0449 -0.2207 -0.2348
11174W        W27308   6.233  12.921   1.425  0.0729  0.1987 -0.0642
11175W        W27309   8.318  13.576   4.906 -0.4965 -0.0324 -0.0505
11176W        W27310  11.005   6.925  13.653 -0.0376  0.2068 -0.5754
11177W        W27311   0.984   1.113  12.882  0.0496 -0.1220  0.1294
11178W        W27312   7.673   9.564   5.190  0.0363  0.1566  0.2181
11179W        W27313   2.144   9.356  15.059 -0.2424 -0.2342  0.1781
11180W        W27314   5.020   9.762  11.649  0.0448 -0.0087 -0.2089
11181W        W27315  10.311   0.139   3.755  0.0705 -0.1102  0.1626
11182W        W27316  14.989   6.789  13.878 -0.1455  0.0048  0.1286
11183W        W27317  14.963  14.614   4.560  0.1373 -0.0108 -0.1455
11184W        W27318  16.233   4.503   2.553 -0.3291  0.0809  0.1432
11185W        W27319   9.267   6.160   2.278  0.2733  0.3317 -0.2270
11186W        W27320  17.759  15.137   2.616  0.0483  0.4819  0.2054
11187W        W27321  17.129  15.090   0.055  0.0418  0.0221 -0.1854
11188W        W27322  17.423  13.281   3.819  0.0877  0.0829 -0.0552
11189W        W27323  12.848  15.112   1.454  0.1200  0.2465 -0.1963
11190W        W27324  11.025   8.549   2.823  0.2789  0.0954  0.0047
11191W        W27325  11.377   9.110  15.747  0.0106 -0.1250  0.1166
11192W        W27326   3.443   1.053   2.870  0.0413 -0.2777  0.1373
11193W        W27327  11.732  11.525  16.535 -0.0839 -0.1958  0.0167
11194W        W27328  13.740  11.797  16.208 -0.2295 -0.1122  0.2560
11195W        W27329   4.218  17.517  11.961  0.1366 -0.2595  0.0158
11196W        W27330   9.996   1.088   2.809 -0.1582 -0.0670  0.0046
11197W        W27331   9.580  11.553   3.037 -0.0029 -0.0070  0.5986
11198W        W27332   7.912  11.402  11.170  0.1745  0.1475 -0.0384
11199W        W27333  12.346   1.892   0.525  0.0469  0.2260  0.0693
11200W        W27334   7.284  14.609  14.776 -0.1454 -0.2299  0.1317
11201W        W27335  13.713  10.748  12.415  0.1169 -0.2718 -0.0692
11202W        W27336  14.163  10.950  16.676  0.0848 -0.0441 -0.0156
11203W        W27337  12.402   0.667  13.026 -0.2957  0.1767 -0.1484
11204W        W27338  10.660  14.717  15.088  0.1943 -0.0428  0.1896
11205W        W27339   5.071  10.805  15.410 -0.4450 -0.2328  0.0283
11206W        W27340   9.795  12.540   4.283  0.1251 -0.0353  0.2232
11207W        W27341  14.366  10.071  11.213 -0.1889 -0.3048 -0.2301
11208W        W27342   1.570   7.177  12.163 -0.0434  0.1270  0.0167
11209W        W27343  13.967  13.210   2.220  0.2004 -0.0145  0.2167
11210W        W27344  15.698  10.970   4.970 -0.3524  0.0015  0.1870
11211W        W27345   6.303   9.654   0.629  0.1478  0.0298  0.0490
11212W        W27346  14.914  12.587   4.435 -0.1172  0.3163 -0.1754
11213W        W27347  15.735  10.281  12.686  0.0175  0.3854 -0.1636
11214W        W27348  11.144  14.177  15.776  0.0913 -0.2908 -0.0215
11215W        W27349   8.217  16.180  11.480  0.0391 -0.1053 -0.1184
11216W        W27350   0.742  12.829   2.670  0.1610  0.1555 -0.1080
11217W        W27351   8.868   6.058  14.293  0.1137  0.1121 -0.2512
11218W        W27352  10.149  15.600  13.117  0.3160  0.2538 -0.4920
11219W        W27353   6.904  10.911  15.010 -0.0764  0.1979  0.1393
11220W        W27354   4.819   3.923  12.336  0.0569 -0.2903 -0.0893
11221W        W27355   8.431  17.104  14.936 -0.2994  0.2521 -0.0346
11222W        W27356   4.876   7.007   5.182  0.0197 -0.2300  0.1340
11223W        W27357   3.539   9.642   0.485  0.0262  0.0413 -0.1028
11224W        W27358  16.307  14.643  12.379  0.1768 -0.0337  0.0827
11225W        W27359   7.737   0.381  15.007  0.3172  0.0658 -0.1491
11226W        W27360  10.072   0.437   5.097  0.3289  0.2713 -0.0821
11227W        W27361   7.140  15.734  12.132 -0.3498  0.1202  0.1287
11228W        W27362  11.862  15.722   0.941 -0.0611  0.0365  0.0229
11229W        W27363   0.550  17.706  12.391 -0.2638 -0.1266 -0.0106
11230W        W27364  17.637  15.208  13.399  0.0714  0.0754  0.0418
11231W        W27365   2.830   2.347  12.124 -0.1386  0.1175 -0.1585
11232W        W27366   2.352  11.583  15.932  0.3171  0.1404  0.0272
11233W        W27367   6.651  11.380   4.126 -0.0486  0.1280  0.0374
11234W        W27368   7.822   8.119   2.657  0.1626 -0.1969 -0.0912
11235W        W27369  15.176   4.394  14.559 -0.0672 -0.0623  0.1468
11236W        W27370  17.942   0.649  15.113 -0.0026 -0.4093 -0.0302
11237W        W27371   4.383   3.928  13.570  0.1255 -0.2945  0.1677
11238W        W27372   8.978  13.262   2.006  0.2480 -0.2209  0.2998
11239W        W27373  14.742  17.333   1.724  0.2334 -0.2559 -0.2443
11240W        W27374   1.010   3.512   1.974 -0.0187  0.1039  0.2446
11241W        W27375  10.763  17.382  12.829 -0.2088 -0.4026 -0.3000
11242W        W27376   0.505   5.042   5.247 -0.0162 -0.0004  0.0072
11243W        W27377   7.790   3.972   5.956  0.1972 -0.0450 -0.0732
11244W        W27378  16.142  13.494   1.683  0.0915 -0.0729 -0.0201
11245W        W27379  12.157   2.679  16.244 -0.1361 -0.0547  0.0802
11246W        W27380   3.411  11.356   3.695 -0.0132  0.2284  0.4353
11247W        W27381  11.535   1.789  12.882 -0.0558  0.2468  0.1608
11248W        W27382  15.023  12.096  16.200  0.2299  0.2634  0.1833
11249W        W27383   7.015  12.043  14.946  0.0795 -0.1201  0.1313
11250W        W27384   1.724   6.423   3.385  0.2296  0.1156 -0.1241
11251W        W27385  13.418   2.077   3.719 -0.1129  0.2124 -0.1902
11252W        W27386  13.221   0.022  12.979 -0.0741  0.0644 -0.2423
11253W        W27387   6.825   0.367  12.286  0.1062 -0.4126  0.1007
11254W        W27388  14.582  14.849   5.510  0.1697 -0.0452  0.2545
11255W        W27389  11.805   4.104   2.312 -0.1080  0.1325 -0.2210
11256W        W27390  17.322   6.868   2.158 -0.2206 -0.1035  0.4040
11257W        W27391  13.592   4.379  15.186 -0.0629  0.3919  0.0638
11258W        W27392  16.427   9.377   0.110 -0.0192 -0.0758 -0.1321
11259W        W27393   8.141   7.013  15.900  0.1013 -0.0532  0.2029
11260W        W27394   2.614  17.584  14.434 -0.2141  0.4512  0.1539
11261W        W27395  11.403   5.962   4.763  0.1433  0.1326 -0.2560
11262W        W27396   2.251   8.001  13.378 -0.4762 -0.1261  0.0219
11263W        W27397   4.854  16.311  13.849 -0.3107  0.3553  0.2393
11264W        W27398   0.054   3.365   1.598 -0.1725 -0.0665  0.0058
11265W        W27399  14.479  15.081   0.054  0.0620 -0.2527  0.2164
11266W        W27400   8.081   6.425   2.891 -0.0972  0.0372 -0.3162
11267W        W27401  11.175   4.196   1.528  0.0173  0.0532  0.0566
11268W        W27402  10.435   0.752  15.759 -0.0944 -0.1010  0.4695
11269W        W27403  12.663  13.956  14.306 -0.1421  0.1110  0.1361
11270W        W27404  17.543   6.647   3.181 -0.2457  0.2732 -0.0073
11271W        W27405  12.519  17.706  15.041  0.1107 -0.1238  0.0374
11272W        W27406   1.869   7.426   3.055  0.2259  0.2067 -0.1503
11273W        W27407   4.696   6.403  11.989 -0.1334  0.1467  0.0508
11274W        W27408   3.799   7.244   5.084  0.1516  0.1828  0.2373
11275W        W27409   0.977   2.999   2.616  0.1564 -0.3277  0.0673
11276W        W27410  11.559   4.783   2.737  0.0206 -0.0287 -0.0296
11277W        W27411   4.562  16.922  12.817  0.0786  0.1617 -0.2127
11278W        W27412   4.860   8.514  12.826 -0.0267 -0.1109  0.1249
11279W        W27413   0.070  12.290   6.123 -0.2926  0.0291 -0.0136
11280W        W27414   8.314   2.588  16.270  0.0903  0.0097  0.0450
11281W        W27415  12.041  17.388  15.813 -0.1046 -0.1154 -0.1262
11282W        W27416  16.665   9.486  13.422  0.1644 -0.3290 -0.0559
11283W        W27417  16.608   0.774   2.867 -0.0565  0.1282  0.2773
11284W        W27418  12.761   9.148   4.800 -0.3781  0.1248 -0.1264
11285W        W27419  13.381  12.529  12.429 -0.4409 -0.0102 -0.1748
11286W        W27420  10.197   7.252   1.777 -0.0751  0.1766 -0.0289
11287W        W27421   9.559  12.443  13.001 -0.3012 -0.0486  0.2043
11288W        W27422  16.733   5.639  13.267 -0.4682 -0.0716  0.0637
11289W        W27423   8.079   5.352   4.100 -0.0913 -0.0036  0.1726
11290W        W27424   5.214   4.024   1.267  0.1128  0.0175  0.0103
11291W        W27425   8.144  15.355  14.782  0.0071  0.3458 -0.0237
11292W        W27426   0.007   5.622  16.614  0.0278  0.2691 -0.2697
11293W        W27427  15.195   3.229  14.649 -0.2621  0.1938 -0.1675
11294W        W27428   3.955  10.924   4.652 -0.2983 -0.0782  0.4921
11295W        W27429   2.247  11.592  12.304 -0.0732 -0.1516 -0.1628
11296W        W27430  13.138   9.094   0.510  0.0086  0.0823 -0.0889
11297W        W27431   7.127   8.912   2.567  0.0009  0.1251 -0.1048
11298W        W27432   0.875  17.325   4.403 -0.0157  0.0334  0.1751
11299W        W27433   5.845  14.980  15.786 -0.0471  0.0932  0.2531
11300W        W27434   9.061  10.419  16.380  0.1137  0.2341 -0.0165
11301W        W27435   8.361   0.839  12.839 -0.4434  0.1713 -0.0691
11302W        W27436  17.947  17.595   3.802 -0.1446  0.0523  0.0480
11303W        W27437   7.311  10.352   3.479  0.3905  0.0404  0.0040
11304W        W27438   1.428  12.203   4.306  0.1708  0.1356 -0.1402
11305W        W27439  16.801   1.992  14.683  0.0765 -0.1230 -0.2230
11306W        W27440   2.609   9.266   1.488  0.0876 -0.1378 -0.2963
11307W        W27441  11.380  12.956   0.049 -0.1329  0.0309  0.1772
11308W        W27442   1.526   6.056   3.125 -0.0908  0.2686 -0.1140
11309W        W27443   7.406   8.866   4.481 -0.1153  0.0663 -0.2267
11310W        W27444   4.481   6.842   3.876 -0.1996 -0.0918 -0.0372
11311W        W27445   2.080   6.569  15.822  0.1593 -0.0835  0.0816
11312W        W27446   8.860   6.924   2.143  0.0401 -0.0979 -0.4058
11313W        W27447   5.079  10.284   3.102  0.3135 -0.3493  0.1523
11314W        W27448  16.004   2.392   0.837  0.0550 -0.1866 -0.2436
11315W        W27449   9.807  10.346  11.313 -0.3050 -0.1482  0.0610
11316W        W27450   5.382   1.143  16.523  0.1316 -0.0920  0.1606
11317W        W27451   9.168   7.201  14.810  0.2563 -0.2222 -0.0742
11318W        W27452   0.091   6.843  15.326  0.3373  0.0954  0.1095
11319W        W27453   0.411  15.242   2.230 -0.1017  0.2501 -0.0392
11320W        W27454  15.994   4.961   1.076 -0.1920  0.1072  0.2347
11321W        W27455  16.867  12.076   5.847  0.0355  0.0202  0.1105
11322W        W27456   6.997   8.035  13.841 -0.1743 -0.1569 -0.2195
11323W        W27457   7.735  13.028   0.257 -0.3106 -0.0867  0.1873
11324W        W27458  17.803  14.069   1.744  0.0301  0.4674  0.2327
11325W        W27459   5.121   6.886   5.658 -0.2012 -0.0770 -0.3345
11326W        W27460   7.638   8.900  15.504 -0.0730 -0.2817 -0.2129
11327W        W27461   2.068   6.263  14.673  0.1310 -0.1256 -0.1063
11328W        W27462  16.433   3.727  16.382  0.0385  0.0146 -0.3470
11329W        W27463   3.424   8.346   4.306 -0.1543 -0.3005  0.0363
11330W        W27464   0.415  10.042  15.343 -0.2277 -0.0227  0.1988
11331W        W27465  16.469  17.283  11.884 -0.1920  0.1410 -0.0723
11332W        W27466   8.716   2.580   2.988 -0.3508 -0.0052  0.0125
11333W        W27467   3.397   8.268   2.016  0.2813 -0.0485  0.0663
11334W        W27468  15.982   5.147  15.294  0.0158  0.0430  0.0512
11335W        W27469   3.315   1.332   1.594  0.1148  0.0615  0.0951
11336W        W27470   2.114   4.630  12.963  0.3605 -0.1608  0.1188
11337W        W27471   4.573  15.430   0.079  0.1263  0.1953 -0.0213
11338W        W27472   4.033  13.740  12.754  0.0874 -0.1795  0.0810
11339W        W27473  10.977  11.483  15.476 -0.3008 -0.2283 -0.0661
11340W        W27474  13.784   3.875  12.575 -0.0300 -0.0722 -0.3851
11341W        W27475   5.449  15.665  12.681  0.2807 -0.3740  0.0991
11342W        W27476  16.275  10.272  12.267 -0.0245  0.0006  0.0652
11343W        W27477   6.977   9.385   3.162 -0.0783 -0.1415 -0.0350
11344W        W27478  11.551   6.994  13.557 -0.0517 -0.1741 -0.1164
11345W        W27479  14.111   6.682   0.751  0.1297 -0.1344  0.3254
11346W        W27480  17.122  10.792  15.169  0.1721  0.0269 -0.3284
11347W        W27481   6.786   1.192   0.868  0.1491 -0.1194 -0.3045
11348W        W27482   4.086  14.087   4.940  0.0829 -0.0820  0.2076
11349W        W27483   5.490  10.937  11.669 -0.1392 -0.0461  0.1564
11350W        W27484   2.146   4.812  16.414 -0.0351 -0.0324 -0.2451
11351W        W27485   8.806   4.508  14.977  0.2823 -0.1563 -0.2854
11352W        W27486   0.963   3.978  12.883 -0.1111 -0.0653 -0.0775
11353W        W27487  12.028  17.888   4.714  0.0284  0.2395  0.0978
11354W        W27488   1.289  15.709  16.677  0.0271 -0.0442 -0.1486
11355W        W27489   0.880   5.512   4.594  0.1060  0.1970 -0.1221
11356W        W27490   5.696   9.157  16.333  0.1977 -0.2185 -0.2310
11357W        W27491   3.582  16.480   3.690 -0.1621 -0.1252 -0.0784
11358W        W27492  16.917   1.425   2.269  0.1277  0.0422  0.0656
11359W        W27493  10.450   4.541   3.753 -0.0088 -0.2366 -0.3305
11360W        W27494   6.488  11.181  14.986  0.1786  0.1455 -0.3330
11361W        W27495   8.134   7.371  12.539  0.3057 -0.1772  0.1119
11362W        W27496  10.172   8.326  12.041  0.0311  0.1399  0.0444
11363W        W27497   8.821   8.115   0.703 -0.1524 -0.4800 -0.0445
11364W        W27498   4.231   5.740   6.310  0.0890  0.2378  0.1576
11365W        W27499  17.881   9.138  13.877 -0.1749 -0.1211  0.3116
11366W        W27500  10.029  17.170  11.619 -0.0171  0.0026 -0.0409
11367W        W27501   8.184  17.323   3.798 -0.2901  0.0760 -0.1062
11368W        W27502   2.643   8.832   1.660  0.2355 -0.1052 -0.2368
11369W        W27503   1.074   6.376   1.380 -0.0618 -0.1553 -0.1338
11370W        W27504   0.642   8.619   5.208  0.0800 -0.2273 -0.1141
11371W        W27505   1.872  14.626  12.452 -0.0178 -0.0745  0.1075
11372W        W27506   5.018   8.804   3.059  0.3183 -0.1906  0.4552
11373W        W27507  10.897   0.754   0.588 -0.0823  0.1536  0.1719
11374W        W27508  12.896   8.065   1.321  0.3687  0.1150 -0.1545
11375W        W27509   4.284  13.834  13.354 -0.0365  0.1951 -0.2748
11376W        W27510   0.444   7.114  15.644 -0.0219  0.0561 -0.3639
11377W        W27511   9.209  15.219   0.456  0.0486  0.2292 -0.3339
11378W        W27512  12.248  16.517   5.254 -0.1604 -0.3090  0.1409
11379W        W27513   2.690   2.551  16.318 -0.2298  0.1027  0.1404
11380W        W27514  14.753  12.673   2.247  0.3008  0.3086  0.1768
11381W        W27515   9.246   0.910   1.162 -0.2475  0.1368  0.0229
11382W        W27516   3.001   4.769  12.314 -0.3268 -0.1354  0.2420
11383W        W27517  11.815   5.332  15.317  0.2747  0.0654 -0.2539
11384W        W27518   8.646   3.743   0.168  0.1427  0.3370 -0.1293
11385W        W27519  17.203   8.149   1.435  0.2160  0.1359 -0.0693
11386W        W27520  14.551   0.250  14.385  0.1646 -0.1748 -0.2267
11387W        W27521   7.871   1.951   2.114  0.0318  0.1965  0.0585
11388W        W27522   1.925   6.263   1.836  0.4110 -0.2813 -0.0660
11389W        W27523  11.923   0.738   5.296 -0.0587  0.1566  0.1757
11390W        W27524   2.400  11.523  15.197  0.3011  0.0235  0.4542
11391W        W27525  11.544   3.490  11.903 -0.0717 -0.2734 -0.1341
11392W        W27526  14.204   4.343  13.202  0.1936  0.0976 -0.1339
11393W        W27527   0.736  16.719  14.810  0.2288  0.0939 -0.0576
11394W        W27528   4.086   2.444  12.495 -0.0815  0.1251  0.2496
11395W        W27529   7.327  16.476   4.729  0.1920  0.0468 -0.1902
11396W        W27530   9.233   4.342   5.472 -0.1036  0.0147 -0.0621
11397W        W27531  12.375  14.983   5.229  0.3356  0.0162  0.0941
11398W        W27532   1.213   4.749   2.563  0.3686 -0.0048  0.0076
11399W        W27533  12.527   1.921  14.444 -0.4123 -0.0129  0.1583
11400W        W27534   9.273   0.656   1.616  0.0555  0.2851  0.2128
11401W        W27535   7.138   8.259  11.572 -0.1553 -0.2958 -0.1510
11402W        W27536  11.742  14.126   5.294  0.1992  0.1122  0.1813
11403W        W27537   1.794   9.047   6.281  0.0804  0.2167  0.0773
11404W        W27538   7.658  13.929  14.519  0.2078  0.1315 -0.1020
11405W        W27539  14.545  10.173  14.993 -0.1215 -0.0391  0.1083
11406W        W27540  17.547  10.412  12.956 -0.3150  0.0379 -0.0784
11407W        W27541   6.896   5.571   5.613 -0.2013  0.1244  0.4088
11408W        W27542  13.839   9.031   4.816 -0.2015  0.2418  0.2595
11409W        W27543   1.527  17.745  14.809 -0.1138 -0.3595  0.2461
11410W        W27544  11.659   3.067   4.732  0.2594  0.0791  0.0838
11411W        W27545   1.117   1.453   1.785  0.0157  0.2927 -0.2044
11412W        W27546   5.535  11.329  14.335 -0.0805  0.2281 -0.0560
11413W        W27547   9.970   2.040  11.459  0.0923 -0.0944 -0.1357
11414W        W27548   2.443   2.753   3.740 -0.3474 -0.2010  0.3470
11415W        W27549   8.621   4.913   2.019 -0.1292  0.1922 -0.0710
11416W        W27550   7.854   2.894  14.646  0.1094  0.2989 -0.1213
11417W        W27551   2.462  16.417   2.457  0.1397  0.0211  0.1015
11418W        W27552  14.087   1.156   1.197  0.1860 -0.0222 -0.0081
11419W        W27553   0.380  12.034   1.117 -0.1438 -0.0910  0.1316
11420W        W27554  17.024  14.039  13.013 -0.1475  0.1249  0.3885
11421W        W27555  16.163   6.056  12.297  0.0557  0.2803  0.1384
11422W        W27556   7.354   6.505  15.724  0.2079 -0.0802  0.2250
11423W        W27557   0.017   6.704  12.818  0.1054 -0.0807 -0.2342
11424W        W27558  11.854   7.374  10.854 -0.2445  0.0899  0.3360
11425W        W27559   6.953  17.249  14.462  0.4476  0.0225 -0.0744
11426W        W27560  16.598  17.968  10.879  0.1808 -0.2768 -0.1004
11427W        W27561   2.116   9.592  14.344 -0.3362  0.2066  0.1152
11428W        W27562   5.977  14.260  15.636  0.1749 -0.0648  0.3158
11429W        W27563   0.304  10.760   5.719 -0.2363 -0.1387  0.0129
11430W        W27564   9.089   6.569  12.395  0.2580 -0.0831  0.1236
11431W        W27565  14.490   7.263   2.514 -0.0521 -0.2083 -0.4024
11432W        W27566  17.526  10.209   2.807 -0.3182  0.3670 -0.0872
11433W        W27567   0.157   6.260  12.599  0.1838 -0.0207  0.1705
11434W        W27568  12.492  14.686  12.183  0.0425  0.2157  0.0152
11435W        W27569   4.485  13.579   2.482 -0.1575 -0.0328  0.3551
11436W        W27570   0.883   6.113   0.394  0.1067 -0.1176 -0.1362
11437W        W27571  10.419   1.922  13.068  0.1561 -0.3103  0.1133
11438W        W27572  17.048   3.157  16.260 -0.1167  0.0839 -0.2192
11439W        W27573  15.641   6.547   2.838 -0.1062 -0.2593  0.2873
11440W        W27574  16.321   2.660   6.029  0.3087  0.0071 -0.3647
11441W        W27575   2.285  14.554   4.661  0.1087 -0.2825 -0.1850
11442W        W27576   8.432   8.296   4.403  0.1048  0.0074  0.3018
11443W        W27577  13.665   1.752  12.024 -0.0517 -0.0630 -0.2494
11444W        W27578  15.707   2.043  13.103 -0.2028  0.3541  0.1423
11445W        W27579  13.664  12.776  13.252 -0.0212  0.0251  0.1643
11446W        W27580   1.536  13.163  15.711 -0.1021  0.0387 -0.1075
11447W        W27581  17.772   4.643  13.197 -0.2698 -0.0134  0.0746
11448W        W27582  13.457   2.383   3.313 -0.1189  0.1630 -0.2434
11449W        W27583  15.248  15.309   2.523  0.2230  0.2136 -0.1824
11450W        W27584  15.471  11.229  16.706 -0.0728 -0.1431  0.0898
11451W        W27585  11.834  16.345  15.684 -0.1610 -0.2938 -0.0339
11452W        W27586  12.640  16.010   2.133 -0.0534 -0.0743  0.1317
11453W        W27587   6.154   6.387  12.163  0.2933  0.2148 -0.0376
11454W        W27588   1.493   7.023   0.660  0.0267 -0.0940  0.1053
11455W        W27589   0.381   0.429  15.927 -0.2108  0.0044  0.0809
11456W        W27590   3.881  11.380   5.022  0.0729  0.0095  0.0467
11457W        W27591  14.240  11.818   1.170 -0.0496 -0.0889  0.0825
11458W        W27592  12.528   7.019  11.339 -0.0955  0.0632 -0.0264
11459W        W27593   6.204  10.803  13.752 -0.2476 -0.1617 -0.1267
11460W        W27594  16.885  17.685  15.557 -0.2547  0.0580 -0.0069
11461W        W27595   7.563  10.492   1.396  0.0275  0.1868  0.2286
11462W        W27596   6.110   1.404  16.093 -0.0018  0.1634 -0.1983
11463W        W27597   0.642  13.402   5.897  0.1150  0.0191 -0.1555
11464W        W27598   4.203  10.970   5.218  0.0530  0.3864 -0.4058
11465W        W27599   5.753   1.597   3.462 -0.2445 -0.0523  0.0402
11466W        W27600   3.003   7.233   0.514  0.0721  0.1194  0.2002
11467W        W27601  16.748  15.603   1.250  0.3185  0.0105 -0.1635
11468W        W27602   4.170   5.424  11.474  0.1266  0.1294 -0.0309
11469W        W27603  10.298  16.911   3.511 -0.0131  0.3928 -0.0685
11470W        W27604  15.991   7.305   5.932 -0.0546 -0.1111 -0.2710
11471W        W27605  13.127   6.493   4.626 -0.1456 -0.0635 -0.0402
11472W        W27606   9.108  12.833  10.930  0.0155 -0.0053  0.1321
11473W        W27607  15.304   0.807  11.345  0.0636 -0.0887  0.2175
11474W        W27608   7.701   9.980  14.631  0.0994  0.3803 -0.0303
11475W        W27609  17.257  10.161  16.003  0.0483 -0.0746  0.0566
11476W        W27610   8.950  16.154  16.702  0.2090 -0.2066  0.5257
11477W        W27611  16.614  12.366   4.519  0.2704  0.2315 -0.2805
11478W        W27612   6.510  12.950  14.370  0.2501  0.1470 -0.1489
11479W        W27613   4.971  12.610  13.684 -0.1049 -0.1894 -0.0346
11480W        W27614  10.520   3.979   1.792  0.0701 -0.1682 -0.0157
11481W        W27615  16.820   5.673   1.823 -0.4138 -0.0046 -0.3516
11482W        W27616  11.891   9.657  12.101  0.1635 -0.0915  0.1317
11483W        W27617   4.660  13.238  15.167 -0.0199 -0.1276  0.2192
11484W        W27618  10.364   3.473   0.542 -0.1196  0.0215  0.0476
11485W        W27619  10.850   0.996   2.541  0.0239 -0.0190 -0.2007
11486W        W27620   3.902   8.181   2.021 -0.0699  0.2282 -0.0297
11487W        W27621  14.423  17.066  15.753 -0.0630 -0.1451  0.2095
11488W        W27622  15.781  14.899  14.571 -0.1924 -0.3920  0.0961
11489W        W27623   4.151  17.862  16.422  0.0777 -0.0655  0.1035
11490W        W27624   7.315   5.227   2.603  0.0705 -0.2404  0.1384
11491W        W27625   8.989   2.479  13.879 -0.2503  0.3711 -0.1152
11492W        W27626  12.955   8.602  11.116 -0.1168 -0.1923  0.2246
11493W        W27627  11.849   2.381   5.659  0.0756 -0.2977 -0.1709
11494W        W27628  15.368   4.226   2.203  0.4135  0.1980 -0.0065
11495W        W27629   2.047  17.766  10.512  0.0695  0.0476  0.1123
11496W        W27630   6.447   4.610   1.180 -0.3042 -0.1010 -0.1519
11497W        W27631   1.365  10.090  12.430  0.0884  0.0279 -0.0428
11498W        W27632   5.840   9.598  14.975 -0.1016  0.3103  0.2219
11499W        W27633   3.396   4.833   2.422 -0.4420 -0.0895 -0.2296
11500W        W27634   0.340  12.496   0.197 -0.1839  0.2823 -0.1132
11501W        W27635  10.421   7.632  15.968  0.0121 -0.1820 -0.1887
11502W        W27636  13.356   1.384  12.181 -0.2163  0.2535 -0.0091
11503W        W27637  16.047  13.197  14.922 -0.0322  0.0993 -0.2106
11504W        W27638  15.231   6.649  15.554 -0.0768 -0.0787  0.1915
11505W        W27639   5.395  10.160   4.724 -0.1906  0.2247  0.0989
11506W        W27640   8.908  17.683  12.640  0.1272 -0.0518 -0.1900
11507W        W27641  17.962   5.688   3.239 -0.0054 -0.2700  0.4060
11508W        W27642   3.566  14.163  12.887  0.0155 -0.0291  0.3151
11509W        W27643  11.115   6.618   4.305 -0.3192  0.0848  0.2615
11510W        W27644   0.696   7.705  11.991  0.0634 -0.2039  0.3235
11511W        W27645  13.537   0.905  13.885  0.1547 -0.0115  0.0082
11512W        W27646   8.986   6.476  12.950 -0.3220 -0.1672 -0.5251
11513W        W27647  16.664   8.531  15.183 -0.3427 -0.3606 -0.1420
11514W        W27648   8.380  12.048   5.403  0.1269  0.0939  0.3255
11515W        W27649   8.313  16.504  13.607 -0.2379  0.2591 -0.2507
11516W        W27650   3.738  17.287   2.574  0.0035  0.5179  0.2607
11517W        W27651  10.758   1.322   4.794  0.1321  0.1564 -0.0417
11518W        W27652  12.522   0.958   4.088  0.0549  0.1443 -0.0000
11519W        W27653   7.329   1.571  15.277  0.0610  0.3726 -0.1525
11520W        W27654   1.964  13.683   1.531  0.1532 -0.0046 -0.2416
11521W        W27655  15.309   9.866   0.761  0.1334 -0.0284 -0.1748
11522W        W27656   1.275  11.905  16.152  0.0796 -0.0221 -0.1460
11523W        W27657  15.699   8.798  14.797  0.1346  0.1301  0.4364
11524W        W27658   2.431   4.875   5.255  0.3030  0.0045 -0.2043
11525W        W27659   4.458  11.018  12.042  0.1911  0.4009 -0.0399
11526W        W27660  12.282   7.922  12.401 -0.0644  0.0958  0.0428
11527W        W27661  12.554   4.391   5.120 -0.2316 -0.0795  0.1050
11528W        W27662   1.053   8.648  15.614 -0.2883 -0.0247 -0.0334
11529W        W27663  13.237   1.682  15.559 -0.1293  0.0125  0.0541
11530W        W27664   1.579  11.415  15.352  0.0984  0.1436 -0.1471
11531W        W27665   9.969  17.872   1.916 -0.1983 -0.0566  0.1783
11532W        W27666  14.781   8.035   1.619 -0.4317  0.3211  0.1896
11533W        W27667  16.847  11.407   0.355 -0.1480  0.1702 -0.1886
11534W        W27668   9.739  11.078  14.333 -0.0213 -0.2096 -0.2211
11535W        W27669  13.672  13.547  14.959 -0.0078 -0.0270 -0.2995
11536W        W27670  10.448   2.068   1.596 -0.2475  0.0266  0.0347
11537W        W27671  14.448  13.493  14.299  0.0284  0.1355  0.2272
11538W        W27672   4.681   1.795  16.670 -0.2592  0.1630 -0.1654
11539W        W27673   7.860   5.746   3.817 -0.2079  0.3725  0.0177
11540W        W27674   2.908  16.051  16.437  0.0341  0.1552  0.0423
11541W        W27675   2.518   2.770   1.677 -0.1448  0.0705 -0.1802
11542W        W27676  14.057   2.989  16.317  0.0807  0.0890 -0.1438
11543W        W27677  15.949  12.241  10.915  0.2807 -0.1304 -0.1697
11544W        W27678   1.422  10.428  15.520 -0.1032  0.0540 -0.0058
11545W        W27679   5.659  11.016   3.106  0.0620 -0.2950 -0.0180
11546W        W27680   1.352  16.950  15.630 -0.1842 -0.0437 -0.3858
11547W        W27681   9.685   2.748   5.859 -0.0604  0.0766  0.0201
11548W        W27682  10.082  17.778   0.283  0.1451 -0.1674 -0.3056
11549W        W27683   5.009   4.337  12.596 -0.0887  0.2347  0.1702
11550W        W27684   5.609  17.105   4.025  0.0009  0.2793  0.2130
11551W        W27685  14.180  14.587   0.073  0.0188 -0.0066  0.0358
11552W        W27686   2.097   5.042   1.350  0.1737 -0.1571  0.2061
11553W        W27687   8.373   3.694  13.763  0.1740  0.0567 -0.1152
11554W        W27688   6.903  14.274  14.546 -0.0014  0.1735  0.2351
11555W        W27689   9.952  10.322  14.839  0.2292  0.3233  0.0250
11556W        W27690  14.989   3.811  13.394  0.2914 -0.1202 -0.0278
11557W        W27691  16.742  11.461   1.657  0.2139 -0.1847  0.2165
11558W        W27692   5.787  15.033  13.530 -0.0678 -0.2120  0.1016
11559W        W27693  17.879  15.870  12.174 -0.1760 -0.0684  0.0918
11560W        W27694   6.397   9.253   5.847 -0.0493  0.2130 -0.2568
11561W        W27695   6.823   1.356  13.523 -0.0808  0.0115  0.1053
11562W        W27696  15.580   7.853  14.493 -0.0766  0.0733  0.1615
11563W        W27697  14.639   5.161   5.469  0.3426  0.4033  0.0450
11564W        W27698   6.996  14.541   5.590 -0.0071  0.1530 -0.1653
11565W        W27699   8.783  12.199  16.656  0.3137 -0.1083 -0.0216
11566W        W27700   6.449   1.564  16.530 -0.1560  0.0924 -0.1889
11567W        W27701  11.261  16.908  16.363 -0.2162  0.1584 -0.0305
11568W        W27702   3.589  11.917   0.163 -0.2033 -0.2366  0.0855
11569W        W27703   0.978  17.644   2.520 -0.1144  0.1215 -0.5688
11570W        W27704   5.330   9.388  10.901  0.0787  0.0216 -0.0852
11571W        W27705  10.482   2.990   0.553  0.1275  0.4262  0.0995
11572W        W27706   3.734  12.412   4.763 -0.0959 -0.2223 -0.2853
11573W        W27707   7.153   9.888  13.439 -0.0768 -0.2883  0.1682
11574W        W27708   7.832   2.569   1.346 -0.0356  0.2262  0.0131
11575W        W27709   0.015   5.916   4.014  0.0632  0.3131  0.2128
11576W        W27710  11.129  12.310   3.772 -0.1818  0.1321 -0.2780
11577W        W27711  13.855   6.745  15.503  0.2418  0.2053 -0.0354
11578W        W27712  16.408   0.566   3.260 -0.2828  0.1595  0.0929
11579W        W27713   9.181  15.931   0.455 -0.0547 -0.0794 -0.2655
11580W        W27714  11.457   9.360  12.116 -0.0916  0.0181  0.3342
11581W        W27715  10.682   9.540  16.170  0.0679 -0.1561  0.1209
11582W        W27716  17.811   7.105  12.249  0.1556  0.1662  0.2069
11583W        W27717  13.883  12.613  12.811  0.2007  0.1336  0.3417
11584W        W27718  13.051   1.048  15.985  0.2724 -0.0673 -0.1665
11585W        W27719   4.921  13.315  16.034 -0.1229 -0.0780  0.1320
11586W        W27720   6.774  15.804  11.790  0.0967 -0.0470 -0.0473
11587W        W27721   3.813   5.448   1.976  0.1862  0.0257 -0.3321
11588W        W27722  15.361   1.542   1.660  0.0345  0.0567  0.0260
11589W        W27723   1.683   9.049   1.736  0.0473 -0.0671  0.2272
11590W        W27724  15.858   9.914  13.738 -0.0760  0.0910  0.1391
11591W        W27725   4.478  16.342  11.998 -0.0739 -0.1559  0.1875
11592W        W27726   4.344   1.362   0.898 -0.0325 -0.0291  0.0239
11593W        W27727   1.522  14.931   2.650 -0.1699 -0.1575  0.3099
11594W        W27728  10.392   1.008  12.557 -0.1547 -0.0280  0.2230
11595W        W27729   9.243   1.532  12.139 -0.0069  0.1641 -0.1970
11596W        W27730  10.302  10.460  15.233 -0.1047  0.1583 -0.1243
11597W        W27731   9.577   6.941   0.662  0.0960  0.0592 -0.1258
11598W        W27732   4.733  15.259  12.591 -0.0568  0.2715 -0.1317
11599W        W27733   3.500  13.018  12.518 -0.3377  0.0554  0.0583
11600W        W27734  17.563   6.627  13.067 -0.0377  0.1216  0.1651
11601W        W27735   6.177   6.534  16.328 -0.3393  0.0529 -0.1342
11602W        W27736  13.685   2.112   4.126  0.0552  0.1450  0.2626
11603W        W27737  13.089  11.803   3.507  0.1635 -0.0654 -0.0991
11604W        W27738  16.715  17.119  13.697 -0.1928 -0.1351  0.1872
11605W        W27739   4.640   8.173   0.667 -0.0360  0.0152  0.0923
11606W        W27740  12.362   7.274  16.050  0.1208 -0.1178  0.0360
11607W        W27741  17.535  16.409   3.960  0.1326 -0.0238 -0.0464
11608W        W27742  14.432   3.791  15.178 -0.0273  0.3642  0.1088
11609W        W27743   0.302  10.531   2.375  0.2104  0.0391  0.2727
11610W        W27744  14.503   7.527  16.388  0.4475  0.0127 -0.3180
11611W        W27745   5.237   9.181  16.616 -0.1694  0.3124 -0.1979
11612W        W27746   4.678   7.116   0.702 -0.0588 -0.1924 -0.0406
11613W        W27747  13.677  11.787   0.612  0.1422  0.2353  0.4358
11614W        W27748   1.180   4.356  15.015  0.0489  0.2447  0.0468
11615W        W27749   4.952   9.803  15.932  0.2512 -0.0091  0.2409
11616W        W27750  10.966  15.330  12.903 -0.0962 -0.2820  0.0638
11617W        W27751   8.046   4.758   4.895  0.3338  0.1687  0.0097
11618W        W27752  14.711  14.300  13.357 -0.3313 -0.0547 -0.1031
11619W        W27753  10.083  15.729   1.341 -0.0995  0.0449 -0.2354
11620W        W27754   2.092  10.584  12.302 -0.0878 -0.1890 -0.0488
11621W        W27755  15.031  16.588   0.317  0.1228 -0.1489  0.0133
11622W        W27756  17.421  11.314   4.596 -0.0248  0.0716  0.0830
11623W        W27757  12.100  17.055  14.313 -0.2510 -0.1976  0.0064
11624W        W27758   1.843   4.758  15.682 -0.0509  0.1685  0.0003
11625W        W27759  10.690  17.102   3.708 -0.1583 -0.1330  0.2728
11626W        W27760   2.479   4.438   4.428 -0.1589 -0.0861  0.1763
11627W        W27761   2.721   3.858   5.136  0.3109  0.0359 -0.1198
11628W        W27762   3.484  14.926   0.579 -0.2179 -0.1437 -0.1342
11629W        W27763   4.317  13.343   1.975 -0.1668  0.1735 -0.1769
11630W        W27764  15.486  10.824  15.601  0.3689 -0.0543  0.0762
11631W        W27765   1.435   9.985   1.695 -0.0559  0.0310  0.0010
11632W        W27766   9.461   1.951  11.266  0.0113 -0.3425  0.0429
11633W        W27767   1.196  12.465  13.315  0.0534 -0.4063  0.1596
11634W        W27768   6.120  17.739   4.349 -0.0800  0.1192 -0.2382
11635W        W27769   2.552  10.637   0.246  0.3483  0.0879 -0.2764
11636W        W27770   1.614  12.907  14.419 -0.1730  0.0080 -0.1800
11637W        W27771  15.594   6.933  13.378 -0.0134  0.0161 -0.1793
11638W        W27772   3.119  17.744  16.291  0.0379  0.1945  0.1159
11639W        W27773  15.600   2.450  11.619  0.2893  0.2618 -0.2449
11640W        W27774   2.522   4.617  13.405 -0.1284 -0.0926 -0.1343
11641W        W27775   4.632   1.625  13.752  0.0939  0.3232  0.3449
11642W        W27776  11.115   2.315  14.963 -0.1508 -0.1382  0.0886
11643W        W27777   8.626   3.531   4.893 -0.0455 -0.2425  0.2243
11644W        W27778  15.754   1.168  12.713 -0.1933 -0.2410  0.0527
11645W        W27779  14.018   3.651   3.699  0.1736 -0.0692 -0.3366
11646W        W27780   2.502   1.699  13.827  0.0683 -0.1002  0.1181
11647W        W27781  17.176  11.657   5.512  0.0498  0.3956 -0.2103
11648W        W27782   7.833  17.617   4.084 -0.3513 -0.0414 -0.3336
11649W        W27783  14.215  16.718  13.282 -0.1937 -0.1423  0.1177
11650W        W27784   9.060  10.877  16.031 -0.2308 -0.3151 -0.1144
11651W        W27785   7.958   4.540  14.685  0.1233  0.1289  0.1856
11652W        W27786   3.094   7.814  12.876 -0.1116  0.0838  0.1311
11653W        W27787   7.698  13.322   3.696  0.2783  0.3047  0.1276
11654W        W27788  17.114  16.656   3.646 -0.1266  0.4813 -0.0699
11655W        W27789   4.405   1.273  12.233  0.0805 -0.1954 -0.0542
11656W        W27790  14.254   1.088  15.045 -0.0862  0.0353 -0.0238
11657W        W27791  11.185   9.239  16.193 -0.1584 -0.0347  0.0383
11658W        W27792  16.621   0.280  15.157 -0.0738  0.3394 -0.2049
11659W        W27793   5.324   9.936   1.101 -0.2645 -0.0611 -0.1796
11660W        W27794  13.270  14.779  14.818  0.0940  0.2500 -0.0017
11661W        W27795   6.555  11.685   0.020 -0.0204 -0.0784  0.3401
11662W        W27796  11.059  15.749   2.979  0.1784  0.1462 -0.1680
11663W        W27797  17.496   8.580   6.430 -0.3916 -0.1204  0.3257
11664W        W27798   3.074   9.095   1.916  0.1794  0.1020  0.0058
11665W        W27799   9.104  15.163  15.263 -0.0445  0.1325  0.1528
11666W        W27800   0.331   7.265   5.273  0.1669  0.0731  0.2158
11667W        W27801  17.652   3.404   1.952 -0.3999 -0.1227  0.3423
11668W        W27802   4.315   7.030  15.348  0.2341 -0.4213  0.0870
11669W        W27803  14.062   0.900  16.114 -0.1265 -0.1626  0.2284
11670W        W27804  12.367   2.330   4.624 -0.1024  0.0583  0.2948
11671W        W27805   6.205   7.890  14.350  0.0655 -0.1592  0.1227
11672W        W27806   6.030   7.352   4.856 -0.1914 -0.0307  0.0299
11673W        W27807   8.475  13.336  11.237 -0.3408  0.2230  0.0109
11674W        W27808   7.241   4.649   2.797 -0.0517  0.0631  0.0855
11675W        W27809  15.744   8.700   3.190 -0.0191 -0.1513  0.1823
11676W        W27810   7.351  13.354   6.276  0.1639 -0.0230  0.0102
11677W        W27811   0.541   2.219   2.033 -0.4719  0.0093  0.2236
11678W        W27812   2.614  10.143   2.562  0.0061 -0.1898  0.2920
11679W        W27813  14.581  10.670  11.994  0.1230 -0.1900 -0.1915
11680W        W27814  12.777  15.084   1.969 -0.0575  0.0921  0.0884
11681W        W27815   8.556   2.385   4.186 -0.2223 -0.0949 -0.1285
11682W        W27816   4.723   3.552   3.464 -0.4663 -0.0551 -0.2149
11683W        W27817   3.089  11.303  14.006 -0.2793  0.0029 -0.1782
11684W        W27818   3.384   3.400  11.136  0.2279 -0.1196 -0.1628
11685W        W27819   6.504  13.059   1.771 -0.3242 -0.1362 -0.3656
11686W        W27820   2.357  17.529  12.765 -0.2604 -0.2147 -0.0728
11687W        W27821   4.558   8.874  13.920  0.1068  0.2460  0.0524
11688W        W27822  11.456   0.847  14.802 -0.1792  0.2317 -0.1134
11689W        W27823  13.667  10.829   6.226 -0.0679 -0.0130 -0.1325
11690W        W27824   0.993   8.113   1.868 -0.1530  0.0365  0.3850
11691W        W27825  14.867   1.586  12.979 -0.1032  0.3128  0.4023
11692W        W27826   4.546   6.919  11.674  0.0901  0.0292 -0.0214
11693W        W27827  10.708   6.837  15.540  0.4952  0.2469 -0.1321
11694W        W27828   5.602   5.573  16.146  0.2682  0.2166 -0.1316
11695W        W27829   2.107   9.292   0.448  0.3081 -0.1528 -0.2213
11696W        W27830   9.927   6.908   4.949 -0.0471 -0.0069 -0.0759
11697W        W27831  16.382  10.072   3.233 -0.1131  0.2725  0.1360
11698W        W27832  12.503   8.071   3.770  0.0037  0.1027  0.0279
11699W        W27833   5.563   8.664   3.938 -0.2362 -0.1459 -0.0965
11700W        W27834  15.510   9.082  11.693  0.3748 -0.0335 -0.1769
11701W        W27835   4.960   6.167   1.874  0.0683 -0.2074 -0.2881
11702W        W27836   5.933   8.587   3.170 -0.0655  0.0192 -0.0797
11703W        W27837   6.089  17.000  13.576 -0.0317  0.1700  0.0626
11704W        W27838  14.183  15.692  13.129  0.1043 -0.2790 -0.2707
11705W        W27839  14.615  16.807   4.717 -0.1370 -0.1437 -0.1439
11706W        W27840  16.253  10.175  12.760  0.3259  0.0999 -0.0647
11707W        W27841   4.913   7.782   0.691  0.0948 -0.1906  0.1962
11708W        W27842  13.093  14.068   3.979  0.1130 -0.2442 -0.0266
11709W        W27843  17.748  13.698   2.965 -0.1374  0.0897 -0.0363
11710W        W27844   2.103  17.722  11.513 -0.0860 -0.0846 -0.0200
11711W        W27845   9.893  11.286   1.145  0.1505  0.3749 -0.2225
11712W        W27846   7.410   7.933  13.344 -0.0225 -0.0693  0.1651
11713W        W27847  14.581   4.284  15.116  0.0064 -0.2131  0.1543
11714W        W27848   3.544   5.660  16.625  0.0308 -0.1174  0.2421
11715W        W27849   6.585   9.638   4.537 -0.1620  0.0588 -0.3860
11716W        W27850  16.113  11.197  13.402 -0.1712  0.1116  0.2791
11717W        W27851  12.123   7.628  14.842 -0.0292 -0.1782  0.0450
11718W        W27852   5.162   5.225   2.218 -0.0282  0.1658 -0.1602
11719W        W27853   3.453   9.944   0.994  0.0501  0.0379  0.1813
11720W        W27854  11.791  11.697   3.029  0.0763  0.0937  0.0287
11721W        W27855  16.927   0.958   0.025  0.0069  0.0456  0.0417
11722W        W27856   8.819  10.182  11.501 -0.2301  0.2137 -0.2891
11723W        W27857   4.483  16.138  12.509 -0.1612  0.3572  0.0307
11724W        W27858   4.531  17.035  15.139  0.1774  0.0009 -0.1647
11725W        W27859  16.594   5.222   4.841  0.0902  0.1918 -0.0124
11726W        W27860   5.528   1.289   0.803 -0.0728 -0.1081 -0.0504
11727W        W27861   9.666  15.370  12.984 -0.3616  0.0750 -0.1170
11728W        W27862  16.982  17.552   2.658 -0.0639 -0.0057 -0.3601
11729W        W27863  12.368  14.762  13.111 -0.1795  0.0045  0.1335
11730W        W27864   6.825  17.953   1.273 -0.0643 -0.3306  0.0415
11731W        W27865  13.724   9.373  13.131  0.0794  0.0965 -0.0818
11732W        W27866   2.362   5.309   3.492  0.1394  0.2668  0.2371
11733W        W27867   3.585  16.340  12.028  0.0444  0.1432 -0.1584
11734W        W27868   4.947   6.615  13.907  0.1339 -0.0430 -0.2209
11735W        W27869   9.961   7.904   1.754 -0.1887 -0.0389 -0.0332
11736W        W27870  17.685   8.932  11.838 -0.0194  0.0814 -0.0010
11737W        W27871  16.061   5.192   1.954 -0.3163 -0.1908  0.0958
11738W        W27872   8.540   7.513  14.629  0.0712  0.1924  0.1319
11739W        W27873  11.031   8.990   1.563 -0.1316 -0.1807  0.1475
11740W        W27874  12.887   6.955   1.848 -0.0003 -0.0618 -0.2020
11741W        W27875  11.160  17.857  16.039  0.2018  0.5926 -0.0522
11742W        W27876  10.296  10.023  12.530 -0.1945  0.0505 -0.4124
11743W        W27877  11.984   5.366   1.577 -0.0704 -0.1042 -0.2398
11744W        W27878  14.733   7.937   5.406 -0.1744 -0.1367  0.1118
11745W        W27879  14.753   8.563   3.754  0.2439 -0.1577 -0.1641
11746W        W27880   6.573   9.457   4.093  0.1074  0.1947 -0.0230
11747W        W27881  14.027  12.393  13.539  0.0649  0.0466 -0.2136
11748W        W27882   2.981  13.261  12.650 -0.2313 -0.1481  0.0540
11749W        W27883   3.913  14.548   5.726 -0.3238 -0.0092 -0.3855
11750W        W27884   9.256  17.735  11.685  0.1663  0.3179 -0.0809
11751W        W27885  13.452   6.693   2.450  0.3068 -0.3108 -0.2443
11752W        W27886  15.313   0.341   0.230  0.1009  0.0383 -0.0320
11753W        W27887  13.722  15.484   2.955  0.2934  0.1866 -0.3362
11754W        W27888   2.891   4.747   1.161 -0.0974  0.1265  0.0861
11755W        W27889   4.362  15.969   3.276 -0.1555 -0.0924  0.2152
11756W        W27890  16.684   4.405   2.251 -0.1437  0.2594  0.1920
11757W        W27891   9.511   0.731  15.168  0.0697 -0.4748 -0.0895
11758W        W27892   7.853   9.792   4.303  0.0723  0.0632 -0.1827
11759W        W27893  13.574   7.240   5.416 -0.2191 -0.1170  0.1989
11760W        W27894   6.958  14.384   4.121  0.3248 -0.1132 -0.2745
11761W        W27895  12.371  10.391  11.620  0.1212  0.1372 -0.1139
11762W        W27896  17.684   7.902   1.488  0.1120 -0.0171  0.2042
11763W        W27897  10.996   9.996   2.292 -0.0412 -0.0430  0.4180
11764W        W27898  16.556  14.757   3.743  0.0359 -0.4101  0.1732
11765W        W27899   4.922   8.385   4.474 -0.3264  0.0647 -0.0232
11766W        W27900  12.181  14.033  14.467  0.1059 -0.0637 -0.2048
11767W        W27901   0.355   5.032   0.682 -0.1221 -0.0259 -0.1955
11768W        W27902   9.396  13.697   5.143  0.1736  0.2375 -0.0631
11769W        W27903   4.912  14.220  15.612 -0.0252  0.0343  0.1901
11770W        W27904   4.589  16.131  13.341 -0.0397 -0.0025  0.1102
11771W        W27905   2.351   7.550   0.857 -0.2722  0.2530 -0.1292
11772W        W27906  15.516  14.628   0.877 -0.1234  0.1477  0.1505
11773W        W27907   1.046   1.311  15.238 -0.2404  0.1552 -0.0546
11774W        W27908  14.325  13.585   1.590 -0.2718  0.0511 -0.0276
11775W        W27909   9.664   7.709  15.387  0.1035  0.0143 -0.0575
11776W        W27910  15.043  12.580  12.542 -0.1142 -0.3550  0.0729
11777W        W27911   7.841  15.793  14.687  0.2202  0.1506  0.1150
11778W        W27912   2.704   3.259  11.778 -0.2438  0.2102  0.1116
11779W        W27913   8.186  10.752  14.624  0.0586 -0.0944  0.2893
11780W        W27914  13.972   6.804   4.219 -0.0739  0.1234  0.0102
11781W        W27915  11.076   3.264  12.137  0.1210 -0.0435 -0.2904
11782W        W27916   1.787  17.526  14.102 -0.1565 -0.0699  0.4023
11783W        W27917  10.461  17.528   4.444  0.2749  0.0136 -0.0041
11784W        W27918  16.705   8.526  12.323  0.0836 -0.3170  0.0525
11785W        W27919   5.968   1.212   0.397  0.4236 -0.1951  0.2460
11786W        W27920  17.733  17.020  11.248  0.3917 -0.0594 -0.2010
11787W        W27921   5.486  16.045  14.824  0.2358  0.0143  0.2643
11788W        W27922  14.010  14.536   0.566  0.2306 -0.0970 -0.0712
11789W        W27923  15.817  15.145   0.567 -0.1986  0.0041  0.0474
11790W        W27924   0.012   6.084  13.473  0.0977 -0.0369 -0.3154
11791W        W27925   6.901   1.068   3.654  0.0018  0.1780 -0.1855
11792W        W27926   8.814  11.958  12.122  0.0929  0.0622  0.1156
11793W        W27927  11.256  15.774  12.215  0.0352 -0.0038  0.1497
11794W        W27928   9.435   6.713   3.008 -0.1854  0.0697 -0.1686
11795W        W27929  16.496   9.943   2.724  0.1171 -0.1705  0.1571
11796W        W27930  12.643  10.407  13.049 -0.0973 -0.1559 -0.3264
11797W        W27931   4.503  17.952  14.523 -0.3940 -0.2592  0.1170
11798W        W27932  16.566   8.812  10.548  0.3316  0.2561 -0.0454
11799W        W27933  13.085   2.686   0.279  0.1504 -0.2951  0.0700
11800W        W27934  13.192  11.047   6.148 -0.2404  0.1885  0.1938
11801W        W27935  12.250  10.916   1.412 -0.1802  0.0505 -0.1324
11802W        W27936   7.375  16.286   1.304  0.1135 -0.3283 -0.0697
11803W        W27937  10.578   9.540   4.352 -0.0269 -0.0457  0.1299
11804W        W27938   6.053   2.110  15.965  0.1169  0.0092 -0.1616
11805W        W27939   9.610   8.432  12.944  0.0283  0.0786  0.0309
11806W        W27940   7.040  11.942   2.615 -0.1882  0.0013 -0.1600
11807W        W27941  14.311   8.819   2.514 -0.2453  0.0430 -0.0482
11808W        W27942   2.872  11.003  12.661 -0.1446 -0.1875  0.0325
11809W        W27943   3.799  10.839  14.915  0.1443 -0.2769  0.0075
11810W        W27944   7.381  17.043   3.299  0.0558  0.0092 -0.2321
11811W        W27945   2.646   6.813  12.168  0.2945 -0.1839 -0.1810
11812W        W27946   7.562   7.443   4.338  0.0992  0.1192 -0.0693
11813W        W27947  10.651   5.841   1.317 -0.0894  0.1558 -0.4419
11814W        W27948   6.138   7.918   1.472  0.0585  0.1676  0.1387
11815W        W27949   8.671   9.861   5.165 -0.2734 -0.0560  0.2397
11816W        W27950  12.975  14.130   2.192  0.1272  0.0537 -0.0338
11817W        W27951  14.498   1.500   1.391 -0.1888  0.1477 -0.1698
11818W        W27952  15.334   3.003   3.635  0.4095 -0.2148 -0.0220
11819W        W27953  14.392  12.337   0.504 -0.3514 -0.1172 -0.0588
11820W        W27954  10.691  11.404  12.863 -0.0184 -0.0423  0.1695
11821W        W27955  16.781  15.300   2.802 -0.0244 -0.0031  0.2255
11822W        W27956  12.955   2.638   3.371 -0.0372  0.0835 -0.4120
11823W        W27957  13.949   5.721   1.377 -0.0520 -0.1587 -0.1954
11824W        W27958   5.790   5.556  13.307 -0.2365 -0.0065  0.1221
11825W        W27959  12.743  17.405  11.861 -0.0371 -0.1114  0.1116
11826W        W27960   8.010   1.118   0.371  0.0229 -0.0117 -0.0826
11827W        W27961  16.483  10.663  16.208  0.1579  0.0484 -0.2000
11828W        W27962   3.194   0.866  14.050  0.1460  0.0901 -0.0703
11829W        W27963   6.048   0.927  13.276 -0.0652 -0.0003  0.3226
11830W        W27964   6.391   0.309   1.322 -0.0133 -0.0504  0.2532
11831W        W27965  16.809   9.059   6.266  0.0814 -0.2197  0.1990
11832W        W27966  17.500  13.988  15.766 -0.0191 -0.1494 -0.0112
11833W        W27967   4.299  15.319  16.068 -0.1192 -0.0300  0.0075
11834W        W27968  15.205   8.075  13.581  0.1617  0.0220 -0.1030
11835W        W27969   2.191  11.195  14.199 -0.0184  0.1722 -0.0364
11836W        W27970   8.321   1.747   4.851 -0.0615  0.0367  0.2313
11837W        W27971  14.413   7.143   4.293  0.0479  0.2668 -0.0889
11838W        W27972   4.802  15.290   1.562  0.0352 -0.2572  0.0298
11839W        W27973   5.847   3.895  15.353 -0.1124  0.0348  0.1585
11840W        W27974   4.532   5.435   4.797  0.0571 -0.2075 -0.1030
11841W        W27975  17.181  10.350  13.310 -0.0990 -0.1121  0.1012
11842W        W27976   9.781   9.332  13.788  0.3501  0.0634  0.1268
11843W        W27977   1.639  17.893   4.686 -0.0500  0.1274  0.1988
11844W        W27978   4.107  13.317  15.965  0.2335  0.5405 -0.0718
11845W        W27979  12.237  13.749   3.898 -0.1266  0.1787 -0.1871
11846W        W27980   7.367   1.622   5.008 -0.0599  0.0404 -0.1031
11847W        W27981  11.261   9.116  11.609 -0.0733  0.0425  0.1049
11848W        W27982  16.290  13.746  13.675  0.0913  0.2156  0.0137
11849W        W27983  17.901   8.907  12.268  0.3502 -0.2326 -0.0293
11850W        W27984   5.892  11.913  15.862 -0.2183  0.1655 -0.1751
11851W        W27985   0.060  10.007  13.674  0.0564 -0.2415  0.0446
11852W        W27986   9.753   8.878  12.660 -0.3515  0.0982  0.0989
11853W        W27987   2.722  15.839  14.097  0.0753 -0.0647  0.1083
11854W        W27988  10.477  14.419  13.171 -0.0895 -0.0794 -0.2756
11855W        W27989   6.136   8.392  16.459 -0.0380 -0.0551  0.1587
11856W        W27990  11.008   3.846   3.406  0.2333 -0.0066  0.0022
11857W        W27991   4.226   4.114  11.672  0.0080 -0.1424 -0.1856
11858W        W27992  14.804  11.683   3.445  0.0528  0.2573 -0.0912
11859W        W27993  13.821  13.080   3.821  0.1786  0.1359 -0.0183
11860W        W27994   2.528   2.219   1.531  0.1887  0.1469 -0.0493
11861W        W27995   2.876   3.407   5.610 -0.2242 -0.0063 -0.3027
11862W        W27996   9.980   2.923  13.090  0.0276  0.1271 -0.1307
11863W        W27997   1.181  14.608  14.257  0.2024  0.3264  0.0879
11864W        W27998   1.138   8.625  14.841 -0.1830 -0.2281  0.0053
11865W        W27999  11.713  12.309   3.592 -0.1749  0.0312  0.0693
11866W        W28000  12.358  16.886   6.421 -0.1602 -0.1826 -0.0144
11867W        W28001  11.401   3.293   4.353 -0.2608 -0.0517 -0.0266
11868W        W28002  10.239   7.673  15.430 -0.2591 -0.0830  0.1035
11869W        W28003   8.666  11.212  16.085  0.2746 -0.2368 -0.2278
11870W        W28004  15.725  13.748   5.675  0.3249  0.0532  0.0308
11871W        W28005   3.281  14.673  14.445 -0.1925  0.2515 -0.3030
11872W        W28006  14.520  17.131  12.267  0.5288 -0.2274  0.0779
11873W        W28007  10.899  13.440   3.653 -0.0103  0.1535 -0.0790
11874W        W28008   6.812   4.382   2.498  0.0392  0.0519 -0.3964
11875W        W28009   0.670  14.036  12.311 -0.2045 -0.2785  0.1060
11876W        W28010   5.836   9.540  12.188  0.0077 -0.0352  0.0743
11877W        W28011   9.542   6.078  15.713  0.1446 -0.0945 -0.0507
11878W        W28012   7.047   6.819  13.205  0.0838 -0.2115  0.1927
11879W        W28013  14.273   1.482   4.589  0.4422 -0.2426  0.0555
11880W        W28014   6.736   8.004   0.871 -0.1250 -0.0506  0.0463
11881W        W28015   3.196   4.449  12.711 -0.3841 -0.0295  0.1259
11882W        W28016   9.854   9.531   0.442  0.0802 -0.0327  0.2664
11883W        W28017  16.045   8.978   0.383 -0.1184  0.0417 -0.0943
11884W        W28018   0.951  15.400  16.286 -0.2475 -0.0286  0.2992
11885W        W28019   0.368   5.673   4.490 -0.2242 -0.0651 -0.0259
11886W        W28020  13.197   3.374  12.777 -0.1070  0.2086  0.1436
11887W        W28021   6.881   9.517  12.827 -0.2830  0.0935 -0.5209
11888W        W28022   1.187   3.310   4.153  0.1635  0.1807  0.1330
11889W        W28023  10.616   5.147  13.823  0.1111  0.1025 -0.0483
11890W        W28024   8.869   0.572   2.493  0.1552 -0.0280 -0.0824
11891W        W28025   9.555  16.362  14.686 -0.2185 -0.0721 -0.0011
11892W        W28026   4.056  16.628   3.742  0.1202  0.0051  0.0863
11893W        W28027   2.219   3.027  14.581  0.0300 -0.1862  0.1422
11894W        W28028   7.070  11.179   1.849 -0.1515  0.0252 -0.1755
11895W        W28029  13.278   4.628   3.285 -0.2988  0.1009  0.0904
11896W        W28030   5.470   5.258   2.745  0.0080  0.1160  0.0467
11897W        W28031  17.513   1.016   4.168  0.1750  0.0839  0.3822
11898W        W28032   3.036  16.798   4.821 -0.0728  0.2371 -0.0001
11899W        W28033  10.803  13.230   5.331  0.0648  0.1275 -0.2133
11900W        W28034  13.879   7.013  15.902  0.1575  0.0888  0.1157
11901W        W28035  12.997  17.284   1.216 -0.0460  0.1844 -0.1249
11902W        W28036   3.562   6.068   4.835 -0.0673 -0.0400  0.1148
11903W        W28037   6.969  15.732  14.478  0.1720  0.3100 -0.0558
11904W        W28038   2.103   6.648  14.387  0.0581 -0.1900 -0.0788
11905W        W28039  10.030   1.281   5.482 -0.3007  0.0767 -0.0477
11906W        W28040   5.567   9.034   4.299 -0.0561  0.3289  0.0954
11907W        W28041   5.626   5.165   1.199 -0.2187  0.0694 -0.2193
11908W        W28042  17.709  14.864  12.276 -0.1680  0.1060 -0.0218
11909W        W28043   2.845  16.795  14.153  0.0881 -0.2984  0.0146
11910W        W28044   8.764  16.255  14.254  0.2914 -0.1379  0.4249
11911W        W28045  14.551   0.351   1.756  0.1883  0.2700  0.3500
11912W        W28046   4.997  17.058  14.913 -0.3751 -0.2636  0.0639
11913W        W28047   9.085  17.006  14.579 -0.1372  0.4506  0.2979
11914W        W28048  13.611  17.239   3.465  0.0308  0.1579  0.3918
11915W        W28049   4.867   7.821  15.139 -0.1171 -0.0311  0.1213
11916W        W28050   2.061   9.478   2.111 -0.1254 -0.0276  0.1822
11917W        W28051   7.529   8.589   2.884 -0.0617  0.0607 -0.1166
11918W        W28052  16.204   9.477   0.764 -0.2094  0.2434  0.0458
11919W        W28053  17.208   3.479   5.267 -0.1867 -0.1597  0.1946
11920W        W28054   5.445  14.092   6.432  0.2832 -0.1172 -0.1785
11921W        W28055   8.910   5.453  16.312  0.0042 -0.0773 -0.0820
11922W        W28056   5.360  11.308   2.899  0.0314  0.2979 -0.2513
11923W        W28057   9.587   0.684  11.553  0.0013 -0.0247 -0.1025
11924W        W28058  15.646  11.367  13.890  0.2025  0.1568 -0.0581
11925W        W28059  13.377  15.271   3.274 -0.1589 -0.1898 -0.0205
11926W        W28060  15.177   0.570  13.586 -0.2682  0.0837  0.3044
11927W        W28061   9.660  14.817  13.082 -0.1768  0.1713 -0.1492
11928W        W28062  17.308  14.467   5.049 -0.0663 -0.1100 -0.0224
11929W        W28063  11.649  17.045  12.440  0.0318 -0.2796  0.0031
11930W        W28064  17.169   0.981   3.788  0.1611 -0.0005 -0.3239
11931W        W28065   4.344  10.994   1.114 -0.1476  0.1952  0.0891
11932W        W28066  15.060  15.560   5.403  0.2558  0.0682 -0.0673
11933W        W28067  10.223   9.894   5.544  0.1709  0.3555  0.0020
11934W        W28068  13.841   8.227   2.132  0.1815 -0.2174 -0.0550
11935W        W28069  17.735  14.591  16.326 -0.2354 -0.0054 -0.0471
11936W        W28070  16.295  10.689   1.415 -0.1061 -0.0512  0.1519
11937W        W28071  14.729  11.416  11.754 -0.2938 -0.1190  0.1236
11938W        W28072  12.209   8.616  11.410  0.0744  0.0137  0.0251
11939W        W28073   9.169  15.596   1.429 -0.4590  0.0330 -0.0908
11940W        W28074   4.943   9.815   3.100  0.2430  0.2142  0.0859
11941W        W28075   4.675  16.277  14.698 -0.1024  0.0888  0.1688
11942W        W28076  11.701  12.548   1.690 -0.0271 -0.2645  0.2028
11943W        W28077   3.848   6.775  14.524  0.1951  0.0040  0.1809
11944W        W28078  10.320   7.520  14.071  0.0930  0.0180  0.2022
11945W        W28079   6.291  16.627  14.247 -0.1027 -0.0654 -0.1201
11946W        W28080   8.609   1.265  15.791 -0.0374  0.0346 -0.0576
11947W        W28081   7.364   0.923   3.620  0.2975 -0.2132 -0.0740
11948W        W28082   1.103  15.348  14.917  0.0392  0.1274 -0.1738
11949W        W28083  17.718   3.048  15.394 -0.2785  0.2006  0.1398
11950W        W28084  13.513  12.247   0.481 -0.1975  0.0636 -0.0455
11951W        W28085  10.579  13.997  12.911  0.0741  0.0504 -0.2570
11952W        W28086  13.079   1.031   1.840  0.0985 -0.0813 -0.0148
11953W        W28087  15.617   3.424  14.767 -0.1052  0.1177  0.2364
11954W        W28088  13.733  13.470  10.890 -0.0971  0.3367  0.3464
11955W        W28089  16.790  14.817  12.500 -0.3441 -0.2343 -0.3116
11956W        W28090   0.252   9.450  15.394 -0.0851 -0.1562 -0.0271
11957W        W28091  10.835  13.145  15.562 -0.3326  0.1975 -0.2743
11958W        W28092   3.090  15.693   0.462 -0.0403  0.2920 -0.0608
11959W        W28093   3.880   1.317  11.619  0.0152  0.2336  0.1864
11960W        W28094   7.901   7.728   4.110  0.0255  0.0663 -0.2547
11961W        W28095   6.341  15.540   1.663 -0.1485 -0.0876 -0.1554
11962W        W28096   8.736  15.941  12.893  0.1387 -0.1171 -0.0575
11963W        W28097   8.129   2.243  12.595  0.2946 -0.1873 -0.1474
11964W        W28098  11.231   4.956   3.747  0.1374 -0.2850  0.0348
11965W        W28099   1.258   9.312   2.986  0.0142 -0.0192 -0.1959
11966W        W28100  16.488   5.714  13.712 -0.1622  0.3041 -0.1967
11967W        W28101   6.464   0.557   3.059  0.0121  0.0902  0.0463
11968W        W28102  10.837   5.778  14.609  0.1461  0.0728 -0.1297
11969W        W28103  12.263   9.908   5.233  0.0378 -0.0794 -0.0032
11970W        W28104   0.941   6.387  12.027 -0.0115 -0.1994  0.0333
11971W        W28105  17.038   4.104   4.122  0.2215  0.0914 -0.2642
11972W        W28106  12.325   7.297   1.445  0.1389 -0.0386 -0.3052
11973W        W28107  14.419   3.514   5.498 -0.1119 -0.1750  0.1938
11974W        W28108  17.273  10.808  13.056  0.0852  0.2620  0.5026
11975W        W28109   8.068   5.263  15.280  0.1314 -0.1283  0.0332
11976W        W28110   6.996   3.687  12.166  0.2363 -0.1482  0.0396
11977W        W28111   2.974  10.295  15.813  0.1092  0.0361 -0.0195
11978W        W28112   1.174   6.107   5.626  0.2194  0.0551 -0.0210
11979W        W28113   5.689   6.361  14.221 -0.1856  0.2035 -0.1712
11980W        W28114  15.705  17.162   1.800 -0.3090  0.1471 -0.1020
11981W        W28115  16.125   3.451  16.630  0.2562  0.2915  0.0506
11982W        W28116  15.394   8.773  12.079  0.0181 -0.0072  0.3479
11983W        W28117  11.274   2.232  13.645  0.0646  0.1605 -0.1338
11984W        W28118   4.366   2.689   2.312  0.1478 -0.1068 -0.1420
11985W        W28119  16.460   2.103   4.119 -0.1259  0.2998 -0.0564
11986W        W28120  16.888  10.283   4.424 -0.2720 -0.2224 -0.0788
11987W        W28121   7.939   9.933  14.137 -0.1270  0.0474 -0.2926
11988W        W28122  13.614   0.908   0.058  0.3764  0.1233  0.1673
11989W        W28123  12.342   4.874  14.867  0.0554  0.1026 -0.2419
11990W        W28124  12.406   6.238  15.236  0.1654 -0.0409 -0.1002
11991W        W28125  17.732  16.660   0.995  0.0444  0.0851 -0.3402
11992W        W28126   7.651   6.022   4.189 -0.0103  0.1579  0.1466
11993W        W28127  13.181   6.206   1.738  0.0195 -0.2919 -0.2498
11994W        W28128   7.903  17.695   2.973  0.0133  0.0324 -0.1077
11995W        W28129   8.227  14.794  12.594 -0.4836 -0.2083  0.0122
11996W        W28130   1.513   1.349   4.572  0.2967 -0.0227 -0.0522
11997W        W28131   6.227  17.719  12.736  0.2452 -0.0945 -0.2906
11998W        W28132   9.430   0.847  15.658 -0.2364  0.2539 -0.1181
11999W        W28133  12.180   6.652  13.434 -0.2926 -0.1224  0.3644
12000W        W28134  12.345  12.944  11.675  0.2000 -0.1563 -0.3517
12001W        W28135   1.039   0.153   3.353  0.0057 -0.1233  0.2642
12002W        W28136   4.732   7.425  16.075 -0.0182  0.2008  0.4022
12003W        W28137   6.085  17.141   0.186 -0.1111 -0.0625 -0.4061
12004W        W28138   4.215   1.996   4.745 -0.1370  0.2915  0.0967
12005W        W28139   1.809   7.950   0.836 -0.0440 -0.1836  0.0484
12006W        W28140   1.157   8.876  12.762 -0.0004  0.2724 -0.1328
12007W        W28141  13.504  14.417   1.404  0.0320  0.0586  0.2595
12008W        W28142   3.745  14.474   2.835 -0.0363  0.0650 -0.1335
12009W        W28143   7.685   3.380  14.518 -0.0263  0.3186 -0.0729
12010W        W28144  15.153   4.616   3.035  0.3233  0.2012  0.0458
12011W        W28145  16.900   1.027  15.844  0.0591  0.1681 -0.0185
12012W        W28146  13.673   3.429   4.355  0.1335  0.3487  0.0851
12013W        W28147  10.474   5.022  15.653  0.1422  0.0722 -0.2478
12014W        W28148  14.637   5.009   3.090  0.0454 -0.1754  0.4324
12015W        W28149  15.687  12.843  12.590 -0.2223  0.2414  0.0009
12016W        W28150  11.734   5.369  15.856 -0.1025 -0.2815 -0.1631
12017W        W28151  13.766   8.593  13.194  0.0611 -0.0540  0.0150
12018W        W28152   4.637   0.468  14.877  0.0746 -0.2446  0.2414
12019W        W28153   0.609  13.885   3.918 -0.0777 -0.0440  0.1396
12020W        W28154  17.674  16.798   0.502 -0.1511 -0.2058  0.0277
12021W        W28155  13.643   7.340  11.175  0.1907  0.0180 -0.2942
12022W        W28156  14.470   5.887   3.790  0.2149  0.3807 -0.1889
12023W        W28157  17.324   2.517   0.692 -0.0612  0.2540 -0.0331
12024W        W28158   6.347   6.850  12.422 -0.1372 -0.0331 -0.1710
12025W        W28159  17.680  16.164  11.778  0.0047  0.4415 -0.0862
12026W        W28160  10.923   2.177   2.189 -0.0275 -0.1334 -0.0271
12027W        W28161   5.517   7.439  12.753 -0.4198 -0.1972 -0.4340
12028W        W28162  17.112  10.225  11.881  0.2386  0.2292  0.2595
12029W        W28163  15.100  12.788   5.751  0.4193 -0.1982 -0.1675
12030W        W28164   5.964  17.918  14.356 -0.0707 -0.1919 -0.1390
12031W        W28165   9.352   3.358   1.353  0.0254  0.1227  0.0038
12032W        W28166   7.206   2.237  12.435  0.1299  0.2030 -0.0811
12033W        W28167   8.261  10.485  16.042  0.0605 -0.0124  0.2249
12034W        W28168  17.122   9.697   1.886  0.2676 -0.0308 -0.0642
12035W        W28169  13.696  14.548   3.918 -0.0584 -0.0629  0.0349
12036W        W28170   7.609  11.591  13.756  0.1846  0.2148 -0.0343
12037W        W28171   9.005   6.461  16.096 -0.0161  0.0938  0.4336
12038W        W28172  10.881   8.744  15.255  0.0708  0.0050  0.3006
12039W        W28173   0.619  17.397  11.552 -0.1049 -0.0704 -0.1074
12040W        W28174   4.734   0.348   3.802  0.2344 -0.0831  0.1785
12041W        W28175  11.272   6.503  13.438  0.0506  0.1800 -0.0922
12042W        W28176   2.144   8.316  15.400 -0.0907  0.1015  0.0990
12043W        W28177  10.890  12.659   3.431  0.0104  0.2483  0.3434
12044W        W28178  10.421  15.919  11.704 -0.3322 -0.1836  0.0049
12045W        W28179   5.150  13.898  13.909 -0.2319 -0.1666  0.0380
12046W        W28180  13.932  14.497  15.467 -0.1675  0.2210 -0.2438
12047W        W28181  14.972   8.451   0.437 -0.1635 -0.2043 -0.1935
12048W        W28182  15.759   0.489   4.374 -0.2236  0.0554 -0.0235
12049W        W28183  12.993  12.180   3.184  0.0577 -0.1058 -0.1631
12050W        W28184  13.191  16.613   4.933  0.2397  0.4703 -0.0079
12051W        W28185   7.679   9.664   0.861  0.1695 -0.2916 -0.1485
12052W        W28186  12.139  13.050   4.350 -0.1736  0.0556 -0.0186
12053W        W28187   8.300   9.754   2.512 -0.1052  0.0269  0.2456
12054W        W28188  16.848  13.035   5.525 -0.1438  0.3848 -0.3706
12055W        W28189   6.619  12.773   1.015  0.0688 -0.1323 -0.1044
12056W        W28190   1.888  14.560   3.922  0.0411  0.2538  0.1295
12057W        W28191  15.422   0.074  14.028 -0.0821 -0.0048 -0.0294
12058W        W28192  17.735  11.803  13.980 -0.3188  0.3039 -0.0494
12059W        W28193   1.616  10.029   4.479  0.0125  0.1669 -0.0364
12060W        W28194   0.413   0.577   0.987  0.0457  0.1255 -0.0620
12061W        W28195  12.088   1.330   4.335 -0.0963 -0.0801  0.2293
12062W        W28196  16.576  16.272  15.486 -0.0365  0.1518  0.0291
12063W        W28197   9.373  11.474   5.085 -0.0608  0.0383  0.2626
12064W        W28198  14.492  13.501  11.324  0.1087 -0.1210  0.0637
12065W        W28199  15.721   6.036  15.856  0.1184 -0.0694  0.2742
12066W        W28200   8.899  14.502  13.245  0.0195  0.1544  0.1656
12067W        W28201   7.999  16.852   3.030  0.2388 -0.0878 -0.0577
12068W        W28202   1.379  10.708   2.839 -0.2442  0.1186 -0.0953
12069W        W28203   9.974  13.521  15.792 -0.0430  0.0432 -0.4704
12070W        W28204   4.773   1.945  14.495  0.0099 -0.1298 -0.0872
12071W        W28205  14.607  15.245  11.314 -0.1184 -0.0459 -0.0107
12072W        W28206  17.505   3.584   1.461 -0.0955  0.1048 -0.3076
12073W        W28207   8.582  13.143   0.612  0.1280 -0.3293 -0.3376
12074W        W28208   0.413  13.156  12.838  0.1975 -0.2540 -0.1345
12075W        W28209   4.784   8.825   5.142  0.2040 -0.1628 -0.1671
12076W        W28210   5.165   9.363   6.565 -0.4693  0.3950  0.0817
12077W        W28211   4.587   1.534   2.505 -0.2300  0.1800 -0.0300
12078W        W28212  14.089   2.782   1.658 -0.1769 -0.2043 -0.2796
12079W        W28213  12.637  16.563   0.178 -0.2012  0.2153  0.1527
12080W        W28214   0.247  11.838  13.997 -0.3739  0.0369 -0.3404
12081W        W28215   5.112   1.233   5.561  0.4544 -0.2015 -0.0865
12082W        W28216  11.228   4.445  13.489 -0.0695 -0.1343 -0.1399
12083W        W28217   4.759  13.558   0.030 -0.1919 -0.0187  0.2387
12084W        W28218   1.641  14.431  13.481 -0.0771 -0.2306  0.0728
12085W        W28219   8.150   9.908  11.323  0.0702  0.1490  0.1300
12086W        W28220  13.134   8.152   5.544  0.0492 -0.1912 -0.0024
12087W        W28221   8.478  13.752  12.123 -0.3002  0.0357 -0.0298
12088W        W28222   5.475  14.950  14.810  0.3248  0.0000 -0.0324
12089W        W28223   8.283   1.682  14.872  0.3001  0.1694 -0.0453
12090W        W28224  14.748   8.564   4.280  0.2699 -0.0174  0.0344
12091W        W28225  10.744   6.421  15.300 -0.0962  0.2145  0.0561
12092W        W28226  14.165   5.627   4.609  0.2317 -0.0863 -0.0107
12093W        W28227   0.909   7.987  14.488  0.2101 -0.2899 -0.1059
12094W        W28228  12.684   7.028  14.417 -0.2715 -0.1605  0.0363
12095W        W28229  16.315  15.604   6.311  0.2045 -0.1419 -0.1902
12096W        W28230  15.612  17.729  12.964  0.2924 -0.1142  0.1464
12097W        W28231  14.329   5.936  11.699 -0.3889 -0.2822  0.0357
12098W        W28232  14.529   5.864  13.654  0.1938 -0.2172 -0.2334
12099W        W28233   9.418   6.683   4.907  0.0218 -0.3921 -0.0818
12100W        W28234   1.428  11.252   2.486 -0.2644 -0.3550 -0.2634
12101W        W28235   5.583  15.177   0.320  0.0693 -0.0390  0.3207
12102W        W28236   8.068   3.724   4.677 -0.0325  0.0945  0.2621
12103W        W28237  16.365   6.091  14.066 -0.1168  0.0016 -0.1703
12104W        W28238   2.080   7.495  14.893  0.2240 -0.3105  0.0337
12105W        W28239  11.683  15.862  12.010 -0.2430  0.5320  0.0863
12106W        W28240   9.187  13.630   2.283 -0.1229 -0.0556  0.2076
12107W        W28241  14.268   2.251   2.856  0.1653  0.1696 -0.1699
12108W        W28242   1.326  17.532   0.084 -0.0381  0.2712 -0.0912
12109W        W28243   0.579  11.588   3.339 -0.0671  0.0007  0.0212
12110W        W28244  12.509   3.707  11.645  0.0003 -0.2736  0.2143
12111W        W28245   8.337  16.074  13.924 -0.1798  0.0018  0.1597
12112W        W28246   1.224  14.252  13.193 -0.2141 -0.1325  0.2694
12113W        W28247   2.185  11.638  14.511  0.0934  0.4076 -0.1902
12114W        W28248  10.422  17.924   5.941  0.1176  0.0348 -0.1327
12115W        W28249   3.486  11.544  13.239  0.1214  0.0063  0.2860
12116W        W28250  16.077  14.974   5.043 -0.2469 -0.0796  0.1965
12117W        W28251   0.267  13.933   4.341  0.0979  0.0610  0.1228
12118W        W28252   1.891  17.420   1.279 -0.0121  0.1371 -0.3067
12119W        W28253   7.857   3.758  11.899 -0.0503 -0.1892  0.4141
12120W        W28254   4.679   4.066  16.660 -0.1368 -0.0700  0.2840
12121W        W28255  10.215  13.520   3.016  0.0100  0.2929  0.1332
12122W        W28256  11.482   9.937   4.681  0.2598  0.1464  0.1775
12123W        W28257  17.170  15.554  14.678 -0.1033  0.1206  0.2066
12124W        W28258  14.078   0.844  15.469  0.1361 -0.0869  0.3409
12125W        W28259  14.374   8.714  11.516 -0.0567  0.2717  0.1450
12126W        W28260  14.124   9.522  14.748  0.2067  0.1227  0.1141
12127W        W28261   1.700  17.805   0.436  0.3331  0.0924  0.0468
12128W        W28262   2.327  10.866  16.478 -0.2570  0.1172  0.2128
12129W        W28263   3.062  11.413   2.083 -0.0507  0.0894  0.0639
12130W        W28264  16.497  13.521  16.075  0.1748 -0.1803 -0.3147
12131W        W28265  14.812   5.310  12.173  0.3449  0.2321 -0.0818
12132W        W28266  15.460   0.280  14.518 -0.0156 -0.0467 -0.0661
12133W        W28267  17.694  13.073  14.529  0.1635 -0.0415  0.1876
12134W        W28268   2.799   9.705  12.216 -0.0793 -0.1468  0.3526
12135W        W28269   2.825   5.924   4.658 -0.0194  0.1456 -0.0356
12136W        W28270   4.968   8.654   0.738  0.0677 -0.0745 -0.1619
12137W        W28271   0.904   8.824  11.876  0.0096 -0.1137  0.2811
12138W        W28272   4.771   3.318  14.301 -0.3480  0.0118  0.0277
12139W        W28273  14.248   0.642   2.594 -0.0590 -0.0646 -0.1267
12140W        W28274   3.913  11.566  15.019 -0.1991 -0.0245 -0.2001
12141W        W28275   0.330  14.315  12.692  0.0934  0.0297  0.0466
12142W        W28276  15.592   3.474  13.886 -0.0638 -0.3069  0.2946
12143W        W28277  11.188   0.306  16.294  0.0171 -0.0119  0.0454
12144W        W28278  10.805  12.627   1.932 -0.1564 -0.3253 -0.2103
12145W        W28279   8.178   7.215  12.057  0.2439 -0.0845 -0.1753
12146W        W28280  13.643   4.922  12.064  0.3125  0.1360 -0.2572
12147W        W28281  13.387   9.782  12.330  0.2610  0.3035  0.1385
12148W        W28282   5.871  15.898   0.086  0.0281  0.1234 -0.0430
12149W        W28283  10.342   8.635   0.524  0.0791 -0.0463 -0.0736
12150W        W28284  14.592  13.854  14.604  0.1994  0.0774 -0.0262
12151W        W28285  13.035  16.812   1.398 -0.1312 -0.1176 -0.0402
12152W        W28286   2.456   4.360   3.025 -0.0910  0.0700 -0.2075
12153W        W28287  16.589   2.536   5.065 -0.1940 -0.2918  0.1149
12154W        W28288  10.121   9.919   3.236  0.1045  0.1813 -0.0475
12155W        W28289   2.182  11.893   4.793  0.1345  0.1137 -0.1233
12156W        W28290  16.354   0.738   0.557 -0.1995  0.0941 -0.1922
12157W        W28291  16.931   0.623  15.513  0.0411 -0.0942  0.0352
12158W        W28292  16.144   6.382   1.479 -0.0728 -0.1189  0.1449
12159W        W28293   3.763   6.411   4.463  0.0994  0.0285 -0.0543
12160W        W28294   7.714   3.277   5.345  0.0346  0.1373  0.3182
12161W        W28295   7.477  12.644  11.594 -0.0417 -0.1660  0.1858
12162W        W28296  10.840   8.708   4.096 -0.1436  0.0179  0.1311
12163W        W28297   9.585  10.459   0.635  0.1602 -0.1636  0.3386
12164W        W28298   9.100   0.147  14.233  0.0614 -0.0735  0.0880
12165W        W28299   4.742   8.005   1.600 -0.1852  0.1296 -0.1149
12166W        W28300  13.709  17.439  11.532  0.0118 -0.0627  0.2093
12167W        W28301   8.711  13.598  16.638 -0.0376  0.1296  0.4441
12168W        W28302   2.884   0.839   0.427 -0.2202 -0.1244  0.2690
12169W        W28303  12.474   7.545   0.650  0.2806 -0.1382  0.1585
12170W        W28304  14.244   3.019   1.227 -0.0867 -0.0268 -0.2596
12171W        W28305   2.443   0.849  10.959  0.3516  0.0603 -0.4678
12172W        W28306  16.033   9.300  12.450  0.1082 -0.0382  0.2691
12173W        W28307   5.455   5.419   0.707 -0.2318  0.1168  0.1282
12174W        W28308   1.513  10.898   5.313  0.0438  0.0871  0.2608
12175W        W28309   8.508  17.700  16.404  0.1704  0.0915 -0.1495
12176W        W28310   7.735   7.376   0.867  0.1347  0.1304 -0.0534
12177W        W28311   2.388   5.410   5.317  0.2832 -0.2782 -0.0625
12178W        W28312   8.186  11.561  16.227  0.3105 -0.3156 -0.2720
12179W        W28313   2.558   9.502  15.340 -0.1384 -0.2569 -0.1378
12180W        W28314  11.634  11.831  13.131  0.1745  0.1991  0.1410
12181W        W28315   1.396   1.100  15.867  0.0092 -0.1935  0.0159
12182W        W28316   8.913  14.523  12.483  0.1636 -0.1569  0.1286
12183W        W28317  12.300   2.235   3.782  0.0994 -0.2506  0.0481
12184W        W28318   4.279  16.612   5.380 -0.1503  0.0941 -0.1206
12185W        W28319   2.728  13.271   4.761  0.1141  0.2022 -0.0063
12186W        W28320  16.219  15.932   1.940 -0.3063  0.1385  0.0272
12187W        W28321   9.645  11.656  15.043 -0.1072  0.2094  0.0601
12188W        W28322  15.269   2.745  14.224  0.1046  0.0218 -0.0381
12189W        W28323  10.328   6.462  14.084  0.1005 -0.0669 -0.0263
12190W        W28324   4.262   6.628   3.344 -0.2018 -0.0759 -0.0261
12191W        W28325  13.138   6.285  13.182 -0.0386  0.0200 -0.0426
12192W        W28326   5.941   8.921   4.643  0.2179 -0.1298  0.0641
12193W        W28327   5.835   2.764  13.753  0.3790  0.0924  0.1924
12194W        W28328  12.379   3.467   5.263 -0.1953  0.0013  0.2978
12195W        W28329  17.841   7.388   1.419  0.3548 -0.0125  0.0789
12196W        W28330   6.038  16.146  11.915  0.3965  0.1423  0.3099
12197W        W28331   1.154   6.657  14.266 -0.2473 -0.0120  0.1879
12198W        W28332   7.080   4.667  16.012 -0.0487 -0.0926  0.0616
12199W        W28333  13.374  15.274   1.350 -0.1859  0.1705 -0.2817
12200W        W28334   0.164   3.858   0.132  0.1446 -0.0538 -0.1480
12201W        W28335  10.572  11.822   3.284 -0.0420  0.1095  0.4062
12202W        W28336   6.140   5.740   0.752  0.0270 -0.1511 -0.0482
12203W        W28337  13.252   1.694   0.302  0.1620 -0.1345  0.0893
12204W        W28338  16.782   7.658   0.641  0.0499 -0.0132 -0.2187
12205W        W28339   2.557  14.839  15.306 -0.0874  0.0998  0.0622
12206W        W28340   0.874   4.617   5.071 -0.3579 -0.0320 -0.1629
12207W        W28341  11.138   7.816   6.047 -0.0120 -0.1251  0.0853
12208W        W28342  14.902  15.804   1.203 -0.0729  0.1314  0.0288
12209W        W28343   6.412   9.145   0.481  0.1111  0.2408  0.1326
12210W        W28344  16.267  14.223  13.438  0.0764  0.0866 -0.0667
12211W        W28345  10.724  17.892  12.853  0.0830 -0.0552  0.0915
12212W        W28346  15.795  10.324  14.977 -0.1601  0.0841  0.0212
12213W        W28347   8.474   5.625   3.893 -0.1025 -0.1405  0.0837
12214W        W28348   2.365   5.933   4.040 -0.0583  0.1283  0.1999
12215W        W28349   6.309   9.075  14.068 -0.4225  0.0857  0.0974
12216W        W28350  15.443  10.225  15.616 -0.0527 -0.0220  0.0145
12217W        W28351   0.855  16.556   5.821  0.0366  0.0320  0.0984
12218W        W28352   0.718   1.017  13.285 -0.0540 -0.2222 -0.1096
12219W        W28353   5.192   5.532  13.195  0.2264  0.0122 -0.0163
12220W        W28354  14.646   5.133  15.509 -0.1338  0.1349 -0.0141
12221W        W28355  10.144   3.328  12.028 -0.3137 -0.3157 -0.2459
12222W        W28356   1.721  17.233   4.656  0.1601 -0.0722 -0.0718
12223W        W28357  16.579   4.860   5.238  0.1163 -0.1632 -0.1570
12224W        W28358   5.136   8.894   4.170 -0.1843  0.0603 -0.2135
12225W        W28359   0.308   6.836   0.226  0.1649 -0.0832  0.1823
12226W        W28360   0.597   1.176   0.626  0.0888  0.0198  0.1259
12227W        W28361  11.898  17.635   0.283 -0.0469  0.2893  0.2504
12228W        W28362   2.065   6.646  13.861 -0.0478 -0.0189 -0.3480
12229W        W28363   0.986   7.671   3.865  0.4361  0.4263 -0.1233
12230W        W28364  10.269   0.674   2.556  0.0406 -0.1476  0.3175
12231W        W28365   3.474  10.901   1.330  0.1091  0.2890 -0.0389
12232W        W28366   5.027  17.068   4.924 -0.1548 -0.1294  0.1881
12233W        W28367   2.221  16.401   5.933  0.1022  0.1933  0.1346
12234W        W28368   1.908   0.350  14.105 -0.0772  0.1471  0.1774
12235W        W28369  15.435   4.096  16.683 -0.1806  0.0750  0.0783
12236W        W28370  16.069   9.786   5.497  0.2003 -0.1485 -0.0776
12237W        W28371  10.056   4.004   5.390 -0.0549 -0.0397 -0.0944
12238W        W28372   4.468  14.749   4.321 -0.0474  0.0886 -0.0112
12239W        W28373   0.505   4.327   3.220  0.1232  0.0072  0.2027
12240W        W28374  13.277   3.879   1.927 -0.2724 -0.3316  0.0571
12241W        W28375  10.570   5.679  13.016 -0.1794  0.0640  0.2698
12242W        W28376  12.518   3.627  14.797 -0.0525 -0.0942 -0.4714
12243W        W28377   4.605   4.603  12.446 -0.2485  0.0990  0.1263
12244W        W28378  10.593  10.676  14.855  0.2887  0.5119  0.0427
12245W        W28379   9.964   1.731   5.155 -0.3255 -0.0658  0.1366
12246W        W28380   4.562   9.607   3.686  0.0469  0.0596  0.1629
12247W        W28381  12.844   1.925  13.345 -0.2243  0.1082 -0.0665
12248W        W28382   3.975   9.528  13.614 -0.0677  0.1638  0.0115
12249W        W28383   4.217   4.378   5.608  0.1916  0.0957 -0.0062
12250W        W28384  14.559   3.422  12.498 -0.1927 -0.2780 -0.1142
12251W        W28385  14.815   8.640  15.931 -0.2192 -0.0987  0.1576
12252W        W28386   7.493  10.001   0.020 -0.1506 -0.3581  0.3146
12253W        W28387   5.782   4.177   3.079  0.1553 -0.2211 -0.0827
12254W        W28388   4.941   9.818   0.030 -0.0065  0.1034  0.1949
12255W        W28389  17.715   9.465  15.553  0.0910 -0.3104  0.3403
12256W        W28390   9.843   0.498   2.819 -0.1189  0.0661 -0.4094
12257W        W28391   7.378   8.372  12.762  0.2002  0.0879 -0.0407
12258W        W28392  12.182   5.697   5.096 -0.0109 -0.1317  0.2015
12259W        W28393  14.860  13.444   2.340  0.0905 -0.0928 -0.0441
12260W        W28394   7.322  16.131   5.634 -0.0671 -0.0281  0.0397
12261W        W28395  10.627   4.653   3.001  0.0782  0.0596  0.0660
12262W        W28396   0.379   3.837   3.409 -0.1884 -0.2175  0.2233
12263W        W28397   3.732   7.212   5.550 -0.1250 -0.0588  0.1749
12264W        W28398   1.441   4.866   0.281 -0.0086  0.0551  0.0979
12265W        W28399  17.194   6.395   2.151 -0.2781  0.1257 -0.2139
12266W        W28400   1.780   5.076  14.362 -0.2731 -0.0488  0.0379
12267W        W28401   7.159   5.936  13.691  0.0388 -0.1172 -0.1431
12268W        W28402   5.312   7.035   2.207  0.1305 -0.1655 -0.3552
12269W        W28403  13.863  17.012  11.941 -0.2231 -0.0343 -0.0395
12270W        W28404  16.040   6.708   3.637  0.3321  0.0264  0.1546
12271W        W28405   4.504  10.048   2.810 -0.0206  0.1389  0.0398
12272W        W28406   3.782  10.642  15.991 -0.2643  0.1026  0.0099
12273W        W28407   6.433  16.307  15.428 -0.0967  0.0719 -0.0172
12274W        W28408  11.098  10.981   1.899  0.1138 -0.0796 -0.2991
12275W        W28409   8.453   4.374  13.794 -0.1013  0.0773 -0.0526
12276W        W28410   7.164  16.304   4.252 -0.1086  0.2030  0.0913
12277W        W28411  17.588   4.018  11.808 -0.2097 -0.2817 -0.5206
12278W        W28412  15.220  13.823   5.070 -0.0595 -0.1797  0.1220
12279W        W28413  17.980   0.967  13.460 -0.1959  0.2289  0.2171
12280W        W28414  13.290   0.492  16.608 -0.1882 -0.0447  0.0648
12281W        W28415  10.342   7.332   5.952 -0.2122  0.1671  0.0269
12282W        W28416   9.523   7.696   4.938 -0.4643 -0.0598 -0.1682
12283W        W28417   6.061  15.740   2.941 -0.0533 -0.2975  0.0204
12284W        W28418  16.162   0.955   4.714 -0.2423 -0.2835  0.0619
12285W        W28419  14.188  17.637  14.037 -0.0384 -0.0616  0.2147
12286W        W28420  14.743   8.202  16.206  0.1692  0.0424  0.1408
12287W        W28421  11.354   0.766  16.079  0.1699 -0.1138 -0.0985
12288W        W28422  13.507  13.137  12.434  0.2341 -0.1061 -0.2649
12289W        W28423   5.748  11.993  16.309  0.2702 -0.0029 -0.0711
12290W        W28424   8.471   1.275   0.517  0.0943  0.0583  0.0589
12291W        W28425  14.141  13.257  12.474 -0.2606  0.0408  0.1412
12292W        W28426  12.540   6.492  13.015  0.2048 -0.2321 -0.0105
12293W        W28427   5.841   6.672   1.888 -0.1200  0.0697 -0.0456
12294W        W28428  16.830   5.873   5.778  0.1710 -0.0936 -0.3440
12295W        W28429  16.929   3.556  12.807 -0.0201  0.0987  0.1423
12296W        W28430   8.874   7.069   1.318 -0.1464  0.0785  0.0176
12297W        W28431  12.868  11.761   2.327 -0.0849 -0.0621 -0.3006
12298W        W28432   6.079   2.791  13.121  0.0916 -0.2660 -0.0174
12299W        W28433  16.548   3.820  11.957  0.3327 -0.0403 -0.0347
12300W        W28434  14.555   2.563  15.701 -0.0188 -0.2962  0.1470
12301W        W28435  10.257   7.387  12.363 -0.0587 -0.3158  0.1434
12302W        W28436   5.265  17.061   4.455 -0.1661 -0.0056 -0.1036
12303W        W28437   6.608   2.119   2.683  0.0425  0.0995  0.1489
12304W        W28438   4.178  14.931  13.780 -0.2587  0.0483  0.0307
12305W        W28439   3.976   4.556   0.595 -0.0762 -0.0554  0.0234
12306W        W28440   4.718   9.286   0.097  0.0100  0.2412 -0.0571
12307W        W28441  10.136  11.734   0.573  0.0410  0.1564  0.3349
12308W        W28442   2.843  16.351  10.881  0.2209 -0.1218  0.0260
12309W        W28443  15.812  12.481  14.548  0.0274 -0.0843  0.1707
12310W        W28444  14.124  17.374  14.942 -0.0844  0.1463  0.3050
12311W        W28445   1.094   4.805  16.608  0.0668  0.1111 -0.0011
12312W        W28446   0.834   2.447   4.961  0.0454  0.1443  0.1688
12313W        W28447  12.417   1.640  12.929 -0.2141  0.0457 -0.0369
12314W        W28448   4.561  13.386   3.253  0.3444  0.5472  0.0546
12315W        W28449  16.848  11.563   2.784 -0.1377  0.0019  0.1236
12316W        W28450   3.390  10.656   2.406  0.0499  0.1594  0.1102
12317W        W28451   3.280   3.702  14.357  0.0263 -0.1365 -0.2039
12318W        W28452   3.552   8.036  14.949  0.0790  0.0548 -0.2195
12319W        W28453  10.870  12.989   2.916  0.0211  0.4188 -0.1285
12320W        W28454   3.156   3.829  11.163  0.0546 -0.1998  0.2099
12321W        W28455   4.355   6.931   2.453 -0.2132 -0.0107  0.1121
12322W        W28456  17.925   5.178  15.368 -0.0400 -0.0136 -0.1337
12323W        W28457  17.818   4.810  11.156  0.0921 -0.0346  0.2397
12324W        W28458   6.985  15.346  15.382 -0.0714 -0.0451 -0.1506
12325W        W28459  16.982  13.425   4.676  0.3122 -0.3030  0.2155
12326W        W28460  14.278   8.437  15.167 -0.1871  0.2088 -0.1159
12327W        W28461   1.643   7.523  14.382 -0.0080 -0.1135  0.1832
12328W        W28462   1.586   7.126   2.314 -0.0346  0.0107 -0.2591
12329W        W28463  12.689   0.466  13.411  0.0238 -0.1244  0.2411
12330W        W28464  14.019  12.667   3.826  0.1229 -0.2022  0.0464
12331W        W28465   6.209   1.419  11.847  0.0076  0.0680 -0.2148
12332W        W28466  10.890   7.544  15.728 -0.0302 -0.1706  0.2684
12333W        W28467   0.855  15.052   4.594 -0.1142  0.0266 -0.2274
12334W        W28468   5.441   1.553  14.022  0.1716 -0.0691 -0.2524
12335W        W28469  17.847   1.450  13.241  0.1686  0.0547 -0.1331
12336W        W28470  12.212  15.986  16.391 -0.2256 -0.0445  0.0795
12337W        W28471   9.729  14.024  14.944  0.1032  0.3204  0.4257
12338W        W28472   4.473   4.761  15.487  0.1607  0.1301 -0.1303
12339W        W28473   0.955   9.071  14.718  0.1257  0.0488  0.0989
12340W        W28474   2.281  10.151   0.081  0.0201  0.1063 -0.0846
12341W        W28475   4.209  13.189   2.453 -0.1922  0.1433 -0.1551
12342W        W28476   6.987   2.557   0.899 -0.1785 -0.3120 -0.1130
12343W        W28477   3.740   4.536   2.025 -0.0804  0.0095 -0.0583
12344W        W28478   2.563  17.652   4.558  0.1083 -0.0633  0.0741
12345W        W28479  16.195   3.523  14.295 -0.0984  0.0616  0.0763
12346W        W28480   9.412  13.884  14.586 -0.0639  0.3192 -0.0216
12347W        W28481   8.491   0.010  15.042 -0.0449 -0.0971 -0.0547
12348W        W28482   4.531   8.246   3.056  0.0346 -0.0591 -0.0577
12349W        W28483  11.017  12.993  13.240 -0.1751  0.1952  0.0424
12350W        W28484   9.694  10.815  13.485  0.0366  0.1402  0.0363
12351W        W28485   3.197   5.783  11.260 -0.3447  0.1179 -0.2668
12352W        W28486  15.398  11.999   2.558 -0.0182  0.0192  0.0767
12353W        W28487  12.273   3.996   3.473 -0.2460  0.0002 -0.1401
12354W        W28488   2.186  12.657   4.470 -0.2017 -0.0199 -0.3989
12355W        W28489  14.590  14.643  16.502 -0.1599  0.0584 -0.0291
12356W        W28490   3.639   8.301   3.784  0.0257 -0.3297  0.3258
12357W        W28491  17.903   2.150   3.574  0.0276 -0.1530 -0.4614
12358W        W28492   5.311   1.858  14.454 -0.2120 -0.1438 -0.0970
12359W        W28493   5.859  16.919   1.534 -0.1760 -0.1668 -0.0247
12360W        W28494  17.896  17.153  15.169  0.0814  0.1841 -0.0763
12361W        W28495   6.892  17.665   1.798  0.2598  0.1158 -0.1527
12362W        W28496   1.424   5.162  13.972  0.2737  0.0901 -0.2118
12363W        W28497  15.519   0.668   1.589 -0.0937  0.4765 -0.1695
12364W        W28498   9.139  17.312   1.625  0.1770  0.0256  0.3602
12365W        W28499   8.967   1.179  14.544 -0.2788 -0.0290  0.0133
12366W        W28500   4.857   4.864   4.242  0.1827 -0.0765 -0.1660
12367W        W28501  11.601  14.608  13.169  0.1656  0.0274 -0.2866
12368W        W28502  15.231   5.473   2.621 -0.1425 -0.0637 -0.1696
12369W        W28503  10.112  16.748  12.992 -0.0559  0.0529 -0.1375
12370W        W28504   0.882   8.777   3.614  0.0073 -0.0436  0.0903
12371W        W28505   1.576   6.850  16.069 -0.4281  0.1592  0.0372
12372W        W28506  10.964  11.500   4.916  0.2479  0.1685  0.1640
12373W        W28507   6.946   1.236  15.305  0.0491 -0.0920  0.0838
12374W        W28508  12.443   6.228   3.519 -0.0288 -0.1929 -0.2580
12375W        W28509   0.509   7.845   3.777 -0.1985 -0.1822 -0.4477
12376W        W28510  11.962  13.787   5.629 -0.3340  0.0612 -0.0917
12377W        W28511   2.210  10.800   4.594 -0.0118 -0.1635  0.0443
12378W        W28512  13.571   3.799   3.934 -0.0266  0.0081 -0.0932
12379W        W28513   1.951  13.541   2.721  0.0102 -0.1501 -0.1489
12380W        W28514   4.520   2.055  13.956  0.1367  0.1185 -0.1000
12381W        W28515   8.151  11.819  13.020  0.0719  0.2958  0.1350
12382W        W28516  11.065  12.338  14.580 -0.1731  0.2126  0.1124
12383W        W28517   1.157   8.402  11.742  0.1292 -0.2306  0.1890
12384W        W28518   5.312   8.008  15.120 -0.0462 -0.3523  0.0527
12385W        W28519   3.040   5.677  15.764  0.1022  0.0060 -0.1131
12386W        W28520   9.756  10.667  12.584  0.0935 -0.4541 -0.0064
12387W        W28521   0.797   1.909   2.913 -0.0625 -0.2932 -0.1145
12388W        W28522   1.136   7.954  12.386 -0.1990  0.2898  0.1905
12389W        W28523   4.449  10.046  12.397 -0.0823 -0.1690  0.0827
12390W        W28524   4.096  10.524   2.953 -0.1808 -0.0056  0.2238
12391W        W28525   7.722  11.708   0.532 -0.0965  0.0088  0.0239
12392W        W28526  10.759   9.864  14.640 -0.2085 -0.2346  0.2547
12393W        W28527   1.482   8.909  15.498  0.1174 -0.0925 -0.0284
12394W        W28528  11.020   7.804  13.917 -0.0172 -0.2650 -0.0486
12395W        W28529   5.758   8.254   1.336 -0.0697  0.0904 -0.3819
12396W        W28530   7.942   8.176   4.309 -0.1723  0.0666  0.1911
12397W        W28531   9.397  11.321   3.476 -0.0013 -0.0875  0.1460
12398W        W28532   8.886  11.080  16.534  0.1823 -0.3340  0.1032
12399W        W28533  11.031  12.967   1.139 -0.0180  0.0082 -0.0292
12400W        W28534   8.393   6.380   0.971  0.3208  0.1177 -0.1739
12401W        W28535   6.963  15.736   5.000  0.0503 -0.0878 -0.1094
12402W        W28536   8.795  13.248   4.433  0.1155 -0.1054 -0.0554
12403W        W28537  12.750   4.474  13.724 -0.1234  0.4854 -0.0418
12404W        W28538  14.339  16.885  14.304  0.2223 -0.0164  0.0070
12405W        W28539  13.466   2.239  11.627  0.0767  0.1608 -0.0664
12406W        W28540  16.726   7.964  14.626 -0.1114  0.2401  0.0532
12407W        W28541  15.228  17.862   3.847 -0.3306  0.0950 -0.3617
12408W        W28542   5.898   0.830   3.295 -0.1226  0.0952  0.0469
12409W        W28543  17.659   1.571   4.806  0.1183  0.0843  0.0988
12410W        W28544   6.175  12.487   2.847  0.0349 -0.0920  0.1361
12411W        W28545   7.644   7.190  13.930  0.1434 -0.0605  0.0118
12412W        W28546  10.742  13.301   4.743  0.0606  0.0333 -0.2388
12413W        W28547   0.843  10.544   3.029 -0.0650  0.2924 -0.4112
12414W        W28548  10.390  10.353   3.204  0.3326  0.1060 -0.0617
12415W        W28549   9.823  16.070   4.299  0.1008 -0.1609 -0.1303
12416W        W28550   6.004  13.974  16.703 -0.1477  0.0991 -0.2212
12417W        W28551  13.954   2.811  14.558  0.0180  0.0550 -0.0575
12418W        W28552  15.850   1.555  13.411  0.0352 -0.1651  0.0726
12419W        W28553  16.662   8.849  16.700 -0.2495 -0.0413 -0.0381
12420W        W28554   1.369  16.655  13.864  0.0127 -0.0555  0.4905
12421W        W28555  13.997   6.214   1.954  0.0466 -0.0710 -0.0667
12422W        W28556  13.636  14.574   0.096  0.1582 -0.2895 -0.1940
12423W        W28557  11.932  17.564   0.827  0.0336  0.0271  0.0406
12424W        W28558   5.311  14.463  12.651 -0.1498 -0.1561 -0.1529
12425W        W28559   7.986   0.385  12.711 -0.0508 -0.0317 -0.2396
12426W        W28560   1.330   5.331  15.220 -0.1353 -0.1115  0.0744
12427W        W28561  12.921   2.149   3.593 -0.1005  0.1193  0.2586
12428W        W28562  14.989  12.103  11.305  0.1119 -0.0903  0.0113
12429W        W28563  11.211  12.425  14.026 -0.3340  0.0879  0.1010
12430W        W28564  14.239  17.841  15.231 -0.1399 -0.2879 -0.1751
12431W        W28565   5.866   1.569  11.548  0.1674 -0.0999  0.0864
12432W        W28566   6.750  17.874  15.441 -0.2345  0.2193 -0.2939
12433W        W28567   7.483  15.618  11.181 -0.0377 -0.1496  0.2243
12434W        W28568   1.823  14.152   0.467 -0.1516  0.1195 -0.0637
12435W        W28569  11.561   4.351  12.718 -0.0564  0.0689 -0.1022
12436W        W28570  17.578  17.240   3.342  0.1781 -0.1715  0.1245
12437W        W28571   0.421  13.849  13.559 -0.3240  0.1250  0.1146
12438W        W28572   5.605  13.994  14.627  0.1487  0.2549 -0.1883
12439W        W28573  15.428   2.063  15.929 -0.0396 -0.1926  0.2351
12440W        W28574   6.528   7.130  14.813 -0.1503 -0.1767 -0.0641
12441W        W28575  17.790   3.602   3.503 -0.0190 -0.0907  0.3288
12442W        W28576   3.585  13.835  14.290  0.0258 -0.1966 -0.1091
12443W        W28577   7.302  11.008   2.290 -0.0740 -0.3093 -0.2571
12444W        W28578   5.564  10.726   0.422  0.3549  0.0609  0.0741
12445W        W28579  10.310   2.267  13.486  0.0423  0.2537  0.1534
12446W        W28580   5.791   1.282  15.084  0.2382 -0.1341 -0.0408
12447W        W28581  16.718   9.354   1.878  0.3152  0.1827 -0.1620
12448W        W28582   8.912  13.391   0.923 -0.0294 -0.2854 -0.2130
12449W        W28583  16.910   3.473   4.544  0.0861  0.0952  0.0315
12450W        W28584  13.674   2.417  14.665  0.0132 -0.0283 -0.1909
12451W        W28585   7.467  13.412  12.759 -0.0709  0.3485 -0.0925
12452W        W28586  14.123  10.267  15.426 -0.0049  0.0021  0.0863
12453W        W28587   6.860  16.755   3.460  0.2555 -0.2718 -0.0839
12454W        W28588   2.506   4.507  16.615 -0.0646 -0.3427  0.0385
12455W        W28589   6.776   4.270   0.051 -0.0998 -0.1307 -0.2043
12456W        W28590  16.055   4.423  12.537  0.1629  0.3063  0.2562
12457W        W28591  14.653  15.342   1.137 -0.0377  0.2343  0.2481
12458W        W28592  17.949   0.951  12.247  0.0583 -0.1065 -0.1000
12459W        W28593   9.789   0.529   5.961  0.2825  0.1594  0.0659
12460W        W28594   4.822  16.625   1.354  0.0473  0.2396 -0.1174
12461W        W28595   6.650  11.505   1.903  0.1909 -0.2797  0.2100
12462W        W28596  15.270   6.322   0.959 -0.1392 -0.2961 -0.0215
12463W        W28597   3.751  17.659  12.901  0.1752  0.0135  0.2371
12464W        W28598  10.876   7.302  13.992  0.1352 -0.4270 -0.1135
12465W        W28599   2.899   4.665   4.593 -0.1528  0.2774  0.0202
12466W        W28600   1.587  10.411   1.967 -0.1791  0.0881 -0.0386
12467W        W28601   3.153  17.325   0.403 -0.1009 -0.0880  0.2107
12468W        W28602  16.594  17.669   0.899 -0.0069 -0.2019  0.1094
12469W        W28603   0.962  12.754   4.925  0.0652  0.1161  0.3270
12470W        W28604  10.954  13.713   4.520  0.0559  0.2280  0.1620
12471W        W28605   8.839   0.570  11.461 -0.0926  0.0372  0.1074
12472W        W28606   5.198  10.667   4.689 -0.0673 -0.0550  0.2160
12473W        W28607  16.063   5.810   3.040  0.1147  0.2623 -0.3298
12474W        W28608   3.211  12.719  15.020 -0.0521 -0.1076 -0.1651
12475W        W28609   1.024   7.396   5.307  0.1446  0.1827  0.0131
12476W        W28610   4.120  16.814  15.300 -0.0309 -0.0043 -0.1368
12477W        W28611  12.050   1.980   4.758 -0.0206 -0.1003  0.0422
12478W        W28612  16.420  11.610   2.015 -0.1120  0.3580 -0.1276
12479W        W28613  11.032   4.249  12.406 -0.1818 -0.2431  0.0563
12480W        W28614   5.899   5.993  14.485  0.1938 -0.3046 -0.1038
12481W        W28615   4.400   7.585  15.182 -0.2585  0.0476 -0.0101
12482W        W28616  10.217  12.955   0.239  0.0317  0.0142 -0.1106
12483W        W28617  15.225  16.580  15.331 -0.2035 -0.0562  0.0797
12484W        W28618  13.882   0.053   1.013  0.0250  0.0463 -0.0820
12485W        W28619  10.016   7.245   2.307 -0.1961  0.1105  0.2898
12486W        W28620  11.489   0.537   3.987  0.0199 -0.0825  0.0182
12487W        W28621  13.470   6.746   0.610 -0.0337 -0.2503  0.1063
12488W        W28622  10.984   8.781   5.077 -0.0620  0.1659  0.3784
12489W        W28623  15.466   1.490  14.775 -0.0696  0.4383 -0.1287
12490W        W28624   4.791  15.960  12.086 -0.0188 -0.0832 -0.1672
12491W        W28625   2.865  13.124   4.231 -0.0108  0.0811  0.3133
12492W        W28626   4.432   2.061   4.093  0.1558  0.0326 -0.0247
12493W        W28627   7.507  16.790   5.054 -0.2883  0.0527  0.1248
12494W        W28628   7.928   5.992   0.119  0.2293 -0.0175 -0.1648
12495W        W28629   7.773  14.337  14.814  0.0749 -0.2247  0.2055
12496W        W28630   0.545  16.440   1.414 -0.0371 -0.1012 -0.0930
12497W        W28631  13.786  11.473   2.436 -0.0378  0.0754 -0.0832
12498W        W28632   9.645  14.493   4.304  0.3405  0.0293  0.0811
12499W        W28633  10.654   4.982   4.355 -0.1550 -0.3393  0.0843
12500W        W28634   7.407  12.112   4.342 -0.0874 -0.0628  0.1053
12501W        W28635  17.881   8.134   0.600  0.1590  0.1210  0.1261
12502W        W28636   3.101   0.104   0.708 -0.2344  0.0633 -0.1231
12503W        W28637   1.877   6.702   5.566  0.0994 -0.0378 -0.2146
12504W        W28638   1.315  14.112  14.451 -0.0417  0.0344  0.0587
12505W        W28639  16.977   8.463  15.621 -0.3322 -0.1702  0.1457
12506W        W28640  17.110  17.031   5.733 -0.0485 -0.2640 -0.0035
12507W        W28641   8.055   3.705   6.252  0.1596 -0.3319  0.1707
12508W        W28642   9.407   3.854  10.504 -0.1786  0.2002  0.1433
12509W        W28643  14.297   8.743  13.640  0.0931 -0.0247  0.3051
12510W        W28644  10.701  14.417  12.695  0.0894 -0.1192  0.1718
12511W        W28645  12.833   4.383   0.786 -0.0575 -0.0374 -0.0392
12512W        W28646   6.449  12.728   4.180  0.1813 -0.0070 -0.1400
12513W        W28647   4.135  12.578   0.628 -0.3224  0.0924 -0.0789
12514W        W28648  15.637   3.468  15.300  0.1511 -0.0587 -0.2759
12515W        W28649   9.936  15.341  16.681 -0.0116  0.1165  0.0596
12516W        W28650   6.860   7.030  16.625 -0.1329 -0.2242 -0.0692
12517W        W28651  10.320  14.799   5.710 -0.0880  0.1618  0.0921
12518W        W28652   9.521   0.418  12.937 -0.2372 -0.2785 -0.3848
12519W        W28653  11.995   4.593  16.245  0.0113 -0.2505  0.2827
12520W        W28654  10.703   9.554   2.141  0.0043  0.2494 -0.3298
12521W        W28655   9.414  15.769  13.698  0.0476 -0.2241  0.1422
12522W        W28656   2.622   1.135  15.685 -0.0295  0.1341 -0.2209
12523W        W28657   6.271   8.220   4.760  0.3689 -0.0037 -0.0842
12524W        W28658   9.275  14.705  15.541 -0.1061  0.0363  0.1206
12525W        W28659  10.668  12.433   3.833  0.1472  0.0103  0.0915
12526W        W28660   9.008  16.174   0.890 -0.1412 -0.4936 -0.0915
12527W        W28661   1.845  16.305  11.818  0.0598  0.1853 -0.0081
12528W        W28662   9.698   2.555   0.854  0.0379  0.2322  0.0847
12529W        W28663   5.622   2.048   3.255 -0.3924  0.1478  0.3080
12530W        W28664   1.700   0.600  16.573 -0.0775  0.2271 -0.0689
12531W        W28665   2.953  16.527   2.481  0.0416 -0.1526  0.2708
12532W        W28666  11.777  17.323   1.788 -0.0064  0.1027  0.0287
12533W        W28667   1.254  14.693  11.705  0.0189  0.0517  0.2194
12534W        W28668   1.451  12.876   5.857 -0.0357 -0.0378  0.2129
12535W        W28669  14.874   4.039   2.098  0.0754 -0.0753 -0.0697
12536W        W28670   9.832   1.345   1.535  0.0316  0.2349 -0.0737
12537W        W28671   5.742  10.010   1.391  0.1453 -0.1340 -0.0919
12538W        W28672  11.561  15.844   4.562  0.0327  0.0943 -0.1000
12539W        W28673   8.696   1.696  15.373  0.1462 -0.0958  0.3510
12540W        W28674  10.961  13.339  14.663  0.2654  0.1606 -0.1966
12541W        W28675  11.674  14.554  13.776 -0.0968 -0.0957  0.0327
12542W        W28676   1.281   5.089   4.520  0.5485 -0.2236  0.0309
12543W        W28677  12.864  17.444   1.731 -0.3543  0.5150  0.0012
12544W        W28678   6.607  15.005   0.728  0.1740 -0.1000  0.0081
12545W        W28679   2.140   4.095   4.332  0.0849  0.4402 -0.0343
12546W        W28680   2.080  17.656   2.920 -0.1616  0.0707 -0.4522
12547W        W28681   1.226  13.408  13.343  0.1413 -0.1307 -0.2119
12548W        W28682   4.523  13.501   1.510 -0.0667  0.3859  0.1167
12549W        W28683   5.058   5.825  15.588 -0.0485 -0.0546  0.0957
12550W        W28684   4.143   3.228   2.164  0.2037  0.0880  0.2252
12551W        W28685   4.388   9.885   3.289 -0.1398  0.1582  0.0263
12552W        W28686   0.699   7.164  12.830  0.2241  0.2765 -0.2488
12553W        W28687   2.864  17.374  15.832  0.1317 -0.0975  0.0196
12554W        W28688  15.845  12.727  16.114 -0.1119  0.1665 -0.3076
12555W        W28689   6.060   2.044   3.597  0.1386  0.0700 -0.0575
12556W        W28690   7.327  16.287  13.590 -0.0237  0.0859  0.4091
12557W        W28691   7.441   1.917   3.669 -0.0756  0.1996  0.1180
12558W        W28692   4.391   0.392   1.898  0.2627 -0.1813 -0.0635
12559W        W28693  12.019   9.245   2.692  0.0302 -0.0623  0.0786
12560W        W28694   2.211  17.273   4.503  0.0326 -0.0544  0.1232
12561W        W28695  14.369  17.388  14.504  0.0864  0.0899 -0.2465
12562W        W28696  16.500   6.970  11.950 -0.0351 -0.1055 -0.1564
12563W        W28697  14.345  14.774  12.800 -0.0120  0.0351  0.0010
12564W        W28698  11.927  16.582   2.535 -0.0414  0.2067 -0.4269
12565W        W28699  10.587   0.579   3.907 -0.2496  0.1352 -0.3622
12566W        W28700   8.215  10.582   3.765 -0.1473 -0.1623  0.1185
12567W        W28701   8.701   3.064  13.418 -0.3585  0.1211 -0.3834
12568W        W28702   1.388  16.028  11.878 -0.2870  0.0653  0.0703
12569W        W28703   4.851  11.343  11.966  0.0312  0.0992 -0.0340
12570W        W28704   7.993   1.571  14.359 -0.0115  0.0472 -0.2843
12571W        W28705   7.557   8.053  11.942  0.3070  0.0500 -0.1517
12572W        W28706   0.381   6.941  13.243 -0.1608  0.0987  0.0226
12573W        W28707  10.654  12.229  15.519  0.3133  0.1419 -0.2518
12574W        W28708   1.951   6.272   5.274  0.0147 -0.1315  0.3511
12575W        W28709   3.869   1.781   5.732 -0.2432  0.2192  0.2210
12576W        W28710   0.557  11.990   0.138 -0.0316 -0.0547  0.0092
12577W        W28711   9.702  10.702   4.693 -0.0747 -0.0391  0.2601
12578W        W28712   8.881  10.797   1.319 -0.1770  0.2342  0.1445
12579W        W28713  15.883  14.834   5.608 -0.2018  0.3227 -0.1599
12580W        W28714  10.315   5.219   2.598 -0.1729  0.2758 -0.0236
12581W        W28715  13.519   0.813  12.132  0.0415 -0.1930 -0.0199
12582W        W28716  11.017   7.259   2.462  0.1048 -0.0283  0.0235
12583W        W28717   6.574   4.645   3.820  0.1743 -0.0196 -0.1676
12584W        W28718   6.006   0.059   0.357 -0.4160  0.2925 -0.1952
12585W        W28719  13.153   0.739   2.416 -0.1063 -0.2208 -0.1010
12586W        W28720  15.250   8.932   3.250 -0.0306 -0.1560  0.1628
12587W        W28721  15.245  12.238   1.368 -0.4459  0.1301  0.0131
12588W        W28722   3.606  16.258   1.291 -0.3828 -0.0049  0.0987
12589W        W28723  14.371   5.993   3.265  0.0439  0.2500 -0.1028
12590W        W28724  15.569   1.973   1.822  0.1783 -0.0174  0.1288
12591W        W28725  13.024  15.602   1.790 -0.2277 -0.1753 -0.1291
12592W        W28726  16.485  15.904   2.745 -0.0644 -0.1098 -0.2651
12593W        W28727   2.844   9.278  16.659 -0.1622 -0.4384 -0.1821
12594W        W28728  12.880  12.730   0.201 -0.0709  0.0511 -0.0306
12595W        W28729  11.999   4.246   0.217 -0.2281  0.0683  0.1817
12596W        W28730   0.299  16.954   2.763 -0.1204 -0.2489 -0.2866
12597W        W28731   1.881  13.810  12.688 -0.0901  0.0641 -0.1122
12598W        W28732  10.484  12.924   2.213  0.1966 -0.1607 -0.2182
12599W        W28733   9.495   5.680   2.205 -0.2366 -0.0342  0.3707
12600W        W28734  11.294  17.888  12.889  0.0478 -0.0610 -0.0932
12601W        W28735   2.832   5.682   4.126  0.1939  0.0057 -0.2649
12602W        W28736   9.095  17.475  15.482  0.4196  0.1340  0.0213
12603W        W28737   3.872   6.991  13.134 -0.0680 -0.0433 -0.1983
12604W        W28738  13.149  10.889  15.494 -0.1322 -0.0005 -0.2510
12605W        W28739   5.475   4.262  11.382 -0.1359 -0.2028  0.2959
12606W        W28740  13.219  13.551  16.566  0.1668  0.1023 -0.0979
12607W        W28741   7.254  14.328  13.852 -0.0508 -0.1943  0.0503
12608W        W28742   3.902  14.552  11.591 -0.0159 -0.1063  0.3023
12609W        W28743  10.653   6.061  14.962 -0.0433 -0.2571  0.1464
12610W        W28744  17.599   9.755  13.881 -0.4129 -0.3886 -0.1240
12611W        W28745   6.664   6.476  12.428 -0.2714  0.1937 -0.2345
12612W        W28746   8.324   8.662   2.191 -0.1266  0.0472 -0.0556
12613W        W28747  15.718  15.581   2.702 -0.3061  0.2553 -0.0817
12614W        W28748   2.264   6.653   3.029 -0.0190 -0.2973 -0.3882
12615W        W28749   8.753  17.023   1.877  0.2202  0.0716 -0.1268
12616W        W28750   4.486   8.094  15.255  0.0233 -0.0464 -0.0060
12617W        W28751   5.050  17.531  14.562  0.1534 -0.0674 -0.0539
12618W        W28752   9.685   9.405   1.383 -0.2222 -0.1961 -0.1678
12619W        W28753   1.440   6.263   3.774 -0.1056 -0.4064 -0.0960
12620W        W28754   7.228  11.954   6.082  0.1996  0.1379 -0.1674
12621W        W28755  12.316  17.367   1.591 -0.0273 -0.2704  0.1103
12622W        W28756   6.007  13.099   3.499  0.2445 -0.0595 -0.3011
12623W        W28757   2.677   2.916   5.785 -0.0721 -0.0590 -0.0679
12624W        W28758   0.061   8.021  14.092 -0.2419  0.2262  0.3018
12625W        W28759  16.772   0.736   3.496  0.2776  0.0669 -0.0579
12626W        W28760  13.215   9.941   0.980 -0.1960  0.4043  0.0308
12627W        W28761  14.887   5.712  14.821  0.2034  0.0823 -0.0863
12628W        W28762   8.703  17.144   5.792  0.2093  0.0045  0.1961
12629W        W28763  16.092  17.525   1.465 -0.0634  0.0738 -0.0314
12630W        W28764  12.013  17.730   1.395  0.0274  0.0680  0.3626
12631W        W28765  17.566  16.892  14.314 -0.0378  0.1186  0.2619
12632W        W28766   8.662   9.024   1.587 -0.2558 -0.1615  0.0702
12633W        W28767  17.303   7.758  13.747 -0.0017  0.0134 -0.1834
12634W        W28768  13.043  14.874   3.634  0.2254 -0.1592 -0.0919
12635W        W28769  17.401  11.097   6.411  0.1103 -0.1288  0.0495
12636W        W28770   1.400   3.795  11.645  0.0850 -0.2033  0.3057
12637W        W28771   7.846   3.433   4.286 -0.0820 -0.1678 -0.1407
12638W        W28772   8.239   3.947  13.362 -0.0332  0.0453 -0.2066
12639W        W28773   3.824  12.719   2.579  0.1252  0.1243 -0.1439
12640W        W28774  17.309   9.520   5.026  0.2073 -0.0038 -0.2966
12641W        W28775   0.908  15.545   4.746  0.1464  0.1164  0.2700
12642W        W28776  13.916   6.624  11.513  0.1610 -0.5838  0.1292
12643W        W28777   3.178  15.351   2.977 -0.0949  0.1256 -0.3016
12644W        W28778   0.880  17.496  13.495  0.0388  0.4212  0.1877
12645W        W28779  12.729   1.514  11.778  0.1976  0.0644  0.3177
12646W        W28780  13.817   2.684  16.624  0.1666  0.1425 -0.1308
12647W        W28781   9.869   9.808  14.854  0.0549 -0.3149  0.2832
12648W        W28782   6.788  12.629  14.762  0.3957  0.1486 -0.0136
12649W        W28783   7.422   8.125   5.023  0.0710 -0.0536  0.2101
12650W        W28784   5.281   6.202   0.926  0.1579 -0.2694 -0.1089
12651W        W28785  11.936   4.453  15.540 -0.1158 -0.0660 -0.4292
12652W        W28786   8.278   1.111   3.114 -0.2266 -0.0565 -0.0437
12653W        W28787   1.440  11.191   4.033  0.0141  0.1353  0.1398
12654W        W28788   2.888   4.137  15.053 -0.2098 -0.2333  0.2780
12655W        W28789   2.782  16.327  15.812 -0.1326 -0.1713 -0.1504
12656W        W28790  17.909   2.904   2.355 -0.2007  0.2370 -0.1897
12657W        W28791   7.755   5.841  14.574  0.0457  0.2121 -0.1323
12658W        W28792   2.711   6.766  12.684  0.0230 -0.2504  0.1465
12659W        W28793  16.004  12.217   1.791 -0.1034  0.2254 -0.0436
12660W        W28794   6.740   9.510   3.577 -0.2723 -0.1517  0.1008
12661W        W28795  10.428  13.944  11.183 -0.2548 -0.1521 -0.2721
12662W        W28796  14.164   8.159  14.399  0.1426  0.2073  0.1040
12663W        W28797   1.587   3.857   5.896 -0.1454 -0.0989  0.0167
12664W        W28798   2.417  10.184  10.912 -0.1317  0.1799  0.0017
12665W        W28799   1.745   2.471  11.758 -0.0688  0.1468 -0.0540
12666W        W28800   1.500   2.257   3.835  0.1819 -0.0186  0.0216
12667W        W28801   2.901   6.487   2.581  0.0879  0.0666  0.2498
12668W        W28802   9.261   1.695   3.951 -0.0780  0.1161 -0.0230
12669W        W28803   4.668  16.932  11.078 -0.1414 -0.0030  0.3201
12670W        W28804  15.068  10.800  14.351  0.0706 -0.0310  0.0341
12671W        W28805   0.387  11.332  14.119 -0.0516  0.1757 -0.4484
12672W        W28806   7.410   3.987   3.665  0.0511  0.0340  0.2544
12673W        W28807   7.724   0.697   0.890 -0.4600  0.1826 -0.1878
12674W        W28808  17.248   8.870  13.126  0.0367  0.4205 -0.1358
12675W        W28809  14.725   7.769  14.761 -0.0894 -0.2030 -0.1832
12676W        W28810   1.499   2.218   2.327 -0.2763 -0.0183  0.2690
12677W        W28811   1.667  10.913   3.262  0.1066 -0.2179 -0.1362
12678W        W28812  14.677   8.006   2.952 -0.0777 -0.1691  0.3716
12679W        W28813   1.693   5.000  11.455  0.0229  0.2203 -0.0142
12680W        W28814   5.915   4.008   5.624 -0.0332  0.0715  0.1542
12681W        W28815  11.065  13.377   1.439  0.2210  0.0299  0.0265
12682W        W28816  13.538  17.703  15.720  0.0435  0.0265 -0.0730
12683W        W28817   2.900   2.485   5.573  0.1370  0.0285 -0.1357
12684W        W28818   2.900   7.089  13.445  0.0627 -0.0800  0.0292
12685W        W28819   1.919  11.895   3.263 -0.0892 -0.0696 -0.1235
12686W        W28820   1.200   8.863  13.281 -0.1430  0.0493 -0.0066
12687W        W28821   9.263  16.627  15.061  0.0739  0.0384  0.2656
12688W        W28822   6.452   8.903   1.831  0.0589 -0.2851  0.0550
12689W        W28823   2.040   8.055  11.444  0.0803  0.0404  0.1476
12690W        W28824  16.642  10.265  15.927 -0.2062  0.1466 -0.0184
12691W        W28825   3.360   5.161  16.046  0.0395  0.2602 -0.1588
12692W        W28826  15.236   5.765   1.828  0.2300  0.0707 -0.1307
12693W        W28827   7.242  14.470   0.683 -0.0338  0.0733  0.1370
12694W        W28828   4.860  15.719  14.761  0.2788  0.3994 -0.1651
12695W        W28829  15.166  17.323   0.885 -0.1562 -0.1566  0.1086
12696W        W28830   3.085   5.332  13.158 -0.1961 -0.3340  0.1837
12697W        W28831   9.419  10.110   1.925 -0.0780  0.0441  0.0290
12698W        W28832   3.247  12.640   0.610 -0.2482  0.1527 -0.1421
12699W        W28833   5.123  13.537  12.113 -0.1986 -0.0841  0.0559
12700W        W28834   1.169   6.284  11.567  0.4166 -0.0705  0.2201
12701W        W28835  13.693   9.867  12.985 -0.3684 -0.1020 -0.0687
12702W        W28836   3.478  13.254  11.600  0.1479 -0.1795 -0.1824
12703W        W28837   0.764   6.528   0.123  0.0294 -0.1074 -0.2148
12704W        W28838  16.753  12.777   4.246  0.0244  0.0538 -0.0511
12705W        W28839  13.204   4.231   3.810 -0.2621 -0.1593  0.4500
12706W        W28840  15.796  12.544  15.447 -0.0580  0.5450  0.0285
12707W        W28841   8.334  10.233   2.510  0.0952  0.1568  0.2159
12708W        W28842   5.216   1.128   1.981  0.1828  0.3698  0.2540
12709W        W28843  10.424  12.897   4.689  0.1633  0.1868  0.2629
12710W        W28844  17.960  10.190   2.551  0.4590  0.1201  0.0581
12711W        W28845   2.333  12.971   4.903 -0.0304 -0.0560  0.2589
12712W        W28846   1.583   6.682  14.487 -0.2100  0.1710  0.0259
12713W        W28847  17.853  16.537   5.003 -0.1635 -0.0323 -0.0893
12714W        W28848  13.591   7.906  14.514  0.0835 -0.0574  0.0295
12715W        W28849   4.038  15.020   4.552 -0.2156  0.1347 -0.0361
12716W        W28850   4.266   1.040  14.185  0.0412 -0.1085 -0.3122
12717W        W28851  11.330   1.344  11.622  0.0766  0.2797 -0.0228
12718W        W28852   4.887  15.542   2.101 -0.0843  0.1108  0.1668
12719W        W28853   8.600   8.405  13.819  0.1344  0.1532  0.1357
12720W        W28854  17.403  16.299   1.189  0.6184  0.0087  0.0451
12721W        W28855   2.680  11.525  14.763 -0.2526 -0.0151 -0.0780
12722W        W28856  13.025   1.546  16.239  0.0238  0.0505  0.0059
12723W        W28857   0.494  16.965  12.480 -0.1302  0.0033  0.0531
12724W        W28858  12.083  16.004  14.206  0.0548  0.0928  0.3059
12725W        W28859   7.646   5.452   1.418  0.1584  0.3327  0.0681
12726W        W28860   9.148   9.637  12.300 -0.1790  0.2264  0.2176
12727W        W28861  15.285   1.880   1.324  0.2581  0.1141  0.0041
12728W        W28862   7.296  13.687  16.419 -0.1299 -0.0619 -0.1081
12729W        W28863   4.809   1.444  15.204 -0.3321  0.1071  0.2234
12730W        W28864   4.178   1.221   4.750 -0.1223  0.0316  0.3960
12731W        W28865  13.297  15.991   1.504 -0.0033  0.0048  0.1492
12732W        W28866   7.874   9.356  15.414  0.2845 -0.1172  0.2325
12733W        W28867   4.732   4.827   2.353  0.2729  0.1271  0.2142
12734W        W28868  10.531  16.776   4.220 -0.2256 -0.2793  0.2223
12735W        W28869  15.384   0.314   2.276 -0.0057 -0.0098 -0.0734
12736W        W28870  10.626  17.459  13.629  0.1426 -0.3365 -0.0894
12737W        W28871   8.455   9.095  11.539  0.2557  0.1308  0.0019
12738W        W28872   2.415  16.006   2.215  0.0871 -0.1680  0.1296
12739W        W28873   5.554   0.858  14.850 -0.0532 -0.1750  0.2313
12740W        W28874  11.236  10.962  16.086 -0.1074  0.2855  0.0860
12741W        W28875   7.279   0.597  12.097  0.2035 -0.0593  0.0976
12742W        W28876   5.780  16.400   4.736 -0.3203 -0.1182  0.1196
12743W        W28877   7.181   6.302  11.441 -0.1675  0.1697 -0.1017
12744W        W28878  16.249  12.470  14.201 -0.0242 -0.0007  0.1575
12745W        W28879   5.157  12.390   3.713 -0.1039  0.0709 -0.0792
12746W        W28880  14.392   0.162   1.106  0.1507  0.0267  0.0852
12747W        W28881  15.611  17.728  14.865  0.1586  0.0423  0.1027
12748W        W28882   4.405   5.906  14.243  0.0128 -0.0553  0.1450
12749W        W28883   6.923  17.015   2.378  0.1726  0.4513  0.3497
12750W        W28884  14.819   5.707   1.471 -0.1316 -0.0988  0.1434
12751W        W28885  14.277   9.366   4.639  0.0251  0.1051 -0.0917
12752W        W28886  10.458   2.490   0.405  0.1052  0.3779 -0.2451
12753W        W28887  17.487   5.060  11.474 -0.0241 -0.2396  0.0488
12754W        W28888   3.013  12.800   3.830 -0.0956 -0.1320 -0.1152
12755W        W28889  13.362  10.865  14.213  0.2022 -0.1476 -0.2344
12756W        W28890   7.213  12.019  12.322 -0.0857  0.2452 -0.1243
12757W        W28891  17.242  13.928   0.337 -0.0922 -0.0595 -0.0855
12758W        W28892   2.842  17.837  11.741  0.0410 -0.0125 -0.0297
12759W        W28893   2.883  15.841   4.656 -0.1532  0.0980 -0.0794
12760W        W28894   9.892  14.933  14.342 -0.0938 -0.0545  0.1506
12761W        W28895  15.539   3.876  12.588  0.3516 -0.2788  0.0937
12762W        W28896   7.392   8.295   1.861  0.0112 -0.0278 -0.0606
12763W        W28897  10.853   8.558   2.288  0.2445 -0.2031  0.1539
12764W        W28898  11.706   5.654   5.385 -0.1923 -0.0141  0.0351
12765W        W28899  17.484  12.072   3.374 -0.1515  0.0635  0.0193
12766W        W28900  11.419  17.686   5.393 -0.1477  0.0070  0.2994
12767W        W28901   8.073   2.965  15.383 -0.0490  0.2997  0.1269
12768W        W28902   8.867  11.060   4.383  0.2669 -0.3391  0.0100
12769W        W28903  16.963   8.649  11.908  0.0607 -0.1324  0.4000
12770W        W28904   7.308   3.358   1.549 -0.1919  0.2533  0.2061
12771W        W28905   3.969   2.651  15.354  0.0051  0.2386 -0.1635
12772W        W28906   7.047   6.190  16.256  0.2758  0.3077  0.0245
12773W        W28907  11.207   2.207   5.143  0.1351 -0.0266 -0.1741
12774W        W28908  16.236   8.348   3.156 -0.1882  0.1630 -0.0833
12775W        W28909   0.736   3.699   1.586 -0.1007  0.1700 -0.4293
12776W        W28910   5.108  10.325   0.224 -0.0883  0.0473 -0.1650
12777W        W28911   3.367   8.152   2.751  0.2732  0.0187 -0.0668
12778W        W28912  12.202   6.782   3.263  0.1911  0.2201  0.0162
12779W        W28913   1.205   6.413  14.724 -0.0132  0.0889  0.0282
12780W        W28914  15.857   4.622  11.560  0.1954 -0.0886 -0.0901
12781W        W28915   3.135  15.132   2.027 -0.1307 -0.1948 -0.0043
12782W        W28916  13.006   5.409  16.197  0.0994 -0.0554  0.1297
12783W        W28917   6.583  16.299  16.723  0.0228  0.3405 -0.1905
12784W        W28918  14.424   3.870   2.765 -0.0423 -0.0746  0.1440
12785W        W28919   8.162   8.724  11.777 -0.0706 -0.0715  0.1933
12786W        W28920   5.307   1.683   3.682  0.1378 -0.0535  0.1136
12787W        W28921   6.403   2.441   0.055 -0.2119  0.2076  0.0783
12788W        W28922  17.325   9.399   0.993 -0.2599 -0.0556 -0.0506
12789W        W28923  12.269  11.030   3.445  0.3292  0.1303  0.0222
12790W        W28924   6.002   3.652  13.635  0.1803  0.1545  0.0599
12791W        W28925   5.644   3.510  12.034  0.1665  0.2029 -0.2318
12792W        W28926  15.520   2.151   3.441  0.2454  0.3070 -0.0002
12793W        W28927   1.037  11.539   1.735 -0.2440  0.0023 -0.1701
12794W        W28928   1.056   0.604   5.914  0.0337  0.1303  0.1069
12795W        W28929   0.188  15.083   0.547  0.0324  0.0741  0.0292
12796W        W28930  17.575   8.011   3.474 -0.1770 -0.1004 -0.0589
12797W        W28931   8.097  13.195   0.620 -0.0210 -0.0825  0.2644
12798W        W28932   5.558  14.058  15.953  0.3877  0.2446  0.1373
12799W        W28933   0.367  16.664  12.100 -0.0635  0.0033  0.4045
12800W        W28934   7.419   9.910   2.861  0.0580 -0.1788  0.1343
12801W        W28935   0.707   0.422  14.318  0.1754 -0.0232  0.0944
12802W        W28936   3.574   0.262  16.477  0.1073 -0.2622  0.2551
12803W        W28937   2.927   4.856  13.164 -0.4373  0.1135  0.1560
12804W        W28938   7.532  11.184   4.024 -0.2018 -0.3055  0.0236
12805W        W28939   6.491   3.438  11.936  0.0633  0.1981  0.0820
12806W        W28940   1.201   2.657  14.096  0.1539 -0.0348 -0.0876
12807W        W28941   9.679  15.034  12.633  0.1444 -0.0362 -0.0085
12808W        W28942  14.460  16.236  15.857  0.2585  0.1610 -0.1472
12809W        W28943   5.345   4.565  11.754 -0.0351 -0.1500  0.1816
12810W        W28944  15.914   5.372   1.487  0.2291  0.6986 -0.1185
12811W        W28945  13.247  11.486  15.358  0.2760  0.1524 -0.3933
12812W        W28946   7.178   0.826   2.330 -0.2010  0.0208 -0.3367
12813W        W28947   0.879  17.511   1.359  0.2519 -0.6204 -0.1058
12814W        W28948   2.236   8.798  11.624 -0.2001  0.0615  0.0064
12815W        W28949   9.825   3.464  15.967 -0.1705 -0.0432  0.1663
12816W        W28950   3.077   2.405  11.709  0.2563  0.0297  0.0583
12817W        W28951   1.930  14.191  12.291  0.0275  0.0255 -0.0832
12818W        W28952  11.588  14.577  14.284  0.1069 -0.1374 -0.1285
12819W        W28953  10.083  14.761  15.339 -0.0417 -0.1132 -0.2057
12820W        W28954   9.922   0.974  12.350  0.0099 -0.0425 -0.0665
12821W        W28955   5.653  16.933   2.484 -0.2220  0.1488  0.0846
12822W        W28956   4.243  17.866   5.044  0.0157 -0.4046  0.0722
12823W        W28957   3.650  13.787  15.912  0.2399  0.0824 -0.0318
12824W        W28958  10.111  16.216   2.871 -0.1267  0.0674  0.1686
12825W        W28959  17.034   5.356  11.193  0.0704 -0.2137  0.0947
12826W        W28960   2.990   8.377   2.472 -0.1983  0.2139 -0.3746
12827W        W28961   0.298   7.659  11.596 -0.0054  0.0745  0.0839
12828W        W28962  10.942   6.801   2.079 -0.1529  0.0073 -0.0165
12829W        W28963  10.164  16.594   5.004 -0.0881  0.0786 -0.1376
12830W        W28964   4.798  13.806  15.174  0.3083 -0.2058 -0.4464
12831W        W28965  12.303   6.924   0.078 -0.1593 -0.1763  0.0451
12832W        W28966   1.888  11.935   5.580 -0.0557 -0.1869 -0.2386
12833W        W28967  15.024   6.933   5.087  0.1066 -0.5265 -0.1672
12834W        W28968   6.627  10.110  11.954  0.1517 -0.1085  0.0471
12835W        W28969  17.611  12.543   5.950 -0.0711  0.0066 -0.0380
12836W        W28970   5.836  17.862  11.948  0.1594  0.1562 -0.0138
12837W        W28971   1.614   5.046   2.802  0.1794 -0.1881 -0.1217
12838W        W28972   1.268   7.311   6.219 -0.2068  0.3235 -0.2325
12839W        W28973  15.672   3.061   3.241 -0.0338 -0.2457  0.2366
12840W        W28974  16.576  11.121  15.420  0.1889  0.1218  0.2248
12841W        W28975   7.141   2.947   3.708 -0.1197 -0.2333  0.3211
12842W        W28976  13.934   0.120  14.020 -0.0231  0.1051  0.1385
12843W        W28977  13.561   1.428   3.453 -0.1067 -0.0099 -0.0966
12844W        W28978  17.719  15.926  15.939  0.3117  0.2805 -0.0669
12845W        W28979   2.681   0.212  16.238 -0.2679  0.4424 -0.2397
12846W        W28980   7.801  15.829   5.003  0.0337 -0.2554  0.1104
12847W        W28981   1.767   8.244   1.252 -0.0254 -0.0750  0.1306
12848W        W28982  14.879  17.782  16.221  0.2068 -0.1822 -0.0272
12849W        W28983   2.317  13.131  11.878  0.0475  0.1071  0.2090
12850W        W28984  13.761   8.962   5.297  0.1782  0.1685  0.1040
12851W        W28985   7.238  16.739   5.517  0.3796  0.0236 -0.2043
12852W        W28986  11.435   1.299  14.055  0.2622  0.0473  0.1271
12853W        W28987  10.783   3.426   5.107  0.0190 -0.1707 -0.1824
12854W        W28988   5.445   8.890  13.866 -0.2095  0.3883  0.1397
12855W        W28989   9.810   0.283  12.409  0.2090 -0.0687  0.2476
12856W        W28990   0.924  10.375  14.118  0.0698 -0.1852  0.0444
12857W        W28991  15.422   7.049   3.058 -0.0745  0.5187 -0.2205
12858W        W28992   9.210  17.939   0.285 -0.1666  0.0645 -0.0694
12859W        W28993   2.734  17.109  13.642 -0.2230 -0.0377  0.0428
12860W        W28994  12.272  11.379   3.763 -0.2873  0.2148 -0.1794
12861W        W28995   8.900   6.601  15.566  0.5826  0.2565 -0.0956
12862W        W28996   7.443  12.067  13.775  0.0895  0.0344  0.2567
12863W        W28997   3.344   8.332  16.150  0.0140  0.2370 -0.0172
12864W        W28998   7.728   6.996   4.618  0.1475 -0.0288 -0.2898
12865W        W28999  16.898   3.189  13.746 -0.2568  0.0178 -0.3200
12866W        W29000  12.229   9.584  15.769  0.1781 -0.0069 -0.2038
12867W        W29001  17.419   3.159  11.382 -0.2621 -0.2826  0.1501
12868W        W29002  10.880   1.998   6.756  0.1220 -0.0162  0.3118
12869W        W29003   3.011   8.108   5.506 -0.0758 -0.2913  0.1142
12870W        W29004  11.288  12.742  15.368 -0.0312  0.1943 -0.0723
12871W        W29005  12.894   2.837  16.329 -0.1879 -0.0688 -0.2355
12872W        W29006   8.446   3.154   1.893  0.1562  0.1735 -0.0099
12873W        W29007   4.167  10.227  11.549 -0.1526  0.0974 -0.1300
12874W        W29008  14.195   9.128  12.799  0.1486  0.0587  0.1725
12875W        W29009  14.892  10.494   4.818 -0.1540 -0.0763  0.0736
12876W        W29010  12.722  12.356   1.013 -0.1838 -0.2881 -0.2489
12877W        W29011  10.382   8.530   4.325 -0.0029 -0.1066 -0.1079
12878W        W29012  11.805  13.055  11.621 -0.0775 -0.1381  0.2703
12879W        W29013  16.349   4.723  11.671 -0.2485  0.1476 -0.0274
12880W        W29014  10.435   4.625   5.888  0.1638 -0.0863  0.2278
12881W        W29015   5.928   1.354  12.329  0.1616 -0.1173  0.1126
12882W        W29016   8.611   3.668  14.528  0.1998  0.2209 -0.2587
12883W        W29017   8.152   6.553   3.444 -0.0559  0.1017  0.2681
12884W        W29018   7.573   2.779   2.136 -0.0919  0.0696 -0.0390
12885W        W29019   8.977   0.026  15.159 -0.2316  0.0063  0.1994
12886W        W29020   5.461   7.998  13.774 -0.0122  0.1281  0.4126
12887W        W29021  14.639   0.264  12.714 -0.2864 -0.1854 -0.1155
12888W        W29022  17.052  15.180   1.319 -0.1678  0.1521 -0.0006
12889W        W29023   9.248   0.359   1.216 -0.2238  0.3310 -0.1519
12890W        W29024   4.113   9.979   5.026  0.4102 -0.0531  0.4698
12891W        W29025  15.769  17.946   4.256  0.1367  0.1242 -0.1235
12892W        W29026   3.148   3.918  12.499 -0.2342 -0.1469 -0.0483
12893W        W29027  11.241   5.944  11.722 -0.0164 -0.0265  0.1357
12894W        W29028  14.720  15.717  13.902  0.2465  0.3843 -0.1366
12895W        W29029  14.248  11.946  12.766  0.1330 -0.1090 -0.0659
12896W        W29030   9.629  15.153  10.987 -0.4592 -0.0284  0.0793
12897W        W29031   5.984  14.458   4.737 -0.2084  0.3179 -0.3612
12898W        W29032  16.509  11.549   5.122  0.0615  0.2788  0.0721
12899W        W29033   7.703  14.814  13.242 -0.1374  0.0580 -0.1391
12900W        W29034   5.300   9.312   5.162  0.1991  0.0670  0.0417
12901W        W29035  13.191  17.711  12.214 -0.1001 -0.2921 -0.0743
12902W        W29036   2.695   8.902  11.553 -0.0515  0.2209 -0.2220
12903W        W29037   9.847   8.181   0.264 -0.1434  0.0203  0.0664
12904W        W29038  14.228   5.182   4.984 -0.1543 -0.1085 -0.0447
12905W        W29039  13.028  14.773  12.169  0.2062  0.2480 -0.1193
12906W        W29040   4.040   0.163  13.306 -0.2700  0.1556 -0.0148
12907W        W29041   9.519   9.774  13.590  0.3313 -0.1391  0.0285
12908W        W29042   2.239  11.624   5.222 -0.1453 -0.2457 -0.1757
12909W        W29043   0.095   7.597   0.949 -0.1205 -0.0923  0.1689
12910W        W29044   9.458  16.329   2.941 -0.0213  0.0075  0.3347
12911W        W29045  11.035  13.219  12.828 -0.0515  0.0583 -0.0800
12912W        W29046   8.928  17.159  14.024 -0.1017  0.0355 -0.3059
12913W        W29047  11.877   9.897   1.895  0.1192 -0.1826 -0.3560
12914W        W29048   5.286   8.191   0.633 -0.3203 -0.0854  0.1726
12915W        W29049   3.669   5.986   2.941 -0.1434 -0.3978  0.0928
12916W        W29050   3.581   8.906  11.657 -0.1879 -0.3416  0.0175
12917W        W29051  16.525  10.400  14.186  0.5045  0.0854 -0.0351
12918W        W29052  13.968   2.029   5.349 -0.0861  0.3205 -0.2917
12919W        W29053  10.381  14.900  12.075 -0.0626 -0.0690  0.1645
12920W        W29054  11.679  11.950   5.598 -0.1106 -0.2162 -0.3235
12921W        W29055   5.397  11.503   5.760 -0.1707  0.1291  0.1527
12922W        W29056  10.293   7.697   2.004 -0.2834 -0.0193 -0.2552
12923W        W29057  13.994   2.511   3.317  0.0993  0.0913  0.3096
12924W        W29058  12.674  15.432  14.487  0.0138  0.0545 -0.0202
12925W        W29059   9.990   8.541   1.170  0.0313  0.1717 -0.2875
12926W        W29060  14.505  13.706   2.075  0.1259 -0.1575  0.0111
12927W        W29061   3.365  14.377  16.601 -0.2479  0.0877 -0.0428
12928W        W29062   4.647   7.336   4.790 -0.3011  0.0463 -0.0638
12929W        W29063   4.173   4.259   4.296 -0.3904  0.0245 -0.2157
12930W        W29064  13.182   4.746   0.778  0.0725  0.0329 -0.0395
12931W        W29065   9.913  16.749  16.449  0.1152  0.4119  0.1635
12932W        W29066   9.082   4.212   0.329  0.0473 -0.0964  0.3456
12933W        W29067  17.603  14.205  11.944  0.1776  0.0170 -0.2287
12934W        W29068   1.623   8.457  15.691 -0.2631 -0.0630 -0.3551
12935W        W29069  15.896   3.981   3.819 -0.3239  0.0667 -0.0957
12936W        W29070   4.901  13.721  13.431  0.0924 -0.1558  0.3025
12937W        W29071   8.943   6.716   2.984  0.1416  0.0335 -0.0565
12938W        W29072   9.417  17.009  14.157 -0.1805  0.1743  0.3298
12939W        W29073  12.829  14.515   3.979 -0.0901  0.1030 -0.0633
12940W        W29074   6.176   4.117  11.837 -0.0862 -0.1673 -0.0065
12941W        W29075  17.751  10.318  16.114 -0.1461 -0.1501  0.2347
12942W        W29076   9.051   6.130  15.633  0.1829  0.0343  0.1832
12943W        W29077   5.764   9.016  12.023  0.3139 -0.3636  0.1246
12944W        W29078  16.757  16.126   0.498 -0.1000 -0.1537 -0.1118
12945W        W29079   3.985   5.711   0.997  0.2092 -0.3567  0.0835
12946W        W29080   3.638   9.105  13.068 -0.0221  0.1689  0.0832
12947W        W29081   1.373   9.260  14.881 -0.1285  0.0091 -0.1613
12948W        W29082   1.413   6.414   2.182 -0.1486 -0.1655 -0.0905
12949W        W29083   7.605  15.180   3.926 -0.0329  0.3260  0.2952
12950W        W29084   0.973   2.900   1.071 -0.2054 -0.0489  0.0261
12951W        W29085  14.771   4.795  12.961  0.2718 -0.2714 -0.1408
12952W        W29086   5.729  10.037  12.176 -0.0284  0.1615 -0.2150
12953W        W29087  13.443  12.865   4.195 -0.1839  0.2219  0.0221
12954W        W29088   1.423   2.842  12.030  0.1178  0.0417  0.2582
12955W        W29089   5.783  12.723   2.285  0.0689 -0.1425 -0.0581
12956W        W29090   0.040  15.236   1.564  0.2060  0.1617  0.0781
12957W        W29091  12.623  14.985   4.279 -0.0657  0.0580 -0.1551
12958W        W29092   9.135  14.691  11.572  0.2105 -0.1100 -0.1550
12959W        W29093   8.494  17.898   5.534 -0.2163 -0.0891 -0.2470
12960W        W29094   0.871  16.368  16.458 -0.0581 -0.2052 -0.1951
12961W        W29095  16.012   2.440  16.053  0.0195  0.3413  0.0969
12962W        W29096  15.392   5.300  13.662 -0.2143  0.2596 -0.1450
12963W        W29097   6.448  15.267  11.821  0.1655 -0.1017 -0.4738
12964W        W29098   1.915   5.158   0.307  0.1989 -0.1609 -0.0557
12965W        W29099   8.107  16.306   2.751  0.2268 -0.1948 -0.1089
12966W        W29100   0.597   5.445   0.614  0.2076 -0.0356  0.0781
12967W        W29101   3.251  17.759  14.215  0.0868  0.0853  0.0344
12968W        W29102   9.122  17.765   1.867 -0.0443  0.1036 -0.0197
12969W        W29103  10.386   0.689   0.573 -0.3804  0.0571  0.0382
12970W        W29104   7.544   7.652   5.229  0.0690 -0.0354  0.0428
12971W        W29105   2.143   3.862  13.045 -0.0515  0.0269 -0.0342
12972W        W29106   3.053  15.441   4.966  0.0327  0.2339  0.3654
12973W        W29107  14.613  11.689   2.175 -0.1102  0.0420 -0.2236
12974W        W29108  14.540   2.589   1.856 -0.0668  0.0240 -0.0186
12975W        W29109  15.001  11.676   2.591  0.2167  0.0381  0.1415
12976W        W29110  10.980   7.787  12.099  0.0827  0.0034  0.3624
12977W        W29111   9.220  11.971   0.870  0.2911 -0.1980  0.2892
12978W        W29112   9.121  15.645  16.681 -0.2896  0.3248 -0.2045
12979W        W29113   3.228  16.697   3.930  0.0031  0.0734  0.0943
12980W        W29114   4.940   9.841   1.673  0.0194  0.1657  0.1427
12981W        W29115   2.835  15.050   6.056 -0.1913  0.1507  0.0400
12982W        W29116  13.117  16.001  13.164  0.1778 -0.1176 -0.0986
12983W        W29117   8.694  13.091   0.126 -0.2091  0.0655  0.2172
12984W        W29118  11.633  10.198   3.179  0.2594  0.0171 -0.0286
12985W        W29119   5.012   2.543   3.546  0.0365 -0.1319 -0.1061
12986W        W29120   4.823  12.682  12.886 -0.0088  0.0057 -0.0234
12987W        W29121  16.623   0.227   0.756 -0.1022 -0.1170 -0.1422
12988W        W29122   8.984  15.861  13.901 -0.0725  0.0651  0.3870
12989W        W29123   8.188  12.529  15.580 -0.0847  0.0199  0.1185
12990W        W29124   1.530   3.885   0.311  0.1608 -0.3838 -0.0680
12991W        W29125   4.328  17.096  16.165 -0.2764 -0.0745  0.0830
12992W        W29126  11.740   0.063  13.040 -0.0371 -0.2006  0.1768
12993W        W29127  13.693  16.192   1.790  0.2262  0.0111  0.1858
12994W        W29128  17.819  15.517  16.381 -0.0266 -0.2030  0.1958
12995W        W29129   2.998   3.727   2.862 -0.1506  0.0386  0.0554
12996W        W29130  12.890   9.485  13.713  0.3262 -0.0523  0.1259
12997W        W29131  16.694  10.564   3.181  0.1932  0.0908 -0.1143
12998W        W29132   4.695   6.138  15.970  0.0235 -0.4723 -0.2379
12999W        W29133  16.170   7.781  12.235 -0.2883 -0.0631 -0.4134
13000W        W29134  15.678   8.638   1.778 -0.1919  0.0447 -0.2929
13001W        W29135  17.912   8.528  14.058  0.0901  0.1263  0.0871
13002W        W29136  15.685  14.765  16.542 -0.0624 -0.0041 -0.3818
13003W        W29137   2.506  10.460   4.430 -0.3181  0.0296 -0.4314
13004W        W29138  14.472  17.566   6.570 -0.0245 -0.0255  0.2618
13005W        W29139   8.790  14.567   4.055  0.0728 -0.0071  0.4604
13006W        W29140  13.530   2.711   4.500 -0.1666  0.0354  0.1460
13007W        W29141   6.764  11.587  11.647  0.0436 -0.2524  0.2329
13008W        W29142  11.137  12.785   1.554  0.1822 -0.0087 -0.0863
13009W        W29143   6.020  14.254  16.318  0.0249 -0.1541  0.2629
13010W        W29144   3.124   3.437  15.834  0.0609  0.0662 -0.1042
13011W        W29145   1.129   5.314  15.958  0.0760  0.1631  0.0954
13012W        W29146   1.919   1.966   2.562 -0.1530 -0.1196  0.2670
13013W        W29147   9.149   8.351   0.140  0.2932  0.0068  0.2112
13014W        W29148  13.464  10.214  14.838  0.0892  0.3034  0.0163
13015W        W29149   2.706  17.521   3.719  0.3846  0.3808  0.0299
13016W        W29150  16.952   2.898   3.635 -0.0588 -0.0834 -0.2881
13017W        W29151  11.211  10.962   1.133 -0.0723  0.0408  0.2770
13018W        W29152  13.210   8.543  13.200  0.0146 -0.2146 -0.0762
13019W        W29153   7.349  16.535  11.850  0.1760 -0.1514  0.0794
13020W        W29154   1.705   8.901  11.561  0.0523  0.1210 -0.0713
13021W        W29155  12.779  12.570  13.320  0.0712  0.0996  0.1158
13022W        W29156   3.793   8.488  15.944  0.0499  0.0573 -0.2883
13023W        W29157   8.929  16.430  15.377  0.2929  0.0901 -0.1060
13024W        W29158   1.219   5.982  11.960  0.0172 -0.0306 -0.2316
13025W        W29159  14.630  15.259   5.257 -0.1387  0.2183  0.0318
13026W        W29160  16.411   7.782  16.176  0.1119  0.2104 -0.0054
13027W        W29161  13.139  12.410   4.832  0.2245  0.0228 -0.2335
13028W        W29162  14.889  12.075  13.984 -0.0577 -0.0217  0.2348
13029W        W29163   7.210   1.970  15.585  0.0755  0.1196  0.0414
13030W        W29164  15.418  11.819  15.839  0.2488  0.1699 -0.0735
13031W        W29165   6.724  16.491  14.870  0.3922  0.0061 -0.1546
13032W        W29166   3.521   6.847  14.162  0.0253 -0.0275  0.1152
13033W        W29167  10.883   6.553   5.184 -0.1986  0.1556  0.0905
13034W        W29168   4.187  17.237  14.292  0.1812 -0.0282  0.1674
13035W        W29169  13.303  16.940   4.145  0.0827 -0.1001  0.1634
13036W        W29170   7.857   0.095  13.958 -0.0140  0.1450  0.3063
13037W        W29171   2.331   3.031   4.374 -0.0623  0.0485 -0.1161
13038W        W29172  12.249  13.393   2.593 -0.1668  0.1297  0.0189
13039W        W29173   2.931  10.400   5.552  0.2137 -0.2472  0.1998
13040W        W29174   3.275  12.844  16.076 -0.3378 -0.1815 -0.1504
13041W        W29175  16.369   1.929   2.972  0.0129  0.1776 -0.0259
13042W        W29176   4.656  15.415  15.132  0.4227  0.0844 -0.2391
13043W        W29177   8.184  10.897   0.164 -0.1747 -0.4186  0.1677
13044W        W29178  13.927   5.435   2.656  0.0623  0.1808  0.2044
13045W        W29179   6.366   9.491  15.248  0.1210 -0.3562 -0.1102
13046W        W29180  12.821  13.271  12.442 -0.0089 -0.3315 -0.1826
13047W        W29181   3.841  17.562   4.616 -0.4208 -0.1911 -0.0305
13048W        W29182   6.452   9.982  14.967  0.1337  0.0425 -0.2196
13049W        W29183  10.121  13.015   0.734  0.0905 -0.2853  0.0062
13050W        W29184   0.619   1.336   5.513  0.0029 -0.0318  0.0227
13051W        W29185  13.926  16.300   0.428  0.0888 -0.0576  0.0196
13052W        W29186  13.266  10.716  11.992  0.0856  0.0320  0.1919
13053W        W29187   3.172  13.900  11.815 -0.2600  0.2264 -0.2546
13054W        W29188  13.218  13.489   1.673  0.2128  0.1355 -0.0824
13055W        W29189  13.042   4.073  15.871 -0.1320 -0.0842  0.0524
13056W        W29190   9.761  12.771  12.405 -0.1635 -0.0805  0.0318
13057W        W29191   0.370   5.861  14.885 -0.0151 -0.2694  0.1551
13058W        W29192   4.957   4.363   2.114 -0.3337 -0.1341 -0.0008
13059W        W29193  13.875   5.327  15.984 -0.1576 -0.1648 -0.1178
13060W        W29194   9.352  13.451   0.682  0.2173 -0.1816  0.1238
13061W        W29195  17.345  17.474  14.354 -0.0059  0.1889 -0.1768
13062W        W29196   9.936  10.836  14.715  0.2728  0.1466 -0.2597
13063W        W29197  11.702  13.142   5.108 -0.2001 -0.2182 -0.1837
13064W        W29198  14.878   2.439   3.962 -0.0070  0.1151 -0.1816
13065W        W29199  13.856  12.156   3.800  0.1073  0.3030  0.2994
13066W        W29200   0.824  16.838   5.327  0.1810  0.2900  0.0578
13067W        W29201  11.355   5.191   2.824  0.0002 -0.1454 -0.2048
13068W        W29202  10.951   6.152   3.061  0.1508  0.0362  0.2090
13069W        W29203   3.402  14.405  14.902 -0.4760  0.3279 -0.1421
13070W        W29204   3.406   3.331  12.954 -0.0762 -0.0203 -0.0761
13071W        W29205  10.899   8.633  14.655 -0.0173 -0.1091  0.2290
13072W        W29206  17.129   4.279   5.787 -0.1633  0.1009 -0.0194
13073W        W29207   9.657  13.462   4.202 -0.2406  0.1476  0.1713
13074W        W29208   6.597  13.930  14.335  0.4096 -0.1144  0.0098
13075W        W29209  15.778   2.126  16.411 -0.2528 -0.2772  0.1444
13076W        W29210  14.120   3.914  12.992  0.2247 -0.3018 -0.3423
13077W        W29211   7.222   1.214   4.069 -0.0969  0.0236 -0.3747
13078W        W29212  16.470   5.109  14.328  0.2439  0.0044 -0.1348
13079W        W29213   1.952   6.726   6.551  0.1428 -0.1581  0.1652
13080W        W29214  10.644  11.154   4.976 -0.3430  0.0891 -0.2305
13081W        W29215  17.714   5.197   0.108  0.1920 -0.2278  0.2817
13082W        W29216   2.904   7.655   5.130 -0.0277  0.0065 -0.2144
13083W        W29217   9.683   2.281  16.087  0.1587 -0.2031 -0.1102
13084W        W29218   4.156   7.967   2.823  0.5449  0.0807  0.1630
13085W        W29219   2.224   2.045   4.546 -0.0413  0.2086  0.1994
13086W        W29220  13.005   4.420  11.660  0.2236 -0.0081 -0.1682
13087W        W29221   2.425  17.483  11.785  0.1655  0.1295 -0.0502
13088W        W29222  13.529   2.500   0.346 -0.1393 -0.1600 -0.2880
13089W        W29223  17.187   6.712  12.769  0.0956  0.0094  0.0435
13090W        W29224  14.937   4.353   0.673 -0.0119 -0.0347  0.0631
13091W        W29225   4.600  12.046  16.585  0.0500 -0.0408  0.1526
13092W        W29226   4.039   7.451   1.619  0.2549  0.0228 -0.0484
13093W        W29227   4.107   4.390  12.433 -0.2282  0.6588  0.1056
13094W        W29228   8.494   8.253  12.801  0.0261  0.0096 -0.0123
13095W        W29229   5.022  11.041   4.414 -0.0179 -0.2234 -0.2345
13096W        W29230   9.025  17.842   5.563  0.0145 -0.0952  0.0760
13097W        W29231   8.334   0.740   0.310  0.0106  0.1224  0.1831
13098W        W29232   0.961   5.612   0.322 -0.0626  0.0422  0.2732
13099W        W29233  13.970   0.736  12.145 -0.0042 -0.0039  0.0633
13100W        W29234   2.679  12.539  16.296 -0.1371  0.2491  0.0433
13101W        W29235  16.793   3.172   0.171  0.1815  0.0644  0.1457
13102W        W29236  11.288  16.235  12.470 -0.0351  0.3390  0.2372
13103W        W29237  12.404  10.219   3.033  0.4163 -0.1716 -0.1133
13104W        W29238  16.606   1.635   3.338  0.0518 -0.1163 -0.1756
13105W        W29239   0.807  11.993   1.963 -0.1861 -0.0579 -0.0240
13106W        W29240   6.396  10.827  16.568  0.1154 -0.1900  0.1648
13107W        W29241  15.624   3.162   4.540  0.3273 -0.2615  0.0493
13108W        W29242   4.604   1.334   5.427 -0.2103  0.0543 -0.1083
13109W        W29243  14.474  12.698  15.504 -0.1354  0.0322 -0.0498
13110W        W29244   4.474  13.645  16.268 -0.0954  0.0647  0.2747
13111W        W29245   1.104  15.993   4.935 -0.0169  0.2441 -0.2343
13112W        W29246  16.549   3.219  16.438  0.1119  0.0807 -0.2123
13113W        W29247  10.418  17.454  11.303 -0.1715  0.1681 -0.0167
13114W        W29248   1.916   8.266   4.472 -0.1234  0.2903  0.0952
13115W        W29249   0.572   9.470  14.464  0.1301  0.2095 -0.2816
13116W        W29250   4.565   4.344   2.366  0.0545 -0.0990 -0.1366
13117W        W29251   2.008  16.653   3.618 -0.0530  0.1559  0.0060
13118W        W29252   9.370   5.257   2.568  0.2150  0.0668 -0.3492
13119W        W29253  12.768  12.247  12.911 -0.0979 -0.0045 -0.0089
13120W        W29254  10.008  10.633  13.085  0.2520  0.3603  0.2143
13121W        W29255  15.713   4.363   0.279  0.0088  0.0848  0.1346
13122W        W29256   7.693   9.828  16.312 -0.0969 -0.0470 -0.0689
13123W        W29257  15.218   1.379  12.505  0.1709  0.3017  0.0177
13124W        W29258  14.654   2.734   1.351 -0.0210 -0.0666 -0.2665
13125W        W29259   3.767   4.066   0.643 -0.0570  0.1823  0.2213
13126W        W29260   5.369  15.702  16.170  0.2467 -0.0052  0.0065
13127W        W29261   6.816  12.596  13.328 -0.0585 -0.3539  0.1983
13128W        W29262   8.960  14.588  15.870 -0.2026  0.0277 -0.0465
13129W        W29263  12.896  13.014  15.165 -0.1097 -0.1828  0.2205
13130W        W29264   4.960   7.212  12.051 -0.0307 -0.0360 -0.1800
13131W        W29265   1.149  10.201   2.829 -0.0116  0.1708  0.2783
13132W        W29266   3.648   0.180  15.458  0.2360  0.0052 -0.1230
13133W        W29267  17.729   0.691   3.630  0.1242 -0.2090 -0.0054
13134W        W29268   8.934  14.325   0.076 -0.2010  0.1036 -0.0612
13135W        W29269  14.625  17.175   0.865  0.0628 -0.0486  0.1385
13136W        W29270  13.600  17.139   5.090  0.0969 -0.0642 -0.1098
13137W        W29271   1.728  15.492  15.032  0.1998  0.2634 -0.0458
13138W        W29272   5.326  16.709  12.275  0.0322 -0.0834 -0.2129
13139W        W29273   4.942   4.416  15.267 -0.2237 -0.0550  0.2665
13140W        W29274  12.393   4.761  12.297 -0.0482 -0.1609 -0.3859
13141W        W29275  14.622  17.800  14.676  0.0854 -0.0291 -0.1547
13142W        W29276   7.248  15.489   3.199  0.2010 -0.2306 -0.3421
13143W        W29277  11.097   7.681   2.215 -0.3027  0.0855  0.0317
13144W        W29278   3.985   0.420  16.227 -0.0306  0.2784 -0.1378
13145W        W29279  17.868  11.292  14.125 -0.3203  0.1842 -0.1310
13146W        W29280   6.894   1.383  13.004  0.1254 -0.0682  0.0649
13147W        W29281  14.635   6.795   2.669 -0.0590  0.0778  0.0244
13148W        W29282   7.702  11.158   0.034  0.1712  0.2589  0.1700
13149W        W29283   4.176  11.668  14.006  0.2171 -0.0660 -0.3400
13150W        W29284  15.880  10.667   0.470 -0.0039 -0.0077 -0.1823
13151W        W29285   8.921  12.625   9.894  0.0214 -0.1447  0.0478
13152W        W29286   1.127  14.191   2.882  0.0918 -0.0825 -0.1293
13153W        W29287   5.486   2.321  11.884  0.1093 -0.5980  0.0017
13154W        W29288  17.969   3.464  13.395 -0.3897  0.0126  0.0390
13155W        W29289  11.724   6.522  13.693  0.2219 -0.0598 -0.0210
13156W        W29290  12.239  12.354  14.044  0.1043 -0.1453  0.1312
13157W        W29291   9.502   4.041  12.027  0.2022 -0.1593  0.1236
13158W        W29292   9.180  14.768   2.911  0.0327  0.1630 -0.0749
13159W        W29293   2.035   2.619  13.870  0.2732  0.2407  0.0127
13160W        W29294   2.344   6.181   2.085  0.1581  0.1260 -0.2161
13161W        W29295  10.248  10.726  15.735 -0.2498 -0.2444  0.1644
13162W        W29296  10.545   4.723   0.731 -0.0146  0.1495 -0.0728
13163W        W29297  17.413   2.458   0.046  0.0499 -0.1727 -0.0581
13164W        W29298   4.339  10.620   4.650 -0.0282  0.2221 -0.1378
13165W        W29299   3.483   4.847  15.667  0.1854 -0.4077 -0.1771
13166W        W29300  16.262   9.955   0.529  0.0346 -0.1549  0.1809
13167W        W29301  14.057   9.242   2.487  0.0689  0.1881  0.5173
13168W        W29302  13.108  16.662  11.319  0.0723  0.1735  0.0812
13169W        W29303   2.344  15.166  11.212 -0.0339  0.1647 -0.4029
13170W        W29304  12.711  17.227   6.273 -0.2155 -0.2390  0.0441
13171W        W29305   6.016   7.760   5.136 -0.2717 -0.1066 -0.1391
13172W        W29306  10.027   1.315   0.158  0.3448  0.0925 -0.2227
13173W        W29307  12.555   9.203  15.529  0.1521  0.2934 -0.4079
13174W        W29308   6.374   0.279  13.322 -0.0775 -0.0869  0.1171
13175W        W29309   8.804   6.153   1.655 -0.2095  0.0971  0.0280
13176W        W29310  15.682  17.951  16.383  0.1058  0.1422  0.1126
13177W        W29311   6.869  12.927   4.012 -0.0290 -0.3126 -0.3785
13178W        W29312  17.307  13.111   4.920  0.3610  0.0842 -0.0535
13179W        W29313  16.334   4.728   4.758  0.1194  0.1025 -0.1138
13180W        W29314  14.235  13.044   4.662 -0.0049 -0.2425 -0.1219
13181W        W29315   2.383   1.959  12.252 -0.1197  0.3119 -0.0939
13182W        W29316  13.408  10.055   5.001 -0.1217  0.0868 -0.1079
13183W        W29317   2.581   1.028   4.350 -0.0332 -0.1846  0.1656
13184W        W29318  15.381  14.836  12.753  0.2597  0.0255 -0.0302
13185W        W29319   0.145   2.102   0.309  0.1121 -0.2691 -0.2759
13186W        W29320   5.183   4.593  14.811 -0.1468  0.2222  0.1411
13187W        W29321   7.397   4.982   2.202  0.2421 -0.2540 -0.0814
13188W        W29322   3.019   0.968  15.987  0.0999 -0.2133 -0.2040
13189W        W29323  14.502  13.145   2.126 -0.1491 -0.0857  0.0482
13190W        W29324   1.329   7.071  13.371  0.2065 -0.1144 -0.0778
13191W        W29325  11.136  13.690  12.956  0.3647  0.0679  0.1160
13192W        W29326   9.596   6.416  11.666  0.2646  0.1935  0.1165
13193W        W29327  17.149  13.625  13.223 -0.0941  0.0823 -0.1106
13194W        W29328  17.544   6.816  13.575  0.1815 -0.2094 -0.0589
13195W        W29329   8.380   6.179  14.426 -0.1303  0.2881 -0.0241
13196W        W29330   5.357  13.623   2.626  0.3390  0.0866 -0.1073
13197W        W29331   1.443   9.989  15.744  0.1526 -0.0812 -0.1298
13198W        W29332   4.969   2.358  15.206  0.1171 -0.0855  0.0585
13199W        W29333  17.512  17.583   5.301 -0.0329 -0.2118 -0.0764
13200W        W29334  14.192   8.505   4.093  0.1479  0.0582  0.1098
13201W        W29335  13.693   0.193   1.819  0.3124 -0.1084 -0.0773
13202W        W29336   2.426   1.235   0.894 -0.0305 -0.0465  0.1038
13203W        W29337  13.354   3.649   5.189  0.0423 -0.2336  0.0505
13204W        W29338   0.936  17.734   1.882  0.1993  0.1659  0.3089
13205W        W29339  12.463   5.030  13.126 -0.0334 -0.4861  0.2559
13206W        W29340  15.767   5.486  13.978  0.2954 -0.1600  0.2775
13207W        W29341   4.402   4.477   0.814 -0.3065 -0.0148  0.4108
13208W        W29342  13.736   4.088   1.839 -0.0374 -0.0838 -0.2255
13209W        W29343   7.403   9.428   0.464 -0.2063 -0.0977 -0.1904
13210W        W29344  15.442   5.140  13.173  0.0828  0.3463  0.0885
13211W        W29345  16.467   1.514  13.467  0.3447  0.1508 -0.1139
13212W        W29346   4.050   8.767   1.338  0.1244 -0.1216 -0.1911
13213W        W29347  11.743   3.400  14.807 -0.0970 -0.1478  0.0156
13214W        W29348  10.837   4.744  14.918  0.0928  0.0110 -0.1476
13215W        W29349   0.004  16.831  12.501  0.1170 -0.1067  0.1422
13216W        W29350  17.300   7.706   1.815 -0.3109 -0.0613 -0.0531
13217W        W29351  12.007  11.469  11.865 -0.0689 -0.1099  0.2446
13218W        W29352   8.616   6.605   0.601  0.0691 -0.0271  0.1795
13219W        W29353   2.477  17.210  14.077 -0.0251  0.0352  0.0433
13220W        W29354   9.057  11.592  12.678  0.2129  0.2584 -0.0328
13221W        W29355  10.421  17.574   2.993 -0.2214  0.1143 -0.2196
13222W        W29356  12.277   0.740  16.268 -0.1450 -0.1319  0.1945
13223W        W29357   4.239  12.268  15.757 -0.0302  0.0107  0.0866
13224W        W29358   5.065   8.769   1.240  0.0902  0.2624 -0.1514
13225W        W29359   3.465   1.313  16.581 -0.4504 -0.1301 -0.1528
13226W        W29360   2.837  17.470   5.366 -0.0933  0.2319 -0.0241
13227W        W29361   5.658  17.075  12.218 -0.0030  0.2347  0.1277
13228W        W29362   1.127  11.639   2.228  0.1505 -0.3633  0.0627
13229W        W29363   3.270  16.971  14.629  0.0817  0.1420 -0.1193
13230W        W29364   7.311  12.974  12.095 -0.2202 -0.3067 -0.2946
13231W        W29365   2.783  12.136  15.023  0.0381 -0.0606  0.1190
13232W        W29366   2.750  13.586   0.846 -0.0421 -0.2045 -0.1155
13233W        W29367  15.259  10.656   0.142  0.0236  0.0078  0.0876
13234W        W29368   6.465  13.514  13.524 -0.2664 -0.2132  0.2728
13235W        W29369   2.250   1.738   1.694  0.0683  0.0697 -0.2911
13236W        W29370   9.150   7.137  15.852 -0.1125  0.3889  0.1535
13237W        W29371  16.155   8.558   0.084 -0.1246  0.1925  0.2797
13238W        W29372   9.423  17.134   0.767  0.1823 -0.0550 -0.0046
13239W        W29373  16.377   4.816  15.952  0.1196 -0.1393  0.0751
13240W        W29374   7.617   1.694  13.578  0.3203  0.1056 -0.1438
13241W        W29375   7.273   6.829   1.284 -0.2064 -0.0691  0.0073
13242W        W29376   8.365  12.254  13.249  0.2516 -0.1276 -0.1289
13243W        W29377  10.850  14.790  13.057  0.0763  0.1591 -0.1094
13244W        W29378   6.195   7.081  16.289  0.2657 -0.2168  0.1645
13245W        W29379   4.573  13.308   4.918 -0.0020 -0.1441  0.4356
13246W        W29380   7.137  10.657   1.206 -0.2108 -0.2502 -0.0547
13247W        W29381   4.821   4.536  15.813  0.0344  0.2710 -0.1565
13248W        W29382  17.452  14.626  12.727  0.0844 -0.1696 -0.1262
13249W        W29383  17.011   0.007  16.511 -0.1156  0.0604 -0.0305
13250W        W29384  13.512  12.318   4.533  0.1856 -0.1664 -0.0717
13251W        W29385   9.131  13.941   0.466 -0.3561 -0.0005 -0.1360
13252W        W29386   7.329  10.802  11.662 -0.2314 -0.0822 -0.1327
13253W        W29387   8.460  14.604   2.744 -0.2929 -0.1115 -0.0773
13254W        W29388  12.681  10.681   3.028  0.0084  0.1737  0.0040
13255W        W29389   4.904   1.609  11.572 -0.1684  0.0517  0.1432
13256W        W29390   5.092   8.590   3.720  0.1479 -0.1653  0.1197
13257W        W29391  15.789   0.629  14.841  0.1436 -0.1500 -0.4563
13258W        W29392   8.182   0.372  15.205  0.3011 -0.0261 -0.0802
13259W        W29393   1.253   7.237  15.952 -0.2051  0.1333  0.0991
13260W        W29394  12.653  15.665  16.648 -0.1870 -0.1431 -0.0605
13261W        W29395   3.623  12.094  12.502 -0.0376 -0.1475  0.0225
13262W        W29396   2.361   3.432  13.851  0.2043 -0.1888 -0.1668
13263W        W29397  10.622   0.458  11.715  0.1842  0.0262  0.0803
13264W        W29398   2.113  10.197   2.710 -0.2269  0.2593 -0.1035
13265W        W29399  13.150   4.761   2.424 -0.1341  0.0924 -0.0765
13266W        W29400   5.922  15.844   5.527 -0.2809  0.1850 -0.2077
13267W        W29401   8.342   0.404   5.772  0.1010  0.0215 -0.2677
13268W        W29402  17.776  10.379   4.782 -0.0077  0.0807  0.0945
13269W        W29403   5.639  12.958  12.780 -0.0599 -0.2953  0.1642
13270W        W29404   1.520  12.655   5.272 -0.0395  0.3439 -0.0635
13271W        W29405  12.210   4.848  11.826 -0.0638 -0.1147  0.1164
13272W        W29406  10.900  12.789   6.044 -0.2197 -0.0059 -0.2301
13273W        W29407   9.334   5.644   3.716  0.0353 -0.1447  0.1562
13274W        W29408  15.879  10.091  16.327  0.0765 -0.0952 -0.2182
13275W        W29409  16.633   8.627  12.836 -0.3092 -0.0639  0.3841
13276W        W29410   8.483  17.886   3.524 -0.0649  0.0831  0.0243
13277W        W29411  17.189   5.677  12.907  0.2522  0.0821  0.1416
13278W        W29412  10.261  11.419  16.476 -0.4194  0.2221 -0.1094
13279W        W29413   6.406   2.961  14.351  0.0496  0.1182  0.1057
13280W        W29414  15.013   8.356  16.678 -0.1869  0.3096  0.0177
13281W        W29415  17.757  12.820  12.902 -0.2208  0.1098  0.0596
13282W        W29416   0.836  13.178   4.738 -0.2165 -0.0792  0.0784
13283W        W29417   1.784  16.718  11.271 -0.2200 -0.0046 -0.1467
13284W        W29418   4.221  13.003  13.531  0.0488 -0.0512 -0.1585
13285W        W29419   3.693   2.531   4.388 -0.0730  0.3123  0.0512
13286W        W29420   1.364  11.190   3.539 -0.0553 -0.1298 -0.1386
13287W        W29421   9.389   6.192  16.229  0.1389  0.0773 -0.0475
13288W        W29422  14.338  13.417   2.500  0.1010 -0.2754  0.0705
13289W        W29423   9.132  14.528  10.550  0.3748  0.0509  0.2939
13290W        W29424  17.568  13.574   4.718  0.2128  0.2593 -0.1263
13291W        W29425  16.933  14.631   1.613  0.2272 -0.3006 -0.5260
13292W        W29426  10.274   2.095   0.069 -0.1740 -0.2182 -0.0237
13293W        W29427  17.315  12.813   3.729 -0.0867  0.1306  0.1512
13294W        W29428   7.619  10.590  16.702 -0.0978  0.2005  0.2754
13295W        W29429   8.144  10.526   0.679  0.1129  0.0572 -0.3417
13296W        W29430   1.881   6.423   5.993  0.0642 -0.1305 -0.0240
13297W        W29431  15.530  16.472   0.210  0.2479 -0.2918  0.2241
13298W        W29432   4.930  17.465  15.246  0.1139 -0.1944 -0.0135
13299W        W29433   9.631  15.890  12.947 -0.1133  0.4660  0.0219
13300W        W29434  17.127   1.059   0.948 -0.0867 -0.1280  0.1563
13301W        W29435   2.886   8.945   2.468 -0.0940 -0.1895  0.1987
13302W        W29436   2.154  14.303   4.250  0.0112 -0.1144 -0.1601
13303W        W29437   8.587   9.462  12.178 -0.1049  0.0826  0.1430
13304W        W29438  15.504   7.224   4.327 -0.0520  0.0780 -0.0174
13305W        W29439   4.246   8.906  15.211  0.0203  0.0216 -0.0354
13306W        W29440  11.642   7.044   5.068  0.0292  0.0668  0.1900
13307W        W29441   9.139   7.533  15.270 -0.0285 -0.0394  0.3512
13308W        W29442   7.965   1.163  13.673 -0.2736  0.3798 -0.1476
13309W        W29443  12.156   5.023   4.612  0.0812 -0.1415 -0.0598
13310W        W29444   7.876  15.552   0.929  0.2174 -0.1947  0.0415
13311W        W29445  11.623   7.479  16.469  0.0279 -0.1262 -0.1145
13312W        W29446   5.088   9.291  15.727  0.0372 -0.2962  0.1164
13313W        W29447  14.755   3.201   1.065 -0.1141 -0.1292  0.2645
13314W        W29448   1.855   7.051  14.235 -0.3823 -0.0461  0.0290
13315W        W29449   6.283   3.395   4.823 -0.0239  0.3063  0.3036
13316W        W29450  10.475  10.265   4.677 -0.0867  0.3581 -0.0301
13317W        W29451  15.079  15.385  13.794  0.1663 -0.0190  0.2752
13318W        W29452   7.624  16.917  12.041 -0.0611 -0.2994  0.5660
13319W        W29453   9.251   0.322   4.772  0.1358  0.2219  0.1078
13320W        W29454  10.516  16.144   2.589 -0.4741 -0.3134 -0.1255
13321W        W29455  15.227  17.094   3.099  0.0798  0.0020  0.0419
13322W        W29456   2.055   0.733  12.191 -0.0188 -0.0082  0.2533
13323W        W29457   8.487   6.133   2.866 -0.1956  0.3039  0.3538
13324W        W29458   2.224  13.370   3.662 -0.1606  0.0022  0.0226
13325W        W29459   2.360   3.931   5.523 -0.0826  0.3609 -0.1743
13326W        W29460  16.522   5.035  16.485  0.0629 -0.2160  0.1472
13327W        W29461  14.198  13.230  11.642 -0.2866 -0.3601  0.2475
13328W        W29462   4.420   7.046   1.742  0.0908  0.1279 -0.5983
13329W        W29463   2.813   5.271  15.998  0.1641 -0.0712 -0.4370
13330W        W29464  13.173   9.724  16.704  0.0234 -0.5622  0.3241
13331W        W29465  15.283   0.612   4.455  0.2871  0.0362  0.1048
13332W        W29466  15.624  12.560   3.634  0.2973  0.1975  0.3052
13333W        W29467  12.199  13.449  11.539  0.2054 -0.1896  0.2330
13334W        W29468   9.688   5.626  12.619 -0.0850 -0.3104  0.0315
13335W        W29469  10.143   3.931   1.366  0.1675 -0.4603  0.0191
13336W        W29470   6.743   6.876  10.413  0.1628 -0.1040 -0.0421
13337W        W29471  14.599  12.955  13.287  0.4175  0.0955  0.0358
13338W        W29472  11.229  13.228  11.722 -0.2443  0.3231 -0.2102
13339W        W29473  15.130   5.926   0.470 -0.2103  0.1306 -0.2159
13340W        W29474  11.838  16.047   4.126 -0.1072 -0.3667  0.1256
13341W        W29475   4.954  12.979   0.864 -0.3179  0.0653 -0.1618
13342W        W29476   8.586   9.905  13.969 -0.1933 -0.1795  0.0006
13343W        W29477  17.499   1.127  13.081 -0.0031  0.1666 -0.0502
13344W        W29478   2.110   8.540   3.572  0.1726 -0.0127 -0.4077
13345W        W29479   7.235  13.220  15.607 -0.3796  0.0798  0.1181
13346W        W29480  17.066   1.380  10.366  0.0321 -0.0086  0.4388
13347W        W29481  11.847  16.233   6.176 -0.1315 -0.0611 -0.0634
13348W        W29482   4.043   9.302  12.941 -0.1485 -0.2691  0.0168
13349W        W29483   2.751   7.399   2.763  0.4038  0.0430 -0.3201
13350W        W29484  12.205   0.270  13.881  0.0564  0.1820 -0.1806
13351W        W29485   7.939  15.320  12.634  0.1015 -0.1280  0.0096
13352W        W29486   4.921  11.336   0.826 -0.0440  0.1291 -0.0009
13353W        W29487   2.005  16.810  13.146 -0.0604  0.2780  0.0407
13354W        W29488   1.965   7.831   2.240 -0.0962  0.0415  0.1867
13355W        W29489  15.582   1.552  12.940 -0.0507 -0.1601 -0.1341
13356W        W29490  16.396  16.263  15.968  0.1074 -0.3075  0.4833
13357W        W29491   6.357   2.030  13.697  0.0610  0.0435 -0.1209
13358W        W29492  15.837   9.881   5.912 -0.3285  0.0904  0.3198
13359W        W29493  11.431  11.021  11.283 -0.1238 -0.0720 -0.0039
13360W        W29494   8.469  15.276  15.687  0.2112 -0.0322  0.0917
13361W        W29495   8.082   2.152  15.049 -0.0579  0.0227 -0.1857
13362W        W29496  16.950   7.108   4.084 -0.2211 -0.0634 -0.0700
13363W        W29497   7.453  10.663  13.925 -0.1220 -0.0085 -0.0906
13364W        W29498  17.222   1.689  12.398 -0.0392  0.1317 -0.1699
13365W        W29499  11.852  16.860  13.953  0.1879  0.1506 -0.0519
13366W        W29500  13.288   7.315  11.657 -0.0787  0.2895  0.1244
13367W        W29501   2.590  12.594   3.721 -0.3456  0.1025  0.0373
13368W        W29502   0.712   8.929  13.027 -0.0031  0.2198  0.0947
13369W        W29503   4.308   5.816  15.862 -0.0223  0.1818  0.3189
13370W        W29504  10.963  14.791   1.901  0.2998  0.0541 -0.0299
13371W        W29505  17.189   3.230  12.414 -0.1596  0.0153 -0.1090
13372W        W29506  10.439   3.332   5.979  0.0329  0.1446 -0.2258
13373W        W29507   9.057   5.452  15.048 -0.2134  0.0285 -0.2750
13374W        W29508   1.285  17.974   2.258  0.1327  0.0672 -0.1327
13375W        W29509   7.438  17.583   4.973 -0.2784 -0.0483  0.3296
13376W        W29510   1.188   0.852   1.228 -0.0484  0.2501  0.0632
13377W        W29511   1.666  16.206  13.599  0.0122 -0.0329 -0.0646
13378W        W29512   0.309   2.316  16.021 -0.0773 -0.1218 -0.0677
13379W        W29513  12.697   8.883   0.342  0.2874  0.0659  0.0656
13380W        W29514  13.263  17.365  11.771  0.0581  0.2968  0.1697
13381W        W29515  10.635  10.832   2.119 -0.1726 -0.2078  0.1205
13382W        W29516   9.936  12.209  15.847  0.2687  0.2878  0.2034
13383W        W29517   4.621   7.885   4.896 -0.1255  0.3961 -0.0008
13384W        W29518  17.201   8.878   1.107 -0.8273 -0.0026 -0.0663
13385W        W29519   3.589  15.003   2.183 -0.0008  0.2491  0.0458
13386W        W29520  14.258   6.747  13.282  0.1218 -0.0380 -0.1525
13387W        W29521   8.658   4.112   5.645 -0.2985  0.1785  0.0498
13388W        W29522  16.242   2.949   2.114  0.0511  0.1445  0.0106
13389W        W29523   0.649  15.042   0.314  0.0108  0.0103  0.1116
13390W        W29524  17.285   9.515  15.961  0.0452  0.3484  0.0609
13391W        W29525   3.824  17.717   1.368  0.1218  0.2585 -0.0802
13392W        W29526   2.578   8.535  12.662  0.0619 -0.2338 -0.0425
13393W        W29527   2.252   9.751   2.927 -0.0516  0.1274 -0.0932
13394W        W29528   9.220   2.665  13.374  0.1009  0.0778 -0.1148
13395W        W29529   9.633  17.373   5.018  0.3274 -0.4955  0.1909
13396W        W29530   0.999  17.368  16.374 -0.4064 -0.1067 -0.0103
13397W        W29531   9.960   8.567   2.966 -0.1790  0.1950  0.1056
13398W        W29532  16.713  16.657  15.811 -0.1773 -0.3162  0.0903
13399W        W29533   6.550   1.860   3.665  0.0840  0.1204  0.0643
13400W        W29534   2.684  14.994   3.672 -0.0494  0.0123 -0.1989
13401W        W29535  17.095   6.855  11.875  0.3126  0.0134  0.3294
13402W        W29536  10.465   7.246   2.518 -0.1787 -0.1123  0.1447
13403W        W29537   7.789   5.416  14.811  0.0796  0.0125 -0.1043
13404W        W29538   6.383   3.390   0.068 -0.1956  0.1160  0.0695
13405W        W29539   9.680   4.390   5.261 -0.2326  0.1754 -0.0160
13406W        W29540   7.726   1.867  15.596  0.1603  0.3204  0.1845
13407W        W29541  14.213  15.465   3.077 -0.3440  0.0593 -0.0811
13408W        W29542   7.552   6.259   5.147 -0.0243  0.1649 -0.2078
13409W        W29543   9.293   6.100   5.618 -0.2366 -0.1090  0.1767
13410W        W29544  14.094  17.160   5.267 -0.3438 -0.0637  0.1684
13411W        W29545   7.242   8.279  15.963  0.3762  0.0979  0.0961
13412W        W29546   9.987   5.773  14.872 -0.1384  0.1304 -0.0602
13413W        W29547  13.573   2.937  14.827 -0.2011 -0.1908  0.0642
13414W        W29548   8.150  10.206   4.140 -0.0221 -0.3838  0.1044
13415W        W29549   5.341  13.116  12.186  0.1494 -0.2820  0.1253
13416W        W29550  17.171  17.241   4.306 -0.2256 -0.0369  0.1291
13417W        W29551  10.257  17.078  13.619  0.2409 -0.0382 -0.2719
13418W        W29552   2.528   9.648   5.144  0.0495 -0.1834 -0.0178
13419W        W29553   9.742   4.232   1.495  0.1208 -0.1931 -0.1669
13420W        W29554   2.063  13.382   5.689  0.1794 -0.0295  0.0800
13421W        W29555  13.595   0.414  12.834  0.0070  0.2438 -0.3439
13422W        W29556  14.187  15.790  14.498 -0.0283  0.2877 -0.2638
13423W        W29557   7.931   6.973   3.600 -0.0539  0.1189  0.0796
13424W        W29558  16.391   6.378  14.877  0.4046  0.0400  0.1437
13425W        W29559  16.481  13.280   3.281  0.0877 -0.0103  0.0140
13426W        W29560   5.562   5.580   3.097  0.1574 -0.1272 -0.3273
13427W        W29561   5.100  12.319   2.295  0.1704 -0.0130 -0.0331
13428W        W29562   3.428  12.495   2.322 -0.1975 -0.0432 -0.1597
13429W        W29563  11.277   7.963  16.408  0.0467 -0.1491  0.2349
13430W        W29564   9.132   2.145   2.479  0.1052 -0.0829 -0.1644
13431W        W29565   3.948  17.977   0.933  0.0365 -0.1804 -0.1069
13432W        W29566  10.613  16.268   2.086  0.2340  0.0159 -0.1422
13433W        W29567  10.061   4.230  13.754 -0.1027  0.2811 -0.1213
13434W        W29568   1.963  11.101  12.473  0.1320  0.2351 -0.1418
13435W        W29569   0.158   1.792   5.309  0.2813  0.0882  0.0188
13436W        W29570   0.859   2.372  13.818  0.0420 -0.1594 -0.0056
13437W        W29571  17.670   7.531   3.515 -0.3599  0.2759  0.1501
13438W        W29572  16.137   4.379   3.547 -0.0376  0.1640  0.0175
13439W        W29573  12.958   2.465  13.807 -0.2171  0.0184 -0.0016
13440W        W29574  14.403  11.772  14.230 -0.5145 -0.2526  0.1173
13441W        W29575   7.508  16.425   0.165 -0.0053  0.1940 -0.1084
13442W        W29576   3.648   1.038   1.825 -0.1348  0.0101  0.0041
13443W        W29577   7.096   8.726  15.591  0.0875 -0.3624 -0.3019
13444W        W29578  12.800  15.226   5.460 -0.2751 -0.0918  0.0469
13445W        W29579   3.054   4.021  11.826  0.0108  0.0953 -0.0287
13446W        W29580   5.042   7.310   0.249  0.3933  0.1522 -0.1774
13447W        W29581   7.201   8.178   0.857  0.3644  0.0895 -0.2524
13448W        W29582   9.873  11.051   2.462  0.0556  0.1514  0.0022
13449W        W29583  17.322   0.358   5.772 -0.0822 -0.2365 -0.2874
13450W        W29584   0.018  14.037   2.688  0.0296 -0.1098 -0.3452
13451W        W29585  17.234  17.969  12.868 -0.2988 -0.0716 -0.0622
13452W        W29586  17.829   8.860  14.724  0.0813  0.0287 -0.0483
13453W        W29587  13.812   1.083  13.471  0.0434  0.2833  0.2131
13454W        W29588   0.670   2.903  13.970  0.3040 -0.0492  0.0555
13455W        W29589   2.694  10.364  14.001 -0.1496  0.0916 -0.1579
13456W        W29590  14.704   0.667   3.482 -0.2288 -0.0819  0.1074
13457W        W29591   1.210  12.481   1.981  0.1927  0.3805 -0.0516
13458W        W29592  10.938  17.213   0.182 -0.1270  0.0844 -0.2852
13459W        W29593  16.164  14.148  12.325 -0.1123  0.1356  0.2161
13460W        W29594  16.690   7.464  15.851 -0.1034 -0.1188 -0.1741
13461W        W29595  14.622   0.194   0.473  0.1819 -0.2649  0.0019
13462W        W29596   8.598  15.069  14.847 -0.0635 -0.1378 -0.1267
13463W        W29597   1.854   9.619  15.351  0.0045 -0.3236 -0.2451
13464W        W29598   6.355   1.075  12.492 -0.0294  0.2529  0.1557
13465W        W29599  12.883  11.161  15.814 -0.0570 -0.0717  0.2127
13466W        W29600   0.834  14.470  12.513 -0.0721 -0.3145 -0.1795
13467W        W29601  11.495   8.880  16.391 -0.1932  0.2190  0.2130
13468W        W29602   5.569   2.930   2.467  0.4647 -0.1930  0.1342
13469W        W29603  10.103  12.039   3.557  0.1348 -0.3153 -0.2502
13470W        W29604   3.777   3.019  12.817  0.2521  0.0185 -0.2487
13471W        W29605   2.591   6.215  15.111  0.0410 -0.2502 -0.0047
13472W        W29606   8.475   7.618  16.445 -0.2972  0.0659 -0.0569
13473W        W29607   9.389  12.380  12.481  0.0123  0.0319  0.1515
13474W        W29608   8.330   8.775  12.825 -0.1452 -0.1022 -0.0746
13475W        W29609  10.428  15.512  14.896  0.0768 -0.1281  0.2583
13476W        W29610   1.318   6.713   1.118 -0.3144  0.4168  0.0211
13477W        W29611  15.865  11.968   0.151  0.1994  0.1046 -0.0488
13478W        W29612   8.616  12.426  12.742  0.1637  0.1895 -0.0359
13479W        W29613  14.594  11.706   3.941  0.1193 -0.0960  0.2371
13480W        W29614   6.322   8.423  13.557  0.1311 -0.1932 -0.0131
13481W        W29615  15.818   2.739   4.579 -0.0204 -0.1796  0.1894
13482W        W29616   7.756   7.309   6.271 -0.1083  0.1032  0.1733
13483W        W29617   9.339   6.756   1.545 -0.0043 -0.1182  0.2074
13484W        W29618  16.557  14.018  14.896  0.0706 -0.2808  0.1860
13485W        W29619  10.813  14.085   4.263 -0.0483 -0.2526  0.2789
13486W        W29620  11.767   3.606   2.249  0.1401  0.2385 -0.0278
13487W        W29621   8.065  14.238   2.793  0.0072  0.1874 -0.1089
13488W        W29622   8.257   0.660   1.460 -0.3147  0.0108 -0.4655
13489W        W29623  12.527  12.462  15.964  0.4862  0.0035  0.0150
13490W        W29624   1.599   2.903  14.306 -0.2152 -0.3448 -0.1144
13491W        W29625   2.901   5.491   5.480 -0.2171  0.3264 -0.0589
13492W        W29626   7.407  12.655   4.222 -0.1557 -0.1092 -0.2913
13493W        W29627   3.678   5.446   3.442  0.2525 -0.0626 -0.1512
13494W        W29628  12.368  14.261   3.878  0.2305  0.0242  0.5002
13495W        W29629   4.144  13.839  15.877  0.0348  0.1319 -0.1329
13496W        W29630   9.269  17.711  12.223 -0.3079 -0.2817  0.1002
13497W        W29631   2.990   8.052   0.588  0.3327  0.0369 -0.1965
13498W        W29632  14.756  13.491   1.264 -0.1753 -0.0151  0.1699
13499W        W29633   3.121  11.867   0.317 -0.1426 -0.3272  0.1958
13500W        W29634   6.449   2.666   3.105 -0.1899  0.2633 -0.1485
13501W        W29635  14.977  15.222   2.077 -0.1539  0.1806 -0.1781
13502W        W29636   3.181   1.786  13.997 -0.0185  0.1030 -0.0358
13503W        W29637   3.787   5.020   3.212 -0.1739  0.0522  0.1777
13504W        W29638  10.265  15.416   4.977 -0.0882  0.4586  0.1282
13505W        W29639   5.265  10.350   3.740  0.0290  0.2085 -0.2361
13506W        W29640   0.919  13.458  15.071  0.0324  0.0431  0.0327
13507W        W29641  13.773  17.201  16.155 -0.2203  0.2833 -0.0247
13508W        W29642   8.044  10.613   1.160  0.1120  0.1223 -0.3384
13509W        W29643  12.646   1.871  15.625  0.0596 -0.2492 -0.2141
13510W        W29644   6.216  12.156   3.707  0.0780 -0.1689  0.0480
13511W        W29645   3.085   8.901   4.960 -0.1215  0.0554 -0.0677
13512W        W29646   8.533  11.314   1.648 -0.2817  0.1788  0.0137
13513W        W29647  12.188  11.794   3.375 -0.1650 -0.3337  0.2614
13514W        W29648  14.433  12.796  16.510  0.5978 -0.4074  0.0988
13515W        W29649  14.675  12.144  16.559 -0.0852 -0.1507  0.0972
13516W        W29650  11.692   0.075   5.608  0.4425 -0.1609 -0.3490
13517W        W29651   2.635   5.593  13.074  0.0168 -0.1053 -0.3534
13518W        W29652  11.569  10.491  12.198 -0.0687  0.2433  0.0421
13519W        W29653  16.015   7.363  16.219 -0.1337 -0.3382 -0.2573
13520W        W29654  11.060  13.423  12.360 -0.3051 -0.0186 -0.1264
13521W        W29655   9.447   6.191   3.712 -0.1403  0.1612  0.0613
13522W        W29656  13.231   3.050  12.436  0.2192 -0.1517  0.2368
13523W        W29657  13.781   6.230   0.620  0.2351 -0.2542 -0.1390
13524W        W29658   7.096  15.948  11.342  0.0619 -0.0003  0.0498
13525W        W29659   0.161   4.373   1.429 -0.3005 -0.1590 -0.1521
13526W        W29660  17.961   4.902  14.297  0.2256 -0.1190  0.2415
13527W        W29661  11.544   0.409  12.727 -0.2415  0.0287 -0.0492
13528W        W29662   5.443  12.591  12.214 -0.2224 -0.0827  0.0404
13529W        W29663  10.219   9.474   1.921 -0.0834  0.1986 -0.1812
13530W        W29664  10.271  14.348  13.615 -0.2112  0.1823  0.0756
13531W        W29665  10.738   5.093   2.177  0.1184 -0.0499  0.0920
13532W        W29666  10.268   6.034   3.572  0.1530  0.2218  0.3379
13533W        W29667  11.017  16.419  12.848 -0.0886 -0.4070 -0.0335
13534W        W29668   1.101  13.821   1.882  0.2642  0.3084 -0.0438
13535W        W29669   5.472  14.620  14.359  0.2905  0.0196 -0.2035
13536W        W29670   4.857  16.566  13.290 -0.2403 -0.0029 -0.4021
13537W        W29671   0.012  13.952  16.561  0.2926 -0.0824  0.0657
13538W        W29672  10.110  14.081   0.523 -0.0686  0.2494  0.1878
13539W        W29673   0.233   5.915   1.273  0.0060  0.4913  0.2459
13540W        W29674   3.010   8.579   1.150  0.1025  0.4376  0.0983
13541W        W29675  13.650  17.307   3.969 -0.0639  0.1257  0.0081
13542W        W29676   2.409  15.896   5.702  0.2518 -0.3100 -0.1480
13543W        W29677   8.692   5.601  15.833  0.4086  0.1512  0.0896
13544W        W29678  13.144  16.491   3.370 -0.0709 -0.2400 -0.0739
13545W        W29679   0.321   3.771   5.154 -0.1639 -0.0181 -0.0789
13546W        W29680   2.847   8.389  11.688  0.1829  0.4976  0.3660
13547W        W29681   4.572   5.703  13.729  0.0711  0.0379 -0.4163
13548W        W29682   2.782   2.445  13.480 -0.1544  0.0241 -0.0534
13549W        W29683  11.574   8.926   4.404 -0.1217  0.2158  0.2513
13550W        W29684   6.491   0.236  12.692 -0.3205  0.1417  0.4311
13551W        W29685   0.302   1.247   3.766 -0.0909  0.2076  0.2356
13552W        W29686   6.842  17.249   3.300 -0.2387 -0.1821 -0.0756
13553W        W29687   0.280  17.528   0.617  0.3687  0.0720  0.3741
13554W        W29688   2.150  11.327   0.702 -0.0223  0.0034 -0.2238
13555W        W29689  14.078  11.377   4.071  0.0312  0.4370  0.2080
13556W        W29690   4.618  11.388   5.063 -0.0050 -0.2191  0.1380
13557W        W29691  12.798   5.860   1.006 -0.2572  0.1583  0.1218
13558W        W29692  14.077  17.938   3.608 -0.2498 -0.1136 -0.1695
13559W        W29693  10.475   2.334   3.734  0.1822  0.3914 -0.3142
13560W        W29694   5.798   6.677   4.627  0.0737 -0.1135 -0.2213
13561W        W29695  13.982   3.981   4.449 -0.1079  0.2039  0.0496
13562W        W29696  13.219  12.335  13.271 -0.4307 -0.0351  0.1946
13563W        W29697   7.284   7.742  16.107 -0.2290 -0.0886 -0.3558
13564W        W29698   8.322  13.520   1.003 -0.1172  0.1547  0.2090
13565W        W29699   0.578  17.713  13.833  0.0326 -0.1994  0.0647
13566W        W29700  11.115  15.694   4.224  0.1059  0.1522 -0.0724
13567W        W29701  16.835  12.207  12.229  0.0349  0.0923 -0.1891
13568W        W29702  13.994   9.368  13.528 -0.3927 -0.2944 -0.0784
13569W        W29703   9.416  17.865  13.079 -0.4572  0.4729 -0.1618
13570W        W29704  16.121  15.951   5.025 -0.0194  0.2135  0.1449
13571W        W29705   6.998  13.700   1.411 -0.3490 -0.2640 -0.2119
13572W        W29706  15.926  12.710  12.069  0.4113 -0.1290 -0.0351
13573W        W29707   4.713  17.265  11.948  0.4071  0.0133 -0.3440
13574W        W29708   9.060  10.889   2.192  0.2413 -0.0564 -0.0309
13575W        W29709   3.646  13.226  16.212  0.0854 -0.0789  0.0702
13576W        W29710  13.351  10.149  12.688  0.1092  0.3080  0.2506
13577W        W29711   7.873  16.532  11.351 -0.0267 -0.1937 -0.1299
13578W        W29712   7.406   9.057  11.516  0.4356 -0.0840 -0.0496
13579W        W29713   5.752  17.440   2.437  0.0584 -0.1196 -0.3238
13580W        W29714   1.032   7.942   2.377 -0.1291 -0.1408 -0.0666
13581W        W29715   5.327   6.155   5.102 -0.0070  0.4736 -0.1909
13582W        W29716   3.880   1.495   1.684 -0.0614 -0.2290  0.1200
13583W        W29717   6.095   7.585  14.837 -0.1258  0.1630 -0.1463
13584W        W29718   0.176  16.656   0.697 -0.1805  0.0770 -0.2274
13585W        W29719   2.016   7.155  16.081  0.1389  0.1714  0.0782
13586W        W29720  10.113   7.703   0.966  0.1181  0.2465  0.1272
13587W        W29721   2.110  13.988  14.092  0.1598  0.0771  0.0736
13588W        W29722   2.119   7.557   1.793  0.0610  0.0321  0.0564
13589W        W29723   9.013  12.444  13.060 -0.2182  0.2442  0.2004
13590W        W29724   1.204  12.023  12.372 -0.0503 -0.1867  0.2180
13591W        W29725   5.257   9.840  15.493  0.1813 -0.1970 -0.0851
13592W        W29726  17.497   7.165   4.823  0.0652 -0.0418 -0.0251
13593W        W29727  17.104   1.768   3.031 -0.0062 -0.0957 -0.4020
13594W        W29728  15.653  15.982   2.955 -0.0585 -0.1513  0.3381
13595W        W29729   0.720  12.485   1.118  0.0709 -0.2266  0.1034
13596W        W29730   0.790  12.512   3.065 -0.2137 -0.1586  0.0295
13597W        W29731   8.617  10.615   2.341  0.0789 -0.1699  0.1273
13598W        W29732  17.730   7.168  13.998  0.2975  0.3396 -0.0821
13599W        W29733  16.689   8.143   0.423  0.0497  0.0214  0.1154
13600W        W29734   5.606   2.675  13.296  0.1239  0.2740  0.0792
13601W        W29735  17.707   3.130  12.158  0.0465  0.2224 -0.3309
13602W        W29736   0.029   6.870  16.416 -0.2075  0.0487  0.1473
13603W        W29737   9.974  13.338  10.822  0.2004 -0.0806  0.0386
13604W        W29738  14.946   4.157  13.004  0.0357  0.2873 -0.1259
13605W        W29739  15.086   7.471  12.039 -0.4058 -0.1859  0.0822
13606W        W29740  12.618  12.171  12.042 -0.0231  0.0632  0.1663
13607W        W29741  13.642   5.992  13.260 -0.0072 -0.0603  0.1472
13608W        W29742   4.707   5.253   0.759 -0.3208  0.2331  0.0212
13609W        W29743   0.822   2.072  11.745 -0.3383  0.1269 -0.1777
13610W        W29744  12.823  14.991   0.452  0.3787  0.3789  0.0857
13611W        W29745  15.409  16.128  10.780  0.0403 -0.0709  0.0274
13612W        W29746   6.042  11.436  14.636  0.1742  0.1708  0.1263
13613W        W29747   6.284   0.063   2.978 -0.0150  0.2453 -0.2085
13614W        W29748  10.258  16.846  11.944  0.0682  0.0341  0.3096
13615W        W29749   9.268  11.753  13.354  0.2986  0.1103  0.2029
13616W        W29750   3.814   4.947  15.273 -0.0037  0.1475  0.0228
13617W        W29751   7.822  15.715  13.047 -0.2775  0.2098 -0.3231
13618W        W29752   4.298   7.402  16.289 -0.2252  0.1428  0.1801
13619W        W29753  17.540   5.963  16.190  0.1475 -0.0628  0.1211
13620W        W29754   5.899  15.874  16.281 -0.2245 -0.0483  0.0012
13621W        W29755   8.627  15.379  12.099 -0.0958  0.0849 -0.3701
13622W        W29756  14.756  16.714  16.580 -0.4499  0.2345 -0.1216
13623W        W29757   7.184  15.790  15.625 -0.1542 -0.0093  0.2406
13624W        W29758  10.753  10.539  14.072 -0.1038  0.2859  0.4553
13625W        W29759  17.691   4.548  11.909  0.0295  0.2085 -0.1629
13626W        W29760  10.678  12.393  14.000 -0.2277 -0.0389  0.3361
13627W        W29761  13.705  13.954   2.571  0.5508  0.0096  0.0679
13628W        W29762   2.382  11.906  14.882 -0.2039  0.3390 -0.1608
13629W        W29763   4.949  12.897  14.853 -0.0715 -0.3951 -0.4665
13630W        W29764   8.091   7.344   4.375 -0.1720  0.1199 -0.0141
13631W        W29765   0.338   5.080   2.099 -0.2112  0.0860 -0.2372
13632W        W29766  15.057  11.376   3.729  0.0067 -0.3493  0.0784
13633W        W29767  10.070   3.798  16.209 -0.1072  0.1303 -0.2870
13634W        W29768   4.295   7.498  13.442  0.1524 -0.0853 -0.0000
13635W        W29769   4.538   5.292  14.170 -0.1153 -0.0393  0.0957
13636W        W29770  16.033   5.801   0.779  0.1161 -0.0164 -0.0561
13637W        W29771   8.320   0.496   2.691 -0.0178  0.1674 -0.0928
13638W        W29772   3.442   4.748   3.020  0.1036 -0.1351 -0.0741
13639W        W29773   2.387  12.727  12.149 -0.1036  0.0881 -0.0954
13640W        W29774  15.615  17.967   5.091 -0.3904  0.0707 -0.1766
13641W        W29775  15.383   3.686   1.347 -0.0356 -0.2379  0.1960
13642W        W29776   6.636  10.342   4.359  0.2006  0.0346 -0.2617
13643W        W29777   3.664   7.163   1.275 -0.1286  0.2047 -0.1909
13644W        W29778  14.959   0.120   4.160 -0.0314 -0.0572 -0.1469
13645W        W29779   0.897   4.811  13.426 -0.0049  0.0116  0.0017
13646W        W29780  13.614  11.796  15.299 -0.0614 -0.0484  0.0170
13647W        W29781  16.659   1.138   0.397 -0.1673  0.1721  0.0352
13648W        W29782  16.544   3.864   1.062  0.0169  0.1877  0.0930
13649W        W29783   4.824  12.746  16.065 -0.1713  0.0431  0.2494
13650W        W29784   6.438   5.066   0.148  0.1516  0.1934  0.1555
13651W        W29785  12.338   9.882   4.719  0.0726  0.0303 -0.0078
13652W        W29786  11.709   3.264  16.227  0.2982 -0.2262 -0.0621
13653W        W29787  16.832   9.472  13.949 -0.0047  0.1178 -0.3271
13654W        W29788  14.162   4.133  12.206  0.1032  0.0972 -0.2563
13655W        W29789   8.808  16.755  12.901  0.0273 -0.0172  0.3735
13656W        W29790  12.429  17.512   3.009 -0.1350  0.1030  0.0887
13657W        W29791  10.851  14.443   3.920  0.1274 -0.2501 -0.0815
13658W        W29792  15.875  11.624  13.231 -0.1847  0.2313  0.1103
13659W        W29793   4.127   0.752   4.305 -0.0154 -0.2039  0.0577
13660W        W29794   6.272   8.389  15.344 -0.1068  0.2396 -0.1030
13661W        W29795   1.467  13.611  12.936  0.1959 -0.4204 -0.0289
13662W        W29796   3.115   3.583  11.581 -0.0006 -0.0684  0.0948
13663W        W29797   3.569   5.930   2.177  0.0649 -0.1690  0.2761
13664W        W29798   3.820  16.657   3.298 -0.2423  0.2926  0.2178
13665W        W29799   2.097   3.666  14.266 -0.4836  0.1816 -0.2350
13666W        W29800  13.160  15.003  13.448  0.0757 -0.0570  0.1430
13667W        W29801   7.873  12.614  10.650 -0.2119  0.2512 -0.0882
13668W        W29802   1.064   8.203   0.230  0.0870 -0.0278  0.1695
13669W        W29803  11.181   5.984   1.184 -0.3016 -0.2015  0.3430
13670W        W29804  12.001   7.740   1.571 -0.3302 -0.0430 -0.1965
13671W        W29805   1.199   6.156   0.907  0.0681 -0.0995  0.0464
13672W        W29806   4.769  17.906   1.564  0.0578  0.0444  0.1797
13673W        W29807   1.083   9.410   2.342 -0.1199 -0.2495  0.0371
13674W        W29808  12.527  17.980   3.078  0.0913 -0.2363 -0.2779
13675W        W29809  14.383   3.989   3.378  0.1954  0.1188 -0.1381
13676W        W29810   7.724   7.072  12.388  0.2535  0.1503 -0.0081
13677W        W29811   3.355   8.991  12.562 -0.0959  0.2353 -0.0044
13678W        W29812  13.519  15.969   4.643 -0.3183 -0.2814 -0.0248
13679W        W29813   8.675  13.967   4.945 -0.2474  0.0386  0.2707
13680W        W29814   1.419  17.033   2.099  0.1138 -0.0650  0.1041
13681W        W29815  13.926  17.212  13.964  0.0618 -0.0779 -0.0438
13682W        W29816  12.338   6.771  16.342  0.1235  0.2151  0.2161
13683W        W29817   3.278  14.355   1.871  0.1917 -0.0696  0.0833
13684W        W29818  17.475  15.744  11.994  0.2105 -0.2870  0.2737
13685W        W29819   9.483   0.840  16.172  0.1823  0.1701 -0.0794
13686W        W29820  17.759  15.507  12.893  0.0095  0.1353  0.0007
13687W        W29821   4.251  10.294  14.215  0.1577  0.2619 -0.0541
13688W        W29822  10.382   9.384   0.528  0.3113 -0.0439 -0.0833
13689W        W29823   7.663   6.422   3.419 -0.0997  0.1986  0.2092
13690W        W29824  10.869   2.589   2.526  0.0337 -0.1165 -0.1526
13691W        W29825  15.254   5.356  16.222  0.0087 -0.0145 -0.0708
13692W        W29826   8.791   7.606  15.621 -0.2070 -0.3816  0.0857
13693W        W29827   4.920  10.751   0.305  0.1573  0.5971  0.0292
13694W        W29828   5.679   3.649  16.254  0.0685 -0.3553 -0.4088
13695W        W29829   3.132   0.551  11.388 -0.0091  0.0183  0.0229
13696W        W29830  11.774   6.417   1.782  0.1413  0.0677 -0.1800
13697W        W29831  12.866  10.166   4.847  0.1332 -0.2713  0.3134
13698W        W29832   7.278  16.435  15.071 -0.3112  0.2674  0.2471
13699W        W29833   0.229  10.369  12.758  0.1772 -0.0292  0.4445
13700W        W29834  13.777   4.737   0.713 -0.1977  0.1156  0.1242
13701W        W29835   4.420   5.520  12.717  0.1812  0.1818 -0.0151
13702W        W29836  17.622   3.080   3.059 -0.1517 -0.2686 -0.0357
13703W        W29837   2.206   2.179  14.258  0.0110  0.0585  0.1689
13704W        W29838  17.217  15.970   4.912  0.0443  0.0093  0.4643
13705W        W29839  13.023  12.465  14.689  0.1942  0.2372  0.1443
13706W        W29840  16.823   0.319   3.004  0.0423 -0.0205  0.0752
13707W        W29841   5.611   3.735  14.934 -0.3895 -0.2241  0.3663
13708W        W29842  14.637  14.558   4.079  0.0821 -0.1289 -0.0423
13709W        W29843  12.604   7.357  13.042  0.0997 -0.1544 -0.0957
13710W        W29844   2.686   6.162   0.628 -0.2645 -0.1540 -0.3057
13711W        W29845   9.098   8.769  12.170 -0.0278 -0.0139 -0.0285
13712W        W29846  15.248  13.735   3.017 -0.0441 -0.0819 -0.1007
13713W        W29847   4.419  14.937   3.394 -0.0344  0.0455  0.4432
13714W        W29848  11.619  10.747  11.734  0.1134  0.0341  0.2101
13715W        W29849   3.462  13.282   4.302  0.1500  0.1064  0.0920
13716W        W29850   8.964  10.037   4.785 -0.1009 -0.2062  0.1054
13717W        W29851   1.909   4.695   0.143 -0.1195  0.0866  0.1305
13718W        W29852  10.767  15.901  14.637 -0.1394 -0.0598 -0.0587
13719W        W29853   3.352  16.868   3.392  0.1691 -0.3882  0.1715
13720W        W29854   6.137   1.889  12.005 -0.2936  0.0018 -0.1854
13721W        W29855   0.448   3.032   2.480 -0.1695 -0.0616  0.0961
13722W        W29856   4.822   3.612  11.479  0.4018  0.2939 -0.1854
13723W        W29857  11.608   3.490   3.132 -0.2229  0.1455  0.1882
13724W        W29858   1.129   6.613   0.646  0.0403 -0.0150  0.0309
13725W        W29859   7.086  17.468   0.156 -0.0529 -0.1150  0.0823
13726W        W29860  11.634  11.631  15.020 -0.1237  0.0007  0.0518
13727W        W29861  13.298  11.661   4.274  0.0677 -0.1206 -0.2916
13728W        W29862   3.914  15.438  11.953  0.0096 -0.1132 -0.2997
13729W        W29863   1.110   8.649  16.404 -0.2324  0.1108 -0.1758
13730W        W29864  10.415  14.709   3.762  0.1200 -0.0033  0.2025
13731W        W29865   1.552  11.172  12.119 -0.1610  0.0267 -0.0193
13732W        W29866  11.381   2.182   3.688  0.1576  0.0259  0.1166
13733W        W29867  16.765   6.376   4.863  0.1825  0.0812  0.4871
13734W        W29868   5.018   2.904   1.637 -0.0125  0.0430  0.1139
13735W        W29869  17.678  16.128   5.321  0.0587  0.0860  0.0340
13736W        W29870  16.744   0.212  13.715 -0.1376 -0.2654 -0.1154
13737W        W29871  10.614   0.737  13.375  0.1516  0.0272 -0.0124
13738W        W29872   0.266  16.689   4.353 -0.0775  0.2124  0.1709
13739W        W29873   5.118  13.970   0.142 -0.2129  0.2096  0.1026
13740W        W29874  14.101   3.681  15.837 -0.1664 -0.0254  0.1246
13741W        W29875  15.530   5.795   4.546 -0.0323 -0.0864  0.1856
13742W        W29876  10.907   8.241  12.294  0.1389  0.3546  0.2527
13743W        W29877   8.783  12.863  16.078  0.4663 -0.0124  0.3491
13744W        W29878  12.990   9.701   1.393 -0.0986 -0.1269  0.0267
13745W        W29879  12.972   1.949  11.858 -0.1274 -0.2305 -0.1408
13746W        W29880  16.163   2.972   3.221 -0.0830  0.2677  0.0887
13747W        W29881  13.671   6.594  14.878 -0.1872 -0.2345 -0.0105
13748W        W29882  10.456   7.058  14.826  0.0927  0.1385 -0.4098
13749W        W29883   2.266   8.781  15.066 -0.0910 -0.0116 -0.1619
13750W        W29884   6.452  12.756   5.015 -0.1345  0.1067 -0.0153
13751W        W29885   8.788   5.326  11.650  0.3616 -0.0739 -0.2823
13752W        W29886   5.561  14.753  11.836 -0.0052  0.3293 -0.2401
13753W        W29887  10.976   8.681  13.565 -0.0320 -0.0093  0.1036
13754W        W29888   7.722   5.483  11.557  0.0364 -0.0659 -0.0360
13755W        W29889   2.660   2.213  15.320  0.0543 -0.0344  0.0368
13756W        W29890  12.842   9.159   1.474 -0.0937 -0.1041  0.0618
13757W        W29891   2.880  16.623  15.373 -0.2556 -0.0854 -0.0297
13758W        W29892   7.634  12.213  15.707 -0.2414 -0.1920 -0.1445
13759W        W29893   0.756   6.064  13.739  0.2372  0.1252 -0.2170
13760W        W29894   4.008   3.657   0.767  0.1675  0.3816 -0.1118
13761W        W29895  17.902  14.425   4.267  0.2484 -0.0228 -0.1723
13762W        W29896   5.863   9.964   2.651 -0.2708 -0.1020  0.2780
13763W        W29897   7.047  13.515   4.068  0.2889  0.1348  0.1897
13764W        W29898   7.635   7.298   3.125 -0.1623  0.1422 -0.1585
13765W        W29899   4.947   7.199   1.744 -0.1321  0.1204  0.1849
13766W        W29900   4.601   6.309   4.339  0.0762 -0.4938  0.1773
13767W        W29901  12.658   5.394   2.613  0.2609 -0.3054 -0.1018
13768W        W29902   9.372  11.064   1.235  0.3087 -0.2275 -0.1629
13769W        W29903   8.131   1.528  15.765 -0.0529 -0.0521  0.0171
13770W        W29904   9.030   0.248  13.554 -0.2240  0.0044  0.1445
13771W        W29905   4.088   9.166   2.274 -0.1353  0.0534  0.1417
13772W        W29906   4.645   3.970   5.471  0.0063  0.0275  0.0213
13773W        W29907  15.588   4.589  14.290 -0.0548  0.0763 -0.1997
13774W        W29908   6.702   6.394   3.786  0.2022  0.1205  0.0809
13775W        W29909   4.253  15.487  14.750 -0.3516  0.3170  0.0149
13776W        W29910   2.665  15.518  11.332 -0.0896 -0.1503  0.2783
13777W        W29911  16.382  16.482  13.935 -0.1298  0.4668 -0.1238
13778W        W29912  10.656   5.780  16.703  0.0958  0.0769  0.1374
13779W        W29913  11.631   2.594  12.319  0.1162 -0.1017 -0.2764
13780W        W29914   3.774  17.889  11.898  0.2572 -0.1057 -0.0046
13781W        W29915  17.585   1.015   3.277 -0.1503  0.0655  0.0812
13782W        W29916  13.954   4.155   3.668 -0.0655 -0.1816 -0.0489
13783W        W29917  13.651   4.722  16.565 -0.2331 -0.0250  0.0461
13784W        W29918   1.642  10.518   0.406  0.0324  0.0423 -0.2193
13785W        W29919   3.825   9.394  12.439 -0.1904 -0.0915 -0.0789
13786W        W29920   9.356  11.287  13.092  0.1364  0.4349 -0.3673
13787W        W29921  10.499   1.674  15.434  0.2444  0.1717 -0.0108
13788W        W29922  17.776   5.920  14.126 -0.0836 -0.0883 -0.2275
13789W        W29923   5.260  15.541   5.292 -0.3979  0.3051 -0.0753
13790W        W29924  12.967   5.353  11.943 -0.0138 -0.1204 -0.1159
13791W        W29925  14.344   7.737  11.556 -0.1022 -0.2378  0.1355
13792W        W29926   2.588  11.515   6.041  0.0244  0.1715 -0.0056
13793W        W29927   8.980   9.991   3.249  0.1450  0.0602  0.2937
13794W        W29928   3.630  14.802   4.839 -0.0655 -0.0061 -0.0120
13795W        W29929   9.904  17.900   2.512  0.1030  0.1290  0.0818
13796W        W29930   5.879   8.110   2.848  0.0498 -0.2054 -0.0296
13797W        W29931  15.666  16.776  11.973 -0.2676  0.5716  0.1637
13798W        W29932  14.254   2.948   0.106 -0.2038 -0.1082  0.1736
13799W        W29933  15.999  12.207   4.047  0.1892 -0.1986  0.1797
13800W        W29934   7.193  10.351   0.208  0.1336  0.1614  0.0748
13801W        W29935   5.749   5.884  13.983 -0.1220 -0.0705 -0.1478
13802W        W29936  13.358   8.061  13.187 -0.2339  0.1654  0.2641
13803W        W29937   8.165   1.512   2.802 -0.3331 -0.1851 -0.0077
13804W        W29938  11.278   8.676  11.010 -0.0435  0.0125  0.0548
13805W        W29939   2.260   4.260  16.193  0.1092  0.0462  0.1005
13806W        W29940   1.268  17.562   4.650 -0.1248  0.1767 -0.1839
13807W        W29941   3.723  15.309   5.082  0.0114  0.2420 -0.0359
13808W        W29942  11.118   7.006  16.339 -0.1090  0.0310  0.1243
13809W        W29943  16.475   7.087  16.149 -0.1033 -0.0933 -0.1207
13810W        W29944   7.810   5.569   3.230 -0.0299 -0.0402  0.0548
13811W        W29945  16.109  17.299   4.126  0.0087  0.1837 -0.0312
13812W        W29946   4.942   0.589  11.645 -0.0751  0.1078  0.2899
13813W        W29947   3.910   0.245   2.637  0.1065  0.1350  0.3063
13814W        W29948   4.999   6.138  14.964  0.1576 -0.0323  0.2358
13815W        W29949  14.528  15.053   2.194  0.2807  0.1487 -0.1512
13816W        W29950   7.670   8.721  11.218  0.0817  0.2383  0.0160
13817W        W29951   6.016   3.587  11.050 -0.0963 -0.1065 -0.1793
13818W        W29952   3.213   6.395   5.891 -0.0376 -0.1668  0.2037
13819W        W29953   0.893  10.131   6.059 -0.2282 -0.0925  0.3477
13820W        W29954  10.609  17.383   5.025  0.0024  0.1094  0.1192
13821W        W29955   9.234  13.570  11.693 -0.0644  0.1221  0.0916
13822W        W29956   5.484   0.453   2.662  0.3958  0.1299 -0.1572
13823W        W29957   2.272  10.001   4.212  0.0025 -0.3771  0.0469
13824W        W29958   0.339  16.235   0.798  0.2238  0.0825 -0.0395
13825W        W29959   3.817   2.809   1.023  0.2271 -0.0130 -0.0609
13826W        W29960  15.556   8.939   4.266 -0.2315  0.3403  0.1388
13827W        W29961  16.267  14.949   5.956 -0.1387  0.2998  0.0607
13828W        W29962  12.100   8.371  16.380 -0.3830 -0.2349  0.2012
13829W        W29963   5.941  15.765  14.044  0.1248 -0.1501 -0.1132
13830W        W29964  14.779  16.376   5.641  0.1033  0.0671  0.0333
13831W        W29965  15.807  14.476   4.991  0.1305  0.0732 -0.0295
13832W        W29966   8.151   5.933  12.422 -0.3870 -0.1745 -0.0567
13833W        W29967  15.339   3.866  15.143  0.0284 -0.0275 -0.1576
13834W        W29968   1.712   0.525  14.510 -0.0085 -0.1773 -0.0132
13835W        W29969   5.223   5.899  16.657  0.0751 -0.0628 -0.0260
13836W        W29970  12.589   7.881   5.546 -0.1189  0.0001 -0.1052
13837W        W29971  13.056   3.891   1.463 -0.4097  0.0780  0.2510
13838W        W29972  14.592   8.355  12.352 -0.2259 -0.1982  0.0053
13839W        W29973  10.530   7.598   0.586 -0.0061 -0.3646  0.1165
13840W        W29974   4.216   7.019   4.872 -0.0198  0.1792 -0.1021
13841W        W29975   0.384   6.455  15.039  0.2263 -0.2880  0.1511
13842W        W29976   1.903   0.992   1.408 -0.1664  0.0750  0.1430
13843W        W29977  17.539   4.043   3.392  0.1910 -0.0617 -0.0968
13844W        W29978   5.228   8.869   2.593  0.3058  0.0325  0.2055
13845W        W29979  14.091   7.229  13.189  0.1590 -0.1158 -0.2429
13846W        W29980  13.458   4.580   5.685  0.3228 -0.0141  0.0193
13847W        W29981  14.694   4.692  16.482 -0.0951  0.0245 -0.0309
13848W        W29982  14.818   8.296  13.142 -0.0028  0.0710 -0.0062
13849W        W29983  14.020  17.177   4.773 -0.1338 -0.0062  0.0904
13850W        W29984   6.047  11.775  13.706 -0.0282 -0.1661  0.1973
13851W        W29985  16.390   8.263   0.791  0.1358  0.1206 -0.1458
13852W        W29986  17.465   6.379  11.422  0.0056 -0.2405  0.2579
13853W        W29987   1.924  12.825   3.082  0.4879 -0.1685 -0.1037
13854W        W29988   3.363   1.794   0.010 -0.1011 -0.0063  0.2107
13855W        W29989   6.350  10.011   1.037  0.1527  0.1134 -0.0088
13856W        W29990   4.669  11.653  14.231 -0.0106 -0.0096  0.1655
13857W        W29991   0.517   8.298  16.154 -0.0650 -0.0258 -0.0081
13858W        W29992  16.338   0.459  16.370  0.1370  0.0055 -0.0978
13859W        W29993   0.096  12.146   2.600 -0.1579 -0.0370  0.0606
13860W        W29994  14.890   7.243   0.967  0.1897 -0.0503 -0.0667
13861W        W29995   7.196  16.636  13.978 -0.2552 -0.1221  0.0796
13862W        W29996   7.294  16.748  16.034  0.0627  0.2682 -0.0564
13863W        W29997  16.943   5.898  11.877  0.0781 -0.1407 -0.0143
13864W        W29998  14.458  10.519   0.779 -0.1144 -0.1321  0.2095
13865W        W29999  17.652  10.440  12.461 -0.2276  0.1197  0.2436
13866W        W30000   1.698  17.576  13.627 -0.2305  0.0252 -0.0452
13867W        W30001  12.600   5.709  15.555 -0.0031 -0.1971  0.1152
13868W        W30002   5.218   5.779   4.438  0.1015 -0.2646  0.0219
13869W        W30003   2.144   3.846  11.717 -0.0815 -0.1437 -0.2027
13870W        W30004   0.883  13.991  13.532 -0.1664 -0.1821  0.2961
13871W        W30005  14.514   3.868  16.151  0.3080  0.0346 -0.1169
13872W        W30006   5.405   1.409  11.597 -0.1405 -0.0885  0.1335
13873W        W30007  12.726  15.308  15.798 -0.0407  0.3101  0.2506
13874W        W30008  12.305  16.950   4.313  0.2151  0.0136  0.0238
13875W        W30009  12.246  10.763   3.847  0.1009 -0.1242  0.4767
13876W        W30010   5.873   3.629   1.256  0.0284 -0.1010  0.0377
13877W        W30011  11.177  10.614  13.815 -0.0069  0.2907 -0.1082
13878W        W30012  13.692   3.521  12.974  0.0867  0.0722 -0.2519
13879W        W30013   4.755   8.470  14.352 -0.1452 -0.0415 -0.0187
13880W        W30014  12.126   1.388   4.840  0.1464  0.1219 -0.0207
13881W        W30015   0.756  10.657  15.978  0.0773  0.3343  0.1607
13882W        W30016   3.823  13.364   3.890 -0.2279 -0.1450  0.0378
13883W        W30017   7.760   8.881  11.975  0.3072  0.0579  0.3487
13884W        W30018   9.762   8.078   0.908  0.1821 -0.2853 -0.0979
13885W        W30019  11.868  12.680  13.372  0.0167 -0.1062  0.3640
13886W        W30020  13.754   1.612  15.434 -0.3108 -0.2548  0.0639
13887W        W30021  15.925   4.944   3.629  0.2458 -0.0135  0.3740
13888W        W30022   3.876  13.596   0.282 -0.3039  0.3810  0.2387
13889W        W30023   0.218  13.627  14.105  0.0280  0.0077  0.0384
13890W        W30024  14.250  12.958  12.872  0.2895 -0.1747 -0.2444
13891W        W30025  15.900   8.443  13.016  0.0186  0.0912 -0.1579
13892W        W30026  17.207   3.844  13.076  0.0794 -0.2179 -0.0930
13893W        W30027  15.394  10.581  11.340 -0.1046  0.0935  0.2317
13894W        W30028  15.677   8.213  13.680  0.0064 -0.0378  0.1534
13895W        W30029  17.370   9.930   4.597  0.0138 -0.2281  0.0412
13896W        W30030   1.517   8.437   0.091 -0.3019  0.2553 -0.0027
13897W        W30031  12.333  15.171   1.793  0.1107  0.1214 -0.1275
13898W        W30032   7.765  17.406   2.027  0.2521  0.0080  0.3736
13899W        W30033   9.837   4.873   4.389  0.1489  0.0225  0.0470
13900W        W30034   4.254  10.495  15.667  0.0586 -0.1456  0.2341
13901W        W30035  14.413  16.854  11.858  0.0555 -0.1123 -0.0777
13902W        W30036   7.014  11.632  13.713  0.0867  0.2140 -0.1808
13903W        W30037   2.567  14.582   3.997  0.0079  0.0718 -0.1513
13904W        W30038  15.306  14.917   4.804  0.1375  0.0347 -0.0280
13905W        W30039   5.395   4.546  16.139 -0.0686  0.3336 -0.2367
13906W        W30040   6.360  14.652   3.641 -0.0889  0.1985  0.1053
13907W        W30041  13.112   8.540   4.552  0.1154  0.2440  0.0705
13908W        W30042   3.668   9.410  14.902 -0.2070  0.0720  0.3635
13909W        W30043   7.994   6.268  14.761 -0.0173 -0.1053 -0.0790
13910W        W30044   5.942   5.774   1.913 -0.0018  0.0710  0.0227
13911W        W30045   2.334   0.497  14.350 -0.0077  0.2513  0.0526
13912W        W30046   9.240   0.166   3.767  0.0166 -0.0073  0.2827
13913W        W30047  16.158  13.304  16.385  0.0795  0.2438  0.1243
13914W        W30048  11.910   9.876   0.581 -0.5909  0.2217 -0.3334
13915W        W30049   1.761  14.303   4.898 -0.0047 -0.1514  0.1633
13916W        W30050  16.018   3.121   4.863 -0.1866  0.0182 -0.1796
13917W        W30051   5.114   1.219  16.148 -0.1216 -0.0782  0.0371
13918W        W30052  12.173   5.763  15.297  0.2525  0.0851  0.0226
13919W        W30053  17.145   4.220   0.105 -0.0944 -0.3321  0.0673
13920W        W30054   6.437   4.953   0.652  0.3292  0.0325 -0.0340
13921W        W30055  11.221  17.237  12.587  0.3012 -0.1385  0.0211
13922W        W30056   0.988  17.907  14.585 -0.0194 -0.1953  0.1556
13923W        W30057   2.323   7.648   4.192  0.0387 -0.0300 -0.0387
13924W        W30058   5.606  17.248   0.592 -0.0664  0.1908  0.0777
13925W        W30059  17.964  13.912   5.364 -0.0396  0.3409  0.1759
13926W        W30060  17.093  16.979  14.465 -0.3529 -0.3775 -0.0096
13927W        W30061  13.856   5.367   1.779 -0.2676 -0.1088 -0.0764
13928W        W30062  16.095  17.256  10.866 -0.0443  0.1083  0.3129
13929W        W30063  10.787   2.395   1.772  0.2727  0.1444 -0.2399
13930W        W30064   9.492  13.948   3.340  0.2060 -0.0041 -0.0749
13931W        W30065   5.969   6.873   1.045  0.1340 -0.0610 -0.1067
13932W        W30066   4.455   9.666  16.650 -0.0750  0.1875 -0.2373
13933W        W30067   9.678   6.218   1.390  0.2353 -0.1179 -0.2267
13934W        W30068   1.607  13.684   4.347 -0.1961  0.3376 -0.1467
13935W        W30069   4.439   1.812  15.835 -0.1228 -0.1132 -0.2686
13936W        W30070  10.267  17.533   1.259 -0.2076 -0.2423 -0.0138
13937W        W30071   8.418   0.859  14.406  0.4133 -0.0336 -0.1106
13938W        W30072   3.833   0.099  14.987 -0.2809  0.0998  0.1142
13939W        W30073   2.899   8.808  12.843  0.0882 -0.0952  0.2503
13940W        W30074   2.478  11.085  12.228 -0.0879  0.0564 -0.0239
13941W        W30075  15.472  15.847   3.386 -0.1354 -0.1462  0.0286
13942W        W30076   4.468   1.400   2.981 -0.1129 -0.0345  0.3380
13943W        W30077   5.601   6.078   1.282 -0.0696 -0.1442  0.0407
13944W        W30078  16.141   9.732   2.013  0.0232 -0.1063 -0.1104
13945W        W30079  15.768   0.317   0.394  0.0957  0.1820 -0.1507
13946W        W30080  12.348   5.868   2.392  0.0476  0.0292  0.0540
13947W        W30081  13.790   4.437  13.942 -0.0018 -0.0992  0.0549
13948W        W30082  17.083   6.775  16.406  0.0079  0.0081 -0.0998
13949W        W30083   4.219  10.279   4.199  0.0004 -0.2032 -0.5288
13950W        W30084  12.852  16.852   5.512 -0.1014  0.1026 -0.3942
13951W        W30085   8.377  17.936   1.096  0.1397 -0.1928 -0.0741
13952W        W30086   7.609   9.888  11.438  0.1241 -0.0808 -0.0518
13953W        W30087   9.089  13.214  15.923 -0.0155 -0.0428 -0.4208
13954W        W30088  15.398   9.730  16.527  0.0934 -0.0416 -0.0392
13955W        W30089   9.164  16.403   0.343  0.1159  0.0241 -0.0769
13956W        W30090   1.711   7.141  14.718 -0.1336  0.0943  0.0819
13957W        W30091  16.923  10.964   3.408 -0.1087  0.1362  0.3127
13958W        W30092  10.615  10.416   0.726 -0.2258  0.1882 -0.0997
13959W        W30093  14.570   7.262  13.118 -0.0043 -0.2443  0.1647
13960W        W30094  10.344   0.869   0.057 -0.3991 -0.0093 -0.3673
13961W        W30095   0.155   6.691   2.126 -0.4532 -0.2029 -0.1539
13962W        W30096   6.168   6.339  14.242 -0.4786 -0.1244 -0.3687
13963W        W30097   9.808  10.448   2.558 -0.1225  0.0740 -0.0077
13964W        W30098   9.897  12.292   2.726 -0.0718  0.0587  0.1488
13965W        W30099  16.348   9.260   2.213  0.1443  0.1255 -0.0259
13966W        W30100   0.418   0.615   4.165 -0.0262  0.1534  0.2709
13967W        W30101  15.174   3.671   2.318  0.1185 -0.0377 -0.1551
13968W        W30102   7.673  14.594  14.361  0.2221  0.0670  0.3492
13969W        W30103  13.323  10.052  14.349 -0.0344  0.0702 -0.0986
13970W        W30104  12.729  15.874   0.401 -0.2093  0.0731 -0.1108
13971W        W30105  15.888  13.153  11.314  0.2955 -0.1056 -0.1084
13972W        W30106  11.485  10.937  14.088 -0.1609 -0.1878 -0.1266
13973W        W30107  12.236  12.068   2.051  0.0719  0.0900 -0.2183
13974W        W30108  10.734  11.140  13.408  0.0421  0.2376  0.2243
13975W        W30109  14.605  12.722   3.735 -0.4100  0.0381 -0.2564
13976W        W30110   4.689   0.956   3.612 -0.2171 -0.1281 -0.0113
13977W        W30111   4.578  14.923   5.326 -0.0117  0.1850 -0.0264
13978W        W30112  17.394   3.667  14.349  0.2972 -0.0708 -0.0486
13979W        W30113  17.091   8.792  14.114 -0.1335 -0.0567 -0.1761
13980W        W30114   4.565   9.178   3.379 -0.0297 -0.4450  0.2326
13981W        W30115   2.021  15.813  13.616 -0.1407  0.1628 -0.0793
13982W        W30116  10.225  14.038  12.567 -0.2555  0.0513 -0.3603
13983W        W30117   4.118   3.972   5.212  0.0410  0.0718 -0.2383
13984W        W30118  10.807   3.227  15.995 -0.0546 -0.0155  0.0586
13985W        W30119  14.005  10.887   0.649  0.0272 -0.2948 -0.1536
13986W        W30120   9.639   3.108  16.521  0.1465 -0.1958 -0.1917
13987W        W30121  16.382  11.186  14.555 -0.0358 -0.0608 -0.0662
13988W        W30122  16.910   4.931  14.561  0.0262 -0.0498 -0.3146
13989W        W30123   0.201  14.646  15.447 -0.0118  0.2020  0.1349
13990W        W30124  12.212  13.116   0.849  0.1587  0.0052  0.1828
13991W        W30125   4.591   6.250   5.864 -0.0298 -0.3394 -0.0396
13992W        W30126  15.498  14.127   3.844  0.0608  0.0588 -0.1804
13993W        W30127   2.170   1.923  16.035  0.0386 -0.1504 -0.1244
13994W        W30128   5.871   7.025   3.412  0.0554 -0.1849 -0.2382
13995W        W30129   5.051   4.180   2.549  0.2268  0.1043  0.1071
13996W        W30130   8.241   8.292  15.992 -0.1854  0.0866  0.1567
13997W        W30131   9.768   8.279  12.495 -0.4433  0.1867  0.1510
13998W        W30132   4.601   7.319   1.254 -0.3637  0.1278  0.0864
13999W        W30133   9.767  13.879  13.294 -0.0734  0.2584  0.1043
14000W        W30134   5.860  11.116   3.794 -0.1340 -0.0631  0.0951
14001W        W30135   3.695  10.884   5.088  0.1166  0.0677 -0.0213
14002W        W30136  17.801   3.128   3.875 -0.0569 -0.1714 -0.1452
14003W        W30137   5.065  11.471   4.796  0.2279  0.0893 -0.0474
14004W        W30138  17.643   3.631  13.052 -0.0787 -0.2544  0.1169
14005W        W30139  11.299   8.946   2.913  0.3593 -0.1322  0.3200
14006W        W30140   0.551  12.632  15.225  0.1846  0.1660 -0.1140
14007W        W30141   9.492  11.779   4.597  0.0016  0.2912  0.1079
14008W        W30142  11.088   9.661   1.110  0.1402  0.1363  0.0382
14009W        W30143   0.347   4.943  16.161 -0.1164 -0.0420 -0.0362
14010W        W30144  17.573  13.462   1.899 -0.0385 -0.1170  0.0136
14011W        W30145   4.608  10.151  11.271  0.0319 -0.0595 -0.1286
14012W        W30146  12.362   1.025  12.065 -0.2154 -0.3669 -0.1035
14013W        W30147   5.502   6.869   4.151 -0.0450 -0.2336  0.6089
14014W        W30148  16.062   9.767   4.368  0.0107  0.4015  0.1319
14015W        W30149   2.519   6.464  14.139 -0.0598 -0.2537 -0.1418
14016W        W30150  14.085  14.823   1.049  0.5819 -0.0201 -0.0289
14017W        W30151   4.305  11.250   4.686 -0.0438 -0.1172 -0.0046
14018W        W30152  17.688   3.273   0.339 -0.0637 -0.0374  0.1173
14019W        W30153  14.693   1.241  12.538 -0.0784  0.0607  0.0035
14020W        W30154  12.562   3.953   3.020  0.1596 -0.1375  0.0320
14021W        W30155   5.814   1.292  15.608 -0.2353 -0.1230  0.1154
14022W        W30156   7.386   7.067  12.852 -0.1409 -0.1905  0.0929
14023W        W30157   8.655   8.930  12.058  0.0166 -0.4119 -0.1624
14024W        W30158   8.658   3.393  16.315  0.0960  0.1525 -0.2060
14025W        W30159  16.528  15.602   3.247  0.0642  0.3260  0.1779
14026W        W30160   2.016  17.864   5.956 -0.0416 -0.0707  0.1089
14027W        W30161   5.404   8.699   2.106  0.0939 -0.0927 -0.2362
14028W        W30162   9.015   3.830   5.306  0.1704 -0.2125  0.0924
14029W        W30163  11.631  12.382  11.929 -0.0426  0.0249 -0.1490
14030W        W30164  14.725  12.291   4.037 -0.1668 -0.2118  0.1465
14031W        W30165  14.395  15.546   5.540 -0.1747 -0.2686  0.1270
14032W        W30166   7.226   9.832  10.374  0.2628 -0.1322  0.1268
14033W        W30167  14.209   6.953   4.790  0.2579  0.0535 -0.0777
14034W        W30168  15.230  15.761   4.390  0.2212 -0.1287  0.1501
14035W        W30169  17.605   0.180  13.410  0.2932 -0.0494  0.0019
14036W        W30170  10.436  12.476   2.512  0.0950 -0.1796 -0.1627
14037W        W30171  14.441   6.010  16.478  0.1629  0.2646  0.2287
14038W        W30172   3.132   5.590   0.779 -0.0383 -0.0631  0.0703
14039W        W30173  11.129  10.226  12.290  0.2800  0.0468 -0.0140
14040W        W30174  15.199  10.802   3.039 -0.1010 -0.0078 -0.4257
14041W        W30175   3.569   0.865  16.402 -0.1696 -0.0646  0.0890
14042W        W30176  11.252   4.991   2.238  0.0825  0.3034  0.0694
14043W        W30177   3.447   2.274  13.025 -0.0750  0.0226 -0.2438
14044W        W30178   6.381  13.509   2.608 -0.0976 -0.0268 -0.0584
14045W        W30179   5.485   6.408   3.738 -0.0931 -0.0658 -0.1551
14046W        W30180   1.617   3.956   2.867  0.0757  0.1577  0.0371
14047W        W30181   1.580   8.271   4.152  0.1437  0.0074  0.0279
14048W        W30182   3.439  10.348   1.416  0.1757  0.4573 -0.0693
14049W        W30183   2.150  15.099  13.943  0.5170  0.1265  0.1791
14050W        W30184   9.918   6.078   5.690 -0.0605  0.0328  0.3117
14051W        W30185   8.065   4.778   2.221 -0.1012  0.0353  0.0454
14052W        W30186   0.354  11.507   1.096  0.0544 -0.1744 -0.0777
14053W        W30187  11.231   8.911  12.085  0.0179 -0.1738  0.0060
14054W        W30188   0.312  13.354   1.146  0.4672 -0.1208  0.1815
14055W        W30189  10.542   5.114   5.743 -0.1428  0.1698 -0.1647
14056W        W30190   9.043  12.416   0.675  0.1746  0.0733  0.0497
14057W        W30191  13.654  10.464   4.504 -0.2158  0.1580 -0.0614
14058W        W30192   9.989   9.940  13.592 -0.3025  0.0168  0.2469
14059W        W30193   9.892   2.039  15.591  0.0019 -0.1011 -0.0898
14060W        W30194   2.001   4.074   5.138  0.0848  0.0643  0.0783
14061W        W30195   1.426   7.996  14.301 -0.4958  0.1525  0.0183
14062W        W30196  16.101  15.438   3.875 -0.3092  0.1104  0.0142
14063W        W30197   5.635  12.103   5.022 -0.0940 -0.1297  0.2732
14064W        W30198   4.929   9.796  13.096  0.1532  0.2240  0.3868
14065W        W30199   5.194  11.741  15.540 -0.0062  0.1597  0.0860
14066W        W30200   9.596  10.645  15.915 -0.0309  0.0105 -0.0859
14067W        W30201  13.528  13.736  15.741 -0.0468  0.1049 -0.0438
14068W        W30202  15.161  15.883  15.728 -0.2265 -0.0518 -0.1289
14069W        W30203  13.882  10.976  13.001  0.0719  0.0753 -0.1793
14070W        W30204  14.462  16.867   1.862  0.2204  0.0225  0.3620
14071W        W30205  11.979  10.651  12.507  0.0051 -0.0473 -0.0237
14072W        W30206   6.017   0.751   3.848  0.2313  0.0128  0.3764
14073W        W30207  12.640   9.692   3.286  0.0679 -0.2750  0.2081
14074W        W30208  11.866   1.036  12.121 -0.0915 -0.0993 -0.2254
14075W        W30209   8.814   3.191   4.535  0.0228 -0.1823  0.0629
14076W        W30210  17.507   9.466   2.849 -0.0192 -0.4065  0.0032
14077W        W30211   6.108   5.823  13.603 -0.0965  0.1597 -0.0544
14078W        W30212  14.163  16.741  12.304  0.0729 -0.2921  0.0386
14079W        W30213  13.170   6.413  14.596  0.0328  0.0675  0.0227
14080W        W30214  14.446  14.297   3.025  0.3319  0.0940 -0.0852
14081W        W30215   6.732   9.491  14.881  0.0185  0.1154  0.1383
14082W        W30216  11.241  12.569   0.830  0.1808  0.0458 -0.3924
14083W        W30217  12.292   5.867   4.254  0.0184  0.0017  0.1364
14084W        W30218   3.219   0.204   3.950 -0.0032 -0.1471 -0.3203
14085W        W30219  17.529  10.544   1.874 -0.1368  0.0233  0.1293
14086W        W30220   3.404   9.576  11.495  0.0488  0.1793  0.1059
14087W        W30221  14.883   9.988  16.339  0.0267 -0.1564 -0.2226
14088W        W30222   0.525  16.976  15.924 -0.1674 -0.1708 -0.3470
14089W        W30223  17.576   2.336  14.870  0.0023  0.1897  0.0171
14090W        W30224   6.853   4.261  16.206  0.0262  0.1911 -0.4410
14091W        W30225   2.928   0.951  15.249  0.0333 -0.0541  0.1002
14092W        W30226   4.160  16.685  14.417 -0.1045  0.2154  0.0806
14093W        W30227  13.922   9.379   2.969  0.0585  0.0831 -0.1514
14094W        W30228  15.016   2.649   1.988 -0.0184 -0.1449  0.1429
14095W        W30229   6.792  10.168   0.055  0.2689  0.0377  0.1295
14096W        W30230  16.328   4.273   4.173 -0.2425 -0.1037  0.2806
14097W        W30231   8.811  12.940  11.323 -0.0537  0.2021 -0.0991
14098W        W30232  14.903  10.337  15.937 -0.0716 -0.0031  0.1421
14099W        W30233   4.079  12.910  16.343 -0.0330  0.0155 -0.0284
14100W        W30234   1.791  14.419   0.030  0.1438 -0.0262 -0.0098
14101W        W30235   4.777  10.242   5.427 -0.2810 -0.0023  0.1774
14102W        W30236  12.172  14.758   1.735  0.2893 -0.2882  0.0700
14103W        W30237   9.946  10.789   3.864  0.2411 -0.1285  0.0821
14104W        W30238  15.764  10.495  13.502 -0.0969 -0.0572 -0.0047
14105W        W30239  15.554   0.804   3.876  0.0838 -0.0661 -0.3068
14106W        W30240  11.078   4.439  12.919  0.0738  0.2236  0.2570
14107W        W30241  15.190   8.701  15.029  0.0603 -0.2117 -0.0910
14108W        W30242   2.165   3.413   2.982  0.1151  0.1658 -0.1005
14109W        W30243  14.231   4.464  15.993 -0.1787 -0.3011 -0.0441
14110W        W30244   7.272   3.419  12.506 -0.1610 -0.2143  0.0306
14111W        W30245  14.063   9.703   1.209  0.1407  0.2040  0.0883
14112W        W30246  14.720   2.907  11.678  0.0132 -0.1595  0.4750
14113W        W30247   3.580   3.619  13.298  0.3159  0.0200 -0.0168
14114W        W30248   5.832  15.729  12.314 -0.1723  0.0355 -0.3287
14115W        W30249   5.377   7.744   5.474 -0.2204 -0.4450  0.1337
14116W        W30250   7.968   7.790  12.120 -0.1077 -0.2693  0.2311
14117W        W30251  12.645  16.153  16.615  0.0334  0.1041  0.0097
14118W        W30252   1.893  10.008   1.294 -0.2365  0.0340 -0.0682
14119W        W30253   1.949  15.211   3.022  0.1215  0.1109 -0.0369
14120W        W30254   8.709   3.193  11.886  0.3939  0.1531 -0.0498
14121W        W30255   0.873   5.040   4.756 -0.1134  0.0586 -0.1252
14122W        W30256  15.507  13.112  15.839 -0.2721  0.1147 -0.3547
14123W        W30257  16.346   4.320  12.886 -0.3685 -0.0603 -0.1319
14124W        W30258  10.203  12.443   0.048  0.1068 -0.0375  0.2034
14125W        W30259  15.892  12.946  14.243 -0.1726 -0.1232  0.0263
14126W        W30260  16.799   0.189   1.966  0.0676 -0.0631  0.0848
14127W        W30261   0.407   5.303   4.878 -0.0649 -0.2036  0.0378
14128W        W30262  10.088  11.632   3.250 -0.1765  0.0548 -0.2547
14129W        W30263   9.169  10.654   5.386 -0.2505 -0.1501 -0.4395
14130W        W30264   8.731  10.859   1.836  0.0682 -0.0825 -0.0507
14131W        W30265   6.627  17.897   2.212 -0.0428 -0.1027 -0.3036
14132W        W30266  17.885   4.166   4.404 -0.1549  0.0794 -0.1725
14133W        W30267   9.697  12.316   0.084 -0.2900 -0.2329 -0.2935
14134W        W30268  13.093  17.460  15.731 -0.1755 -0.1682 -0.0411
14135W        W30269  16.957   9.152   0.776 -0.0462 -0.0359  0.0773
14136W        W30270  12.253  11.356   5.287  0.3130  0.1857 -0.2151
14137W        W30271  13.109   9.041   3.478  0.0859  0.1066  0.3892
14138W        W30272   1.976  15.084   5.372  0.2222  0.0540 -0.0691
14139W        W30273  11.450   8.325  15.751 -0.1664  0.0919 -0.0434
14140W        W30274   4.459  15.890   2.083 -0.1489  0.0894  0.2441
14141W        W30275  11.472  11.328  13.796 -0.0182 -0.2170  0.0377
14142W        W30276  15.028   4.678  15.582  0.1366  0.5673  0.1201
14143W        W30277   3.260   4.455  13.821  0.1393 -0.1023 -0.1446
14144W        W30278  12.044  10.650   4.799  0.1899 -0.1707 -0.0068
14145W        W30279   7.344   1.206  12.900  0.3090  0.3827  0.2404
14146W        W30280   8.838   8.833  12.957 -0.1524 -0.1424 -0.0677
14147W        W30281   3.773   2.118  12.631  0.0656 -0.0215 -0.0588
14148W        W30282   8.949  13.529  15.055  0.0517  0.1698 -0.2698
14149W        W30283  14.421  11.760   1.645  0.1704 -0.1915 -0.1235
14150W        W30284  15.538   1.614  15.231 -0.0033  0.1590 -0.2164
14151W        W30285  10.465   0.134  12.129  0.0338 -0.0779 -0.1077
14152W        W30286   6.099   3.642  14.922 -0.2037  0.1394 -0.1907
14153W        W30287  13.159   4.693  15.406  0.0355 -0.3562  0.0955
14154W        W30288   3.251  11.763  16.527 -0.0869 -0.1088 -0.1666
14155W        W30289  15.166  16.968   0.024  0.0795 -0.0363  0.0308
14156W        W30290   5.490   1.704  15.303  0.2056  0.2782 -0.0436
14157W        W30291  13.072   4.318  14.253 -0.0150 -0.0758  0.0051
14158W        W30292   7.470  15.193  12.533 -0.1412  0.0920  0.1811
14159W        W30293   7.434   2.957  14.959  0.0773  0.3256 -0.2733
14160W        W30294  13.903  14.537   2.533  0.1705 -0.3162  0.2060
14161W        W30295  15.533  13.945  16.044  0.1167  0.1689 -0.1868
14162W        W30296  13.769   3.087  15.298  0.1369  0.1886  0.1500
14163W        W30297   8.874  15.127   3.207  0.1673 -0.2452  0.0674
14164W        W30298  13.451  15.751  16.136  0.1433 -0.0256 -0.0362
14165W        W30299  14.395   9.147  14.520 -0.0871 -0.2232 -0.1139
14166W        W30300  15.325   0.091  13.316  0.2109 -0.1402  0.0986
14167W        W30301  13.004   3.720  14.871  0.3662  0.1359  0.0753
14168W        W30302  15.103  12.982   1.842 -0.2276 -0.3309 -0.0431
14169W        W30303  13.252  13.795  14.780 -0.1823 -0.0099 -0.0879
14170W        W30304   1.984  10.392   4.441 -0.4517 -0.0995 -0.4490
14171W        W30305   2.337  10.487  15.359 -0.1078 -0.2820  0.3305
14172W        W30306  16.347  10.784  12.225  0.2714 -0.1420 -0.2274
14173W        W30307   9.377   0.992   4.821  0.0012 -0.0376 -0.1095
14174W        W30308   5.467  16.604   4.188  0.1103 -0.2180  0.2213
14175W        W30309   7.521   0.269  16.329 -0.0022 -0.1078 -0.2876
14176W        W30310  10.874   9.410  11.452  0.0426 -0.1867  0.3966
14177W        W30311  16.295  14.964   4.558 -0.0096  0.2896 -0.1118
14178W        W30312   8.539   7.706  14.150  0.3292 -0.3024 -0.0047
14179W        W30313   9.675  11.089  15.085 -0.0744  0.0394 -0.2395
14180W        W30314   0.089   1.717   2.757  0.2576 -0.0535  0.1473
14181W        W30315   4.307   7.885   1.888 -0.1427 -0.0907 -0.2061
14182W        W30316   3.989   7.348   4.587 -0.2371 -0.0428  0.2035
14183W        W30317   4.785   4.848  14.282  0.0767  0.0626 -0.1758
14184W        W30318  16.001  16.777   1.987 -0.2075 -0.0177 -0.1145
14185W        W30319  12.259   6.589  14.366 -0.0107  0.0707 -0.4828
14186W        W30320   7.730   9.881  11.937 -0.1622  0.1286 -0.0603
14187W        W30321  15.638   3.487   3.650  0.0671 -0.1040  0.1338
14188W        W30322   8.140   7.567  15.641  0.0399  0.0239 -0.3894
14189W        W30323  11.345   0.732   0.207 -0.1443 -0.1334  0.1350
14190W        W30324   1.042  10.730   5.205 -0.1151  0.2998  0.0346
14191W        W30325  14.256  15.117  11.664 -0.0151 -0.1379 -0.3351
14192W        W30326   0.971   4.323  15.857  0.0155 -0.1564  0.1004
14193W        W30327   9.398  11.983   5.147  0.0890 -0.1408  0.2440
14194W        W30328  17.802   1.728   1.081 -0.0270  0.0156  0.0953
14195W        W30329  15.301   1.199  14.410 -0.1025  0.5130  0.1775
14196W        W30330  14.926  15.991  11.760 -0.0135  0.0503 -0.0186
14197W        W30331  16.550  17.396   1.317  0.2690 -0.0739 -0.1594
14198W        W30332  10.434   4.305   2.206 -0.2783 -0.3040  0.2466
14199W        W30333  14.984  16.672  13.606 -0.1170 -0.0866 -0.1136
14200W        W30334   7.631   0.790  15.896 -0.0522 -0.3405 -0.1782
14201W        W30335   0.537   0.144   3.176 -0.3245 -0.0932 -0.2984
14202W        W30336  10.597  13.025   3.328  0.0053  0.1945  0.0405
14203W        W30337  10.808   1.634  13.141 -0.1682 -0.0672 -0.0206
14204W        W30338  12.933   3.213  15.936 -0.1826  0.1327  0.0393
14205W        W30339   2.943   7.436  16.359  0.0225  0.4372  0.3817
14206W        W30340  11.771  11.155   3.182 -0.0569 -0.1962 -0.1884
14207W        W30341   3.561   2.930  15.154 -0.0260 -0.0762 -0.2061
14208W        W30342   3.800  16.882   0.161  0.3130  0.0609 -0.1389
14209W        W30343   8.373  14.929   3.209 -0.1598 -0.0136 -0.1312
14210W        W30344   7.549   8.197  14.363  0.1976 -0.2628  0.1973
14211W        W30345  14.110  15.866  14.013 -0.1735 -0.1341 -0.3489
14212W        W30346  17.766  15.204   3.669  0.1484  0.1683  0.0379
14213W        W30347  11.877  12.897   2.758 -0.1678 -0.1200  0.0437
14214W        W30348  16.313  15.973   5.914  0.0178  0.2073  0.0320
14215W        W30349   1.716   1.509  11.787 -0.2463  0.0085 -0.0584
14216W        W30350  11.383  15.741   2.299 -0.1645  0.2092 -0.2629
14217W        W30351   4.637  14.450   5.044 -0.0280 -0.0537 -0.1491
14218W        W30352   4.111   8.055   4.708 -0.2750 -0.3488 -0.1392
14219W        W30353  11.553  16.601   5.927 -0.0722 -0.1246  0.2028
14220W        W30354   0.861   9.333  13.520  0.1622 -0.0844  0.2771
14221W        W30355   8.185   3.177   4.585  0.1448  0.1037  0.0459
14222W        W30356   3.176   4.964  14.092  0.1630 -0.1855  0.0288
14223W        W30357  13.691  15.081  13.492  0.4061  0.2957 -0.2324
14224W        W30358  16.050   3.147   5.865 -0.2518  0.3425 -0.1841
14225W        W30359  10.199   0.340   0.089 -0.1927  0.4003  0.1145
14226W        W30360  12.727   9.838  13.366 -0.1606 -0.0346 -0.2986
14227W        W30361   4.501   0.677   2.266 -0.0703  0.0014 -0.3980
14228W        W30362   5.864  12.890   0.419 -0.1166 -0.1050 -0.0771
14229W        W30363   5.591   0.326   5.109 -0.3851  0.0122 -0.0494
14230W        W30364   5.073   6.347  14.346  0.1667  0.2136  0.0166
14231W        W30365   2.789   8.994   3.063  0.0843  0.0190  0.1771
14232W        W30366   9.153   0.403  15.423 -0.1785 -0.0319  0.0909
14233W        W30367   6.969  17.965  14.054 -0.1314 -0.1074  0.0940
14234W        W30368   2.722   9.407  14.402 -0.0618  0.3143  0.0904
14235W        W30369   4.716   2.712  12.794  0.5383 -0.2910  0.0897
14236W        W30370  16.340  13.246  13.447 -0.0386  0.2277  0.2665
14237W        W30371  14.955   6.210  14.786  0.4588  0.1022  0.0676
14238W        W30372   6.594  15.315  15.857 -0.0002 -0.2060  0.2665
14239W        W30373  15.225   3.473   4.999  0.2919 -0.0717  0.1365
14240W        W30374   1.850  10.607  15.292  0.2243  0.0641  0.1784
14241W        W30375  11.744   8.687   1.462 -0.2949 -0.1569  0.0605
14242W        W30376   4.995   4.039   4.888  0.0620 -0.0188  0.2463
14243W        W30377   2.759   3.047   0.712 -0.1876  0.1571 -0.0644
14244W        W30378  17.541   7.773  14.248 -0.0774 -0.3371 -0.2157
14245W        W30379   3.286   0.107   4.986  0.0516  0.0831  0.0700
14246W        W30380   7.404  12.340   5.104 -0.4166 -0.1365 -0.1711
14247W        W30381   2.896   8.085  12.085 -0.0527  0.0180 -0.1814
14248W        W30382   7.079   6.240   5.005  0.1779 -0.0815  0.2231
14249W        W30383   3.358   6.466   1.414  0.3348 -0.2091  0.3785
14250W        W30384   6.169   2.478  16.259 -0.1379  0.0094 -0.1775
14251W        W30385   9.073   6.085  12.233  0.0291  0.3237 -0.0152
14252W        W30386  16.686   8.908   2.821 -0.0066 -0.1263  0.0945
14253W        W30387  14.836  12.154   0.391 -0.5163 -0.0243 -0.0973
14254W        W30388   0.671   4.911  14.890 -0.2577  0.1091 -0.0341
14255W        W30389   3.738   6.525  16.720 -0.1943 -0.2008  0.4747
14256W        W30390   8.042  11.652   4.452  0.4570  0.2353 -0.0820
14257W        W30391  17.108  16.552  14.183  0.0835  0.2129 -0.0346
14258W        W30392   6.256  13.076  15.330  0.0160  0.0158 -0.0584
14259W        W30393   6.289  13.684   4.391  0.0724 -0.1600  0.1943
14260W        W30394  17.229   3.926   2.720  0.0057  0.2520 -0.1238
14261W        W30395   4.269  16.833   0.894 -0.4117 -0.0404  0.2476
14262W        W30396  11.792  11.573   3.518  0.3371 -0.0207 -0.5190
14263W        W30397   7.796  10.285  13.786 -0.5113  0.0275 -0.2386
14264W        W30398  13.575   1.471  13.725  0.0605 -0.1882  0.2731
14265W        W30399  10.697  13.958   2.168 -0.0338  0.1614 -0.2074
14266W        W30400   5.258   6.852  16.437 -0.1955 -0.0297  0.1315
14267W        W30401   3.875   7.746   3.949 -0.6161 -0.0775  0.3870
14268W        W30402  10.620  17.930   2.651  0.1540  0.0484 -0.1668
14269W        W30403  15.435  15.124  13.189 -0.0788  0.0116  0.0618
14270W        W30404  12.707   1.194   3.627  0.3339  0.0098 -0.3389
14271W        W30405   9.174   1.622   1.819  0.0548  0.1037  0.1595
14272W        W30406   0.159  10.106  16.249 -0.1171  0.2517 -0.0647
14273W        W30407   7.618   8.545  13.970  0.0641 -0.2506 -0.1713
14274W        W30408   3.578   1.824   3.489 -0.3885  0.0883  0.0684
14275W        W30409   6.601   2.971   3.889  0.0018 -0.1465  0.0838
14276W        W30410   8.962  10.707  12.855  0.0043 -0.1957 -0.2091
14277W        W30411   2.415   8.203   4.451 -0.0518 -0.0559 -0.0114
14278W        W30412   6.469   2.016   2.188  0.2106  0.3561 -0.0777
14279W        W30413   6.874   1.260  12.480  0.1061  0.1174  0.4143
14280W        W30414   4.423   5.187  13.712 -0.0524 -0.1024  0.0307
14281W        W30415   1.618   4.881  16.533 -0.0626 -0.4004 -0.0350
14282W        W30416   2.055  12.962   3.560  0.1745 -0.2670  0.0155
14283W        W30417  13.102   2.050   5.983 -0.0277  0.2343 -0.1570
14284W        W30418   6.911   8.901  10.572  0.0611  0.1056  0.0891
14285W        W30419  13.388   0.602   3.265  0.1817  0.0108 -0.1381
14286W        W30420   1.415   4.510  11.490 -0.2230  0.0083 -0.0152
14287W        W30421  12.636   6.593   5.436  0.2276  0.1871  0.3861
14288W        W30422  14.388   9.706  13.844 -0.0494  0.0111 -0.3013
14289W        W30423  15.486  11.458   1.755 -0.1366 -0.0096 -0.0695
14290W        W30424  13.801   9.620   1.715 -0.2684  0.1808  0.2720
14291W        W30425   6.297  10.825  12.230  0.1133 -0.4906  0.1057
14292W        W30426   3.018   2.547   1.017 -0.1718 -0.2109 -0.0282
14293W        W30427   9.931   3.265   0.227  0.3113 -0.2925 -0.1555
14294W        W30428   6.246  10.900  14.654  0.1853  0.2109  0.2169
14295W        W30429   7.378   4.983   1.472  0.0006 -0.1129  0.0272
14296W        W30430   7.977  11.766  12.561  0.1899 -0.0412  0.1034
14297W        W30431   5.567   2.929   1.743 -0.0884  0.0334 -0.0027
14298W        W30432   1.223  12.179   0.947 -0.0222 -0.1020  0.0362
14299W        W30433   1.694  12.709   1.314 -0.2023  0.0875 -0.1866
14300W        W30434   7.154  12.260   0.697  0.0066 -0.0199 -0.1670
14301W        W30435  10.563  11.609  15.127 -0.1135 -0.0619  0.0899
14302W        W30436   4.217  11.562  13.204 -0.0617 -0.1090 -0.0119
14303W        W30437   1.731  15.524   5.366 -0.0174  0.2521 -0.1150
14304W        W30438  16.503  14.691   2.845 -0.3103 -0.1126 -0.0518
14305W        W30439   2.859   7.812   2.999 -0.1729 -0.2169  0.4445
14306W        W30440  10.797   9.697   0.295  0.1060 -0.1790 -0.1982
14307W        W30441  14.341   0.225  14.853 -0.2645 -0.1527 -0.0545
14308W        W30442  12.396   6.102  11.461  0.2499 -0.0159 -0.0489
14309W        W30443   1.009   2.180  12.519  0.0140  0.0977  0.0289
14310W        W30444  14.458  16.137   1.366 -0.2841 -0.2197  0.0067
14311W        W30445  11.589  12.613   1.181 -0.2016 -0.2111 -0.4410
14312W        W30446  12.346   7.224  15.094  0.1131  0.0358  0.0621
14313W        W30447  10.016   9.646  12.848  0.0813 -0.0956  0.2014
14314W        W30448  14.438   0.080  13.925 -0.2285 -0.0965  0.1682
14315W        W30449   6.148   3.898   6.639  0.2488 -0.1138  0.1164
14316W        W30450   8.201   9.891  14.904 -0.2620  0.1298 -0.1190
14317W        W30451   6.405  13.348   3.513  0.2035  0.2229  0.0790
14318W        W30452   5.951   7.803   2.313  0.0030 -0.0168 -0.2322
14319W        W30453   5.954   5.818   4.847  0.0126 -0.0328  0.1240
14320W        W30454   8.012  14.699  16.311  0.1838  0.0182  0.1142
14321W        W30455  15.484  15.580   1.610  0.1720 -0.1031 -0.2682
14322W        W30456  16.595   4.897   2.545  0.1980 -0.1132  0.2624
14323W        W30457  12.770  15.927   1.442  0.2152 -0.0437 -0.0407
14324W        W30458   0.630   5.247  13.383 -0.1537  0.1559  0.1453
14325W        W30459  11.018  11.933  15.260  0.0578  0.1689 -0.2087
14326W        W30460   7.378  13.174  13.217 -0.0514 -0.2777  0.0965
14327W        W30461   9.458   9.119   3.774  0.0590  0.0861  0.1101
14328W        W30462  13.436   1.057  11.335 -0.0517  0.1321  0.0391
14329W        W30463  13.036   8.183  11.483  0.2892  0.0756 -0.3020
14330W        W30464   6.770   8.135  15.252  0.1747 -0.0361  0.0425
14331W        W30465   9.389  14.741  12.308  0.0544  0.0703  0.0620
14332W        W30466  17.347   2.086  14.002  0.3420  0.1421 -0.0652
14333W        W30467  17.930   9.666   2.743  0.0708  0.2876  0.0837
14334W        W30468   7.579   1.102  13.936  0.0891 -0.1321  0.0299
14335W        W30469  12.365  16.149   4.967  0.1329 -0.1017 -0.2175
14336W        W30470  17.362  17.908   0.286 -0.0391 -0.0355  0.0519
14337W        W30471  11.103  12.252  10.760 -0.1503 -0.0668  0.2949
14338W        W30472   3.844   8.892   3.011  0.2104  0.2724  0.2698
14339W        W30473   3.892   6.288   2.014  0.1655  0.3753 -0.0628
14340W        W30474   0.099  14.651   3.818  0.2310 -0.1613 -0.0981
14341W        W30475  16.580   7.524  12.042  0.0910 -0.0546  0.4433
14342W        W30476  11.893   7.657  12.334 -0.0271 -0.2086 -0.0448
14343W        W30477   9.903  11.023  16.110 -0.1534 -0.1760  0.1485
14344W        W30478  11.786   4.371   0.664 -0.1038 -0.0134 -0.2294
14345W        W30479   3.036   2.658   3.432  0.4935 -0.0207 -0.0423
14346W        W30480   6.720  10.624  14.566 -0.3008  0.0288 -0.0261
14347W        W30481   0.131  15.824   4.780 -0.1606  0.2029 -0.1601
14348W        W30482  12.802   3.021  13.828  0.2379  0.0650  0.3402
14349W        W30483  12.765  14.016   1.732  0.1363 -0.0769  0.3410
14350W        W30484   8.249  17.473   4.836  0.3864 -0.2481  0.0847
14351W        W30485  12.319   9.909  16.570  0.0353  0.1506 -0.1885
14352W        W30486  12.149   8.393  14.356 -0.0013  0.0857  0.0705
14353W        W30487  17.259   2.386  16.293 -0.1796 -0.1915  0.0815
14354W        W30488  13.480  10.150  16.554 -0.1714 -0.0925 -0.0793
14355W        W30489  14.307  11.596  11.900 -0.0782 -0.2847  0.0606
14356W        W30490  15.039   4.527   1.870 -0.1935  0.2045  0.1128
14357W        W30491   8.680   0.477  15.122 -0.1209 -0.0686 -0.1495
14358W        W30492   5.495   1.630   4.443  0.0215  0.4165  0.0434
14359W        W30493  16.386  11.946   4.939  0.1271  0.0907  0.1962
14360W        W30494   5.559   1.036   1.584 -0.1571  0.1258 -0.4527
14361W        W30495   5.155   9.983  11.171 -0.0241 -0.2215  0.2311
14362W        W30496  11.321  12.258  16.112 -0.1680  0.0280  0.0592
14363W        W30497   2.875  12.160  16.631  0.0435 -0.1662  0.4858
14364W        W30498  11.434   9.222   1.182  0.2004 -0.1554  0.1358
14365W        W30499   9.811   2.115  14.348  0.0919  0.1458  0.0761
14366W        W30500  16.651  11.076  15.920 -0.6651  0.0744  0.0335
14367W        W30501   7.431  14.513   4.339 -0.2142  0.1271  0.1047
14368W        W30502   2.413   7.814   4.805  0.0086  0.0412  0.0879
14369W        W30503   0.917  16.389  13.938  0.1569  0.3590 -0.1347
14370W        W30504   4.080  17.076   5.230  0.1210 -0.1392 -0.2433
14371W        W30505   7.608  10.137  13.312  0.1219  0.0508 -0.1621
14372W        W30506  11.217  13.778  14.387  0.2994  0.1214  0.2087
14373W        W30507  12.441  11.960  15.682  0.0219  0.1330 -0.1040
14374W        W30508   7.759  10.002   3.840  0.1034 -0.2574  0.0608
14375W        W30509  12.918   5.962   2.824 -0.2275 -0.0235  0.0345
14376W        W30510  17.801   1.026   4.589  0.1085  0.0767  0.0231
14377W        W30511   8.907  12.102  13.516  0.1857  0.2530  0.1473
14378W        W30512  14.390   4.328   5.014  0.0473  0.1592 -0.0569
14379W        W30513   4.501   9.716  12.917  0.0610  0.0067 -0.1236
14380W        W30514   4.583  17.750  13.656  0.4553 -0.2112 -0.0530
14381W        W30515   4.702   4.814   1.026 -0.0434 -0.0442  0.0427
14382W        W30516   9.164  14.168   5.048  0.0546  0.0430  0.0665
14383W        W30517  12.335  16.429  12.186  0.1044  0.0582 -0.3778
14384W        W30518  14.284   4.997   0.046 -0.0474  0.0612  0.0411
14385W        W30519  17.265  13.163  16.464 -0.0310 -0.1978 -0.1314
14386W        W30520   2.416   3.908   2.215  0.3288  0.1713 -0.1608
14387W        W30521   9.542   8.596  15.124 -0.0305 -0.1743 -0.1076
14388W        W30522   3.691   3.657  15.280 -0.1256  0.1382  0.0081
14389W        W30523   8.795  16.470   1.661  0.0178 -0.0251  0.0724
14390W        W30524   2.150   9.252  15.550  0.0885  0.0362  0.0905
14391W        W30525   3.255   2.195   3.411 -0.4145 -0.1559 -0.1492
14392W        W30526  14.140   7.199   1.878 -0.0954  0.2916 -0.0879
14393W        W30527   4.360   5.579  14.604 -0.0585  0.0039  0.2603
14394W        W30528   4.667  11.588   4.567 -0.0567  0.0961 -0.2952
14395W        W30529  15.656   1.715   3.625  0.2340  0.1375 -0.1124
14396W        W30530  11.168  12.493  12.121 -0.1118  0.0211 -0.0257
14397W        W30531  13.997  12.656  14.041 -0.1585  0.0904 -0.0014
14398W        W30532   4.584  14.428  12.166 -0.3346  0.2896  0.1095
14399W        W30533   4.563   1.908   5.137 -0.1250  0.0173  0.1645
14400W        W30534  15.222   2.154   2.396 -0.1442  0.3051 -0.1231
14401W        W30535  12.590  15.449   5.859 -0.0662  0.0061 -0.0774
14402W        W30536   1.424   1.005   1.669 -0.4336 -0.0730  0.1676
14403W        W30537   3.019  16.091  15.464  0.0659 -0.0056  0.3401
14404W        W30538   6.823  15.902  14.011  0.0471  0.1292  0.0170
14405W        W30539   7.669   0.852  11.957 -0.0149  0.0569 -0.0867
14406W        W30540   7.839   6.860   5.168  0.3029  0.0063 -0.0464
14407W        W30541   8.250  17.766  14.096  0.0607 -0.1167  0.2760
14408W        W30542   2.642  10.469  12.222  0.1555 -0.1232  0.0840
14409W        W30543   6.275  16.494  13.600  0.0753  0.0062  0.1131
14410W        W30544  13.357   9.482   4.478  0.1531 -0.0378  0.1505
14411W        W30545   9.373   9.076   4.449  0.0350  0.2671 -0.3104
14412W        W30546   3.571   9.787  13.862  0.0463  0.3079  0.0881
14413W        W30547  14.684  11.506   0.554  0.1347 -0.1990 -0.0787
14414W        W30548  12.706   3.275  16.403 -0.0413  0.2005 -0.0744
14415W        W30549   0.822   8.257  14.970  0.3225 -0.1184 -0.0048
14416W        W30550  14.642  11.065   5.497 -0.3554  0.0875  0.1998
14417W        W30551  13.196  13.233   2.129 -0.1976  0.1584 -0.1382
14418W        W30552   2.433   0.824   2.266  0.0809 -0.2701 -0.2919
14419W        W30553  12.188   4.299  15.081  0.0474 -0.1312  0.1131
14420W        W30554   0.793   1.473   3.828  0.0517  0.1348 -0.4032
14421W        W30555   4.841   7.341  14.432  0.2930 -0.1192  0.0467
14422W        W30556   2.975  12.014  16.122  0.1452  0.0980 -0.0179
14423W        W30557   8.107   5.301   4.940 -0.0877  0.0776  0.3616
14424W        W30558  14.408   8.152  12.865  0.2200 -0.1474 -0.1448
14425W        W30559  10.320   0.065  11.463  0.1968 -0.0207  0.1337
14426W        W30560   6.987  16.633  13.431 -0.4524  0.2075  0.0034
14427W        W30561   5.687  15.353  16.440  0.1511 -0.3488 -0.0724
14428W        W30562  10.897   1.102   1.440  0.1216  0.4481 -0.0091
14429W        W30563   8.856   8.885   2.060  0.1484  0.1342  0.1480
14430W        W30564   9.038  12.945  13.541 -0.1960  0.0086 -0.0807
14431W        W30565   9.603   4.052  15.676 -0.0336 -0.2073  0.1482
14432W        W30566  10.084  12.408  12.710  0.0155 -0.5184 -0.1299
14433W        W30567   2.509   1.856   3.201  0.1642 -0.0767  0.2349
14434W        W30568  15.612   7.355  14.438 -0.3785 -0.2430 -0.1031
14435W        W30569  12.752   1.552   4.840 -0.0789  0.0545 -0.0391
14436W        W30570   2.846  15.549   2.134 -0.3199 -0.0284  0.0946
14437W        W30571  16.889   8.937   4.810 -0.1822  0.0471 -0.2418
14438W        W30572   0.105   0.988   4.100 -0.1492  0.1528  0.0136
14439W        W30573   2.419  16.466   4.440  0.4855 -0.1074  0.1196
14440W        W30574  17.049  17.512   1.036 -0.1381  0.1765  0.0731
14441W        W30575  15.862  16.672  13.744  0.0557  0.1013  0.1247
14442W        W30576   4.030   5.920   0.561  0.1452 -0.1815  0.0524
14443W        W30577  12.619   4.616   5.895 -0.0932  0.0623  0.0520
14444W        W30578  12.957   9.344   3.099  0.1183  0.1038  0.0630
14445W        W30579  17.867  10.563   2.864  0.2111 -0.0274  0.1267
14446W        W30580   5.140   2.351   4.022  0.2240 -0.1333  0.0281
14447W        W30581  16.561   6.848   4.876 -0.4716 -0.0701  0.0544
14448W        W30582   8.878   7.414   5.772  0.0686  0.0482 -0.3222
14449W        W30583  13.887   3.294  14.679  0.0789  0.0368  0.0346
14450W        W30584   0.144  13.385   1.957 -0.0035 -0.2457  0.3313
14451W        W30585  11.519   7.001  16.613 -0.0516  0.2047 -0.0300
14452W        W30586   3.085  15.501  14.232 -0.1144 -0.1664 -0.0311
14453W        W30587   6.553  15.766   4.744  0.2626  0.0920 -0.3223
14454W        W30588   1.903   2.940  11.949  0.0269  0.0232 -0.0510
14455W        W30589   5.479  13.476  16.002 -0.0823  0.0089  0.3066
14456W        W30590   2.119  12.634  13.777  0.1985  0.0100 -0.0770
14457W        W30591   7.329   1.096   5.148  0.0271 -0.4749  0.1861
14458W        W30592  17.898  17.143   5.180  0.1631  0.0625  0.1506
14459W        W30593   8.677   7.936   3.447 -0.1751 -0.1835  0.2375
14460W        W30594  12.113  16.012  15.884 -0.0347  0.0959  0.1625
14461W        W30595   2.157  14.543  13.808  0.0166  0.2444 -0.1161
14462W        W30596   8.548  15.034  13.961 -0.1853 -0.3482 -0.0853
14463W        W30597   6.090   8.152  14.786 -0.0336  0.0334  0.0041
14464W        W30598   4.678   0.274   5.636  0.0935 -0.1543 -0.0307
14465W        W30599   6.099   6.668  11.792  0.0916  0.2583 -0.0111
14466W        W30600  16.950  16.181   3.580 -0.4720 -0.2080  0.1246
14467W        W30601  11.777  11.260   5.949 -0.3525  0.0020 -0.2781
14468W        W30602   6.015   7.783  15.592  0.0246  0.2544  0.0998
14469W        W30603   7.296   8.718   4.984  0.0727  0.0575  0.3017
14470W        W30604  11.812  12.598   2.250  0.0956 -0.1502 -0.1446
14471W        W30605   2.434   0.410  12.215 -0.1052 -0.1777 -0.0859
14472W        W30606   0.080   4.107  15.914 -0.2214  0.1869  0.0311
14473W        W30607  12.219   2.067   5.729  0.1333 -0.0348  0.0298
14474W        W30608  15.021   6.264   3.784 -0.0403  0.0771  0.0638
14475W        W30609  15.900   0.472   3.155 -0.1089 -0.0683  0.1770
14476W        W30610  15.501  11.171  12.140  0.0508 -0.0226  0.0403
14477W        W30611   8.350  11.621  12.026 -0.2921  0.3737  0.2070
14478W        W30612  15.928  17.004  15.423 -0.1250 -0.3142 -0.0803
14479W        W30613  13.343  10.725  16.040 -0.3669 -0.2239 -0.0845
14480W        W30614  11.561   9.134  12.729  0.1583  0.0819  0.1906
14481W        W30615  15.982   3.112  14.605  0.2514 -0.0461 -0.0180
14482W        W30616   9.161   9.467   4.023  0.1327 -0.0282 -0.0105
14483W        W30617  16.668   6.738   0.311  0.0370 -0.3398 -0.2383
14484W        W30618   3.756   3.845   4.863 -0.1063  0.1211  0.1025
14485W        W30619   5.681   6.369  12.052  0.1467 -0.0230 -0.1285
14486W        W30620  14.684  15.317   3.959  0.0435 -0.0127  0.0356
14487W        W30621   8.051  14.003   3.234  0.1829 -0.0056  0.1097
14488W        W30622  15.417  10.626   1.782  0.0004  0.1195  0.1226
14489W        W30623  14.748  14.469   5.007  0.1080  0.1100  0.2204
14490W        W30624   8.649   9.646   3.980  0.1779 -0.1328 -0.2715
14491W        W30625   9.943   7.980   5.356  0.2945 -0.1988 -0.4243
14492W        W30626   3.205   2.054  13.456  0.0466  0.1164 -0.2227
14493W        W30627  15.324  16.196  11.940 -0.2878  0.0963 -0.0470
14494W        W30628   7.325  11.543  12.878 -0.1873  0.1046 -0.2503
14495W        W30629  12.242   0.231  13.202 -0.1953  0.1004  0.1379
14496W        W30630  16.255   4.417   2.015 -0.1623 -0.0015 -0.1336
14497W        W30631  13.374   6.835  15.263  0.0761 -0.1367 -0.1185
14498W        W30632  14.273   3.766  13.670 -0.2661  0.2093  0.1192
14499W        W30633  15.984   7.253   4.496  0.1657 -0.0495 -0.2904
14500W        W30634  12.591   2.342   2.367  0.3242  0.1052 -0.1985
14501W        W30635   9.019  12.676  15.170  0.2154 -0.1440  0.3054
14502W        W30636   0.425  11.374   0.206  0.0200  0.2104 -0.1237
14503W        W30637   6.992  17.577   4.053  0.1380 -0.0176 -0.0668
14504W        W30638  11.192  11.307  12.660 -0.1508 -0.2731 -0.0550
14505W        W30639   5.101   0.855   1.490  0.0877  0.0431  0.0449
14506W        W30640  10.995  17.780   3.043 -0.1006 -0.1456  0.0604
14507W        W30641   9.538   1.283   0.604  0.1769  0.0471  0.2983
14508W        W30642  17.134   7.907   4.295  0.4184  0.1643 -0.0343
14509W        W30643  15.938   8.496  15.137 -0.3976  0.0602 -0.0242
14510W        W30644  10.088   7.019   0.900  0.2837 -0.1207  0.3391
14511W        W30645   6.652  15.419  14.003  0.0988  0.0725 -0.1839
14512W        W30646  14.066   2.318  13.622  0.0276 -0.1098 -0.0378
14513W        W30647   2.065   2.169   3.003 -0.0218 -0.2430 -0.0790
14514W        W30648  14.720   7.975  13.507 -0.1070  0.2888  0.1563
14515W        W30649   2.939  17.510  14.969  0.0612  0.0880 -0.0286
14516W        W30650   5.519   5.930  15.798  0.3813  0.0776  0.1958
14517W        W30651   3.868   5.398  15.952  0.3076  0.0948  0.1723
14518W        W30652  16.731   9.909   3.902 -0.1178 -0.0255 -0.1905
14519W        W30653  16.686   1.812   2.024 -0.1391 -0.2194 -0.1019
14520W        W30654  16.732  17.303   1.774  0.1795 -0.3100 -0.1391
14521W        W30655   2.959  17.075   3.655  0.5262  0.1700 -0.1568
14522W        W30656  17.133  16.014  14.260  0.0496 -0.0816  0.0413
14523W        W30657   6.208   8.162   4.267  0.3522  0.1421 -0.0761
14524W        W30658  13.635  15.235   5.156 -0.0032 -0.0343  0.1717
14525W        W30659   3.830   0.594   1.156 -0.3034  0.0418 -0.1545
14526W        W30660   2.445   6.633   2.207 -0.2578  0.1608 -0.0431
14527W        W30661   7.345   2.527   3.413 -0.1867  0.1041  0.0044
14528W        W30662   2.159  16.987  12.523  0.1148  0.1939  0.0543
14529W        W30663  15.808  17.509  16.582  0.1101 -0.1555 -0.1041
14530W        W30664  12.038   6.626  12.670  0.0152 -0.1856  0.0852
14531W        W30665  16.574   6.366  14.427  0.1486  0.3548  0.0108
14532W        W30666   3.162   6.764   2.963  0.1359 -0.0976  0.0868
14533W        W30667  10.449  15.405  12.706  0.0747 -0.3415  0.1305
14534W        W30668   5.575   0.002   3.543 -0.1244 -0.0514 -0.2466
14535W        W30669  11.809  17.393  16.521 -0.1194  0.0229 -0.3170
14536W        W30670  16.060   0.069  12.222  0.1721  0.1338  0.0538
14537W        W30671  14.984   5.993  14.361  0.1650 -0.0156 -0.2746
14538W        W30672   4.792  16.178  16.031  0.2268 -0.2095  0.2194
14539W        W30673  14.389   9.669  16.538 -0.0024  0.1403 -0.0749
14540W        W30674  11.947   3.798   5.094 -0.0247  0.0170  0.1582
14541W        W30675  14.135   8.619  12.830 -0.2988 -0.2989 -0.2042
14542W        W30676   0.143  15.250  15.084 -0.2315 -0.2872  0.2762
14543W        W30677   6.511  17.768  14.540 -0.2421 -0.1467 -0.1577
14544W        W30678   9.354   0.942  12.902 -0.0923  0.0109 -0.0066
14545W        W30679  10.487   9.745  11.354  0.0865  0.0449 -0.3573
14546W        W30680  10.487   6.702  13.666  0.0526  0.1107 -0.1189
14547W        W30681   7.829  17.282   5.194 -0.0463  0.3387  0.2838
14548W        W30682  13.853   9.213   1.392  0.1056  0.0491 -0.0207
14549W        W30683   5.586  10.686   2.635 -0.1476 -0.1507 -0.1472
14550W        W30684   0.468   2.712  15.149  0.2568  0.2206 -0.1084
14551W        W30685   5.084   7.697  13.020  0.0087  0.0144  0.0350
14552W        W30686  12.298   2.091  15.920 -0.2185 -0.2869 -0.0569
14553W        W30687   9.954   8.007  15.859  0.1591 -0.1310 -0.0497
14554W        W30688  13.349   7.660   5.669 -0.2261  0.0246  0.1787
14555W        W30689  13.979   7.837   1.827  0.1567 -0.3569 -0.1997
14556W        W30690  10.822  16.485  14.031 -0.5607  0.0294  0.1571
14557W        W30691   7.232  11.963   1.128  0.2071  0.2245  0.0308
14558W        W30692  12.790  17.634   0.840 -0.0669 -0.0852  0.0430
14559W        W30693   1.011   8.874   0.113 -0.1627 -0.1414  0.1884
14560W        W30694   3.117  16.503  14.541 -0.0787 -0.2544  0.1757
14561W        W30695  17.151  16.562   4.585 -0.2544 -0.2458  0.1002
14562W        W30696  12.312  11.757   0.992  0.0316 -0.2376  0.0903
14563W        W30697  16.911  11.037  12.839  0.2688 -0.0357  0.1692
14564W        W30698  10.278  12.829  12.498 -0.0837  0.1047 -0.0933
14565W        W30699   3.665  12.520   6.139 -0.2084  0.1032  0.0458
14566W        W30700  11.376   4.740   3.227  0.0149 -0.2046 -0.0928
14567W        W30701   6.800  16.340   3.215 -0.2184  0.2222  0.1114
14568W        W30702   4.893   5.191   2.621  0.1791  0.2115  0.0277
14569W        W30703   2.675   1.868   4.682 -0.4559 -0.0428  0.1865
14570W        W30704  17.905   3.077  16.290  0.0355  0.1769 -0.1928
14571W        W30705  13.537  11.920  16.663  0.0677 -0.0913  0.2336
14572W        W30706   3.363   1.461   4.454 -0.0752  0.3065  0.4569
14573W        W30707  12.038  10.776  10.247 -0.2855  0.1096  0.0715
14574W        W30708   8.651   5.849  11.653 -0.0490  0.3308  0.0138
14575W        W30709  17.129  16.071   6.343 -0.0626  0.4391 -0.1389
14576W        W30710  17.857   2.245  11.890  0.0262  0.2139 -0.0189
14577W        W30711   6.575   1.165  16.204 -0.1329 -0.3918  0.1484
14578W        W30712  13.969   4.656   0.294  0.4063 -0.1878 -0.1318
14579W        W30713  16.634   0.438  14.561 -0.0370  0.0369 -0.2527
14580W        W30714   9.469   1.039  12.136  0.2201  0.1443  0.2889
14581W        W30715   2.116   7.089  15.162  0.1511  0.1087 -0.0310
14582W        W30716   1.679   1.513   2.604 -0.0629  0.0546  0.1076
14583W        W30717  11.800  15.664  15.553  0.2297 -0.2291  0.3076
14584W        W30718  15.074   1.719   3.664  0.2007 -0.1073 -0.4012
14585W        W30719   9.019   9.921   3.805  0.0262  0.2157  0.2245
14586W        W30720   9.910   0.560  13.767  0.2347 -0.2743 -0.1455
14587W        W30721   8.777   1.851   1.705 -0.1462 -0.2562  0.1520
14588W        W30722   2.787  15.989  11.556  0.1376 -0.0678  0.1065
14589W        W30723   8.380  17.114   5.165 -0.4655 -0.1671 -0.0124
14590W        W30724  13.914  16.731   1.972  0.0276  0.2129  0.4200
14591W        W30725  15.505   0.384   3.522 -0.0011 -0.4974  0.1183
14592W        W30726   9.413   4.804   2.424  0.0818  0.0435  0.0167
14593W        W30727  11.481   4.871  12.549 -0.0042  0.0265 -0.0118
14594W        W30728   7.422   6.671   5.438 -0.1536  0.1325  0.0686
14595W        W30729  14.922  10.263   0.443 -0.3769 -0.0878 -0.2835
14596W        W30730  16.002   4.719  15.560 -0.3954  0.2203 -0.1040
14597W        W30731   7.387  17.330   4.319 -0.1407  0.1536 -0.0156
14598W        W30732   9.134   4.629  14.567  0.0414 -0.2070  0.0508
14599W        W30733   0.032  14.027  13.739  0.1490  0.0612 -0.4485
14600W        W30734  14.364   3.586  14.684 -0.1317  0.4377  0.1476
14601W        W30735  15.011   6.929   1.723  0.1689  0.0317  0.1560
14602W        W30736  12.009   2.938   1.828 -0.1136  0.2499  0.0857
14603W        W30737   5.965   5.329   1.604 -0.0454  0.1509 -0.1753
14604W        W30738  17.365   9.135  15.516 -0.2311 -0.1090 -0.0767
14605W        W30739   1.838   1.562  15.852 -0.0375 -0.2072 -0.1545
14606W        W30740  12.724  14.559   1.801  0.0572  0.1574  0.1233
14607W        W30741   7.208  17.524  14.071 -0.0555 -0.0794 -0.0500
14608W        W30742  16.413  12.617   3.026  0.1318  0.2420  0.1912
14609W        W30743  17.486  10.271   3.368  0.0580 -0.0154 -0.1029
14610W        W30744   4.080  16.775  15.820  0.1533  0.0283 -0.0412
14611W        W30745  15.964   5.104  11.941 -0.1645  0.0415 -0.0742
14612W        W30746  12.915   5.477  15.228  0.1166  0.0999 -0.2967
14613W        W30747  13.272  14.515   4.184 -0.1218 -0.0115  0.0469
14614W        W30748   2.116  14.879  11.598 -0.5168  0.0983 -0.0447
14615W        W30749  11.625  13.796  12.923  0.1285  0.1809  0.1249
14616W        W30750  13.838  17.683   3.282  0.1101  0.1973 -0.2937
14617W        W30751   6.700   9.357   4.971  0.0148 -0.1074 -0.1129
14618W        W30752  10.321  16.273   4.146  0.0095 -0.0609  0.0109
14619W        W30753  17.518   9.992   6.553 -0.2901  0.1739  0.1819
14620W        W30754  14.823  15.476   0.048  0.4909 -0.4669  0.1332
14621W        W30755  12.959  14.563   4.957 -0.2210  0.2684 -0.4008
14622W        W30756  11.356  11.481   3.325 -0.1205 -0.0679  0.0928
14623W        W30757  10.109   2.287   3.050  0.2911 -0.4499  0.1434
14624W        W30758   4.495   3.925  11.304  0.2531 -0.0359 -0.0094
14625W        W30759  16.191   4.760  13.228 -0.0194 -0.2306  0.0708
14626W        W30760   7.250   1.732  12.845  0.1053  0.2054 -0.2154
14627W        W30761   7.830   7.741  14.111  0.1359 -0.1590 -0.0452
14628W        W30762  17.539  10.658  14.864 -0.0025 -0.0710 -0.1741
14629W        W30763  13.768  12.234  15.434  0.0986  0.1741  0.1917
14630W        W30764  10.665  17.023   3.199  0.0136 -0.1777  0.0543
14631W        W30765   8.603   2.585   3.775 -0.2681 -0.0720 -0.0218
14632W        W30766  15.051   2.282  15.101  0.2262  0.0308 -0.2236
14633W        W30767   7.395   2.600   5.986 -0.1213 -0.0269 -0.0479
14634W        W30768  14.532   4.710   4.099 -0.0363  0.1459 -0.0518
14635W        W30769   8.155  17.932  15.445 -0.0128  0.1991 -0.1774
14636W        W30770  13.379  14.304   5.241  0.0831  0.0264 -0.0405
14637W        W30771  12.445  14.976  14.392  0.2633  0.0894  0.0167
14638W        W30772  12.388  14.635   5.661 -0.3499  0.1913  0.0301
14639W        W30773   5.650   4.160  14.341 -0.3356  0.1754 -0.1734
14640W        W30774   3.273   3.194  13.947  0.2414 -0.0097  0.0699
14641W        W30775  16.467   2.771   1.096  0.3989  0.3783 -0.0681
14642W        W30776   0.603   0.896  15.582 -0.0368  0.2134 -0.1069
14643W        W30777   9.995  17.152  15.001 -0.1126  0.1238  0.1077
14644W        W30778   1.801   1.906  14.253 -0.3701  0.3416  0.0177
14645W        W30779  15.826   6.259   1.039  0.2767  0.2312 -0.2249
14646W        W30780  12.433  13.136  12.791 -0.0995  0.1512  0.0541
14647W        W30781   5.986  17.505  12.292  0.0599  0.1222  0.0829
14648W        W30782   6.315  15.717  12.041  0.1816 -0.0250 -0.2162
14649W        W30783  17.423  12.825   0.270 -0.3243  0.0566  0.3308
14650W        W30784  17.227   0.562  12.374 -0.0648  0.1544 -0.0743
14651W        W30785   5.381  12.322   5.981  0.2406  0.1351 -0.0602
14652W        W30786  10.039   0.287  11.805  0.0645  0.1155 -0.1624
14653W        W30787  14.489  13.008  14.074  0.3298 -0.0031  0.0202
14654W        W30788   9.618  10.757  10.520  0.0082  0.2451 -0.0773
14655W        W30789   0.187  10.878   0.285  0.1706  0.0492 -0.0313
14656W        W30790  12.090  16.543  15.229 -0.0948  0.1311  0.2701
14657W        W30791   1.211   1.901  13.946 -0.2866  0.0098  0.1898
14658W        W30792   0.752  11.247   0.739  0.3986  0.2643  0.0131
14659W        W30793  12.425   5.594  10.727 -0.0371 -0.1969  0.1830
14660W        W30794  12.064  17.842  13.692 -0.0675 -0.0432 -0.1610
14661W        W30795  16.269   6.165  13.598  0.0090 -0.0460 -0.0625
14662W        W30796  16.861   5.797   2.747  0.0031 -0.0259  0.0127
14663W        W30797  13.896  15.816  12.230 -0.0290 -0.0879 -0.0738
14664W        W30798   2.938  10.529   1.554  0.2418 -0.0800  0.1618
14665W        W30799  14.262  17.851   0.733 -0.4524 -0.0829  0.0994
14666W        W30800   6.822  11.058   1.385 -0.0796  0.2364 -0.4696
14667W        W30801  15.958  13.023  15.469 -0.0070  0.0097  0.2501
14668W        W30802  14.403   1.729   2.962 -0.2558  0.2307  0.0058
14669W        W30803   0.307  16.875   1.680 -0.2303  0.1119  0.1818
14670W        W30804  13.527   8.017   3.881 -0.1277 -0.0092  0.2637
14671W        W30805  14.060  13.656  15.822  0.0774  0.1867 -0.2654
14672W        W30806  10.092  11.794  16.175  0.0378  0.1186 -0.1380
14673W        W30807   6.928  17.057   0.404 -0.1679  0.1966  0.0021
14674W        W30808  11.508  13.196   1.361 -0.2260 -0.2275 -0.1391
14675W        W30809   4.126  15.022  14.697 -0.1098  0.0551  0.0266
14676W        W30810   0.857  10.286   1.190 -0.1488  0.1414 -0.1978
14677W        W30811  14.850  17.472   1.258  0.0303 -0.2240 -0.0837
14678W        W30812  17.163   7.726  12.096  0.0530  0.0847 -0.3636
14679W        W30813   1.632   3.426   0.037 -0.1754 -0.1003  0.1394
14680W        W30814   9.823  11.272  13.324  0.0960 -0.1785 -0.0996
14681W        W30815   0.576  15.742  16.050  0.2695 -0.1964  0.3554
14682W        W30816   3.237  14.820   1.030 -0.0334  0.0227 -0.0515
14683W        W30817   2.516  11.925  15.418 -0.0228  0.0768 -0.1144
14684W        W30818   3.784  13.334   3.198  0.1169 -0.0813  0.3303
14685W        W30819  15.083   4.018  12.479  0.1812  0.1596  0.1206
14686W        W30820   6.899  16.214   4.665  0.0143  0.1347 -0.1156
14687W        W30821  12.363  10.511   2.665  0.1839  0.3313 -0.2259
14688W        W30822  11.391   2.078   1.416 -0.2665  0.4380  0.0985
14689W        W30823   2.443   4.636   1.439 -0.0836  0.3152  0.0551
14690W        W30824  13.118   8.831   1.692  0.0195  0.3122  0.0391
14691W        W30825  15.706   6.652  11.698  0.2559 -0.2057  0.4419
14692W        W30826   8.160   2.489  13.377 -0.3565  0.2281  0.0565
14693W        W30827   8.047  13.255  16.636  0.1955  0.5109  0.2558
14694W        W30828   6.200  14.691   3.097 -0.1551 -0.3039  0.1447
14695W        W30829  14.098  11.414  16.402  0.1995  0.1629 -0.3437
14696W        W30830   3.847  16.068   2.014 -0.1905  0.1376  0.1932
14697W        W30831   3.040   2.184   1.334 -0.0609 -0.4041  0.0085
14698W        W30832  12.975   3.882  13.800  0.1428 -0.1021  0.1299
14699W        W30833   3.651   6.295   6.245  0.1572 -0.1549  0.0894
14700W        W30834   0.909   3.106  16.578 -0.0661  0.2455 -0.0476
14701W        W30835  14.946   3.081   4.728 -0.0755 -0.2921  0.0944
14702W        W30836   9.255  12.412   1.145  0.1254 -0.2921  0.2448
14703W        W30837   4.915   2.397  13.657 -0.1596 -0.0935 -0.0347
14704W        W30838   1.721   4.845   1.718  0.0625 -0.0177 -0.1295
14705W        W30839   4.101  14.121  11.532  0.0301 -0.1976 -0.1724
14706W        W30840  15.382  13.464   3.564 -0.0659 -0.3316  0.1099
14707W        W30841   9.409   6.664   3.531  0.0435 -0.2726  0.0647
14708W        W30842  15.540  13.066   0.036  0.0483  0.0136  0.0571
14709W        W30843   3.462  10.659   4.650 -0.2530 -0.0482 -0.0511
14710W        W30844   2.260   7.548  12.885 -0.2607  0.2539  0.3007
14711W        W30845   6.911  13.673   0.931  0.0122 -0.3390 -0.2101
14712W        W30846  14.197   3.651   0.578  0.0862  0.1984  0.1940
14713W        W30847   2.103   0.746   4.257 -0.3511 -0.1842 -0.1623
14714W        W30848  14.519   3.753  12.029  0.0990 -0.2493  0.2173
14715W        W30849  15.858  14.710   1.225  0.0131 -0.1233 -0.1968
14716W        W30850   2.708  17.349   4.222  0.1503 -0.0448  0.0682
14717W        W30851   8.353  13.114   2.104 -0.2609  0.2413 -0.3133
14718W        W30852   7.949   9.210   3.488 -0.0325  0.2608 -0.0378
14719W        W30853   1.409  14.134  11.624 -0.0382 -0.2832 -0.0383
14720W        W30854  14.800   6.670  11.133  0.1013  0.1491  0.3271
14721W        W30855  17.176   0.778  13.445  0.0438 -0.0311 -0.4087
14722W        W30856   5.198  15.806   4.825  0.0713 -0.0300  0.1276
14723W        W30857  11.352   5.090  16.090  0.1584 -0.3295 -0.0891
14724W        W30858  13.777  16.777   0.254 -0.2295 -0.0398 -0.3345
14725W        W30859  10.026  10.334  12.200  0.1145 -0.3443  0.0116
14726W        W30860   4.949   3.845  13.557 -0.2022 -0.1393 -0.0345
14727W        W30861  11.531   0.516  11.371  0.0865  0.1274  0.2700
14728W        W30862  12.293   1.249   2.812 -0.0393 -0.0545 -0.0143
14729W        W30863   5.148  11.281  15.704  0.0906  0.0039 -0.0692
14730W        W30864   2.787  16.306   4.769  0.2761 -0.1163 -0.3041
14731W        W30865   0.413   6.791   4.995  0.2365  0.1102 -0.0768
14732W        W30866  14.394   2.452   0.095  0.2166 -0.0628  0.3702
14733W        W30867  17.161   2.305   4.204  0.1535  0.2312 -0.2029
14734W        W30868   3.218   7.895  13.393  0.0609 -0.0649  0.1122
14735W        W30869   9.026  14.708  14.210  0.0383 -0.0030  0.0110
14736W        W30870   2.657   0.416   1.303 -0.1616 -0.2187 -0.1795
14737W        W30871  15.852   1.414   4.586  0.2272  0.1695  0.1527
14738W        W30872   5.832   6.191   2.195  0.1852 -0.1300  0.0196
14739W        W30873  13.605  10.613  15.175  0.3384 -0.3236 -0.1024
14740W        W30874   5.074   8.474  15.195  0.0056  0.1492 -0.1481
14741W        W30875  16.189   1.982  16.103 -0.0192  0.2848 -0.1128
14742W        W30876   3.831  12.501  15.645  0.1848 -0.1259  0.0095
14743W        W30877  12.381   7.403  13.550 -0.1306 -0.3029 -0.1296
14744W        W30878   5.309  17.918  11.909 -0.2165  0.2814 -0.3165
14745W        W30879  11.855   1.727  15.170 -0.0127 -0.0119 -0.1594
14746W        W30880  16.703   5.876   5.218 -0.2293  0.0727  0.0348
14747W        W30881   1.069   7.388   2.543  0.3181  0.3767 -0.0729
14748W        W30882   8.901   8.033  15.975 -0.1723 -0.0731 -0.0434
14749W        W30883   4.298  17.469   3.641  0.0615 -0.1107 -0.0146
14750W        W30884   2.338  10.464  13.617  0.1059  0.2416  0.1254
14751W        W30885  15.982   4.168  14.520 -0.1361 -0.3184 -0.0464
14752W        W30886   6.588   2.354   4.900  0.2329 -0.1142  0.1896
14753W        W30887   6.344  17.098  14.434 -0.0894  0.0061  0.2962
14754W        W30888  11.403   4.486   2.014  0.1119 -0.0009  0.0547
14755W        W30889   2.853   3.233   1.863 -0.2675  0.1037  0.1871
14756W        W30890   6.896   7.913   5.948  0.2756  0.1920 -0.1050
14757W        W30891  15.248  13.086  13.376 -0.1000 -0.2490  0.3319
14758W        W30892   8.976  11.129   5.202 -0.0593 -0.2792 -0.1232
14759W        W30893   6.743   4.177   4.601  0.3081  0.0108 -0.1412
14760W        W30894  17.181   8.812  15.064  0.0072  0.0751  0.1579
14761W        W30895  13.128   0.220  13.418  0.0245  0.0112  0.0877
14762W        W30896  12.342   3.592  15.526  0.2725 -0.2104 -0.2696
14763W        W30897   1.209   2.637   3.378 -0.2487 -0.1882  0.2305
14764W        W30898  17.377  14.589  14.015  0.2275  0.1847  0.2763
14765W        W30899  11.349   1.042   1.297  0.3416  0.0015 -0.1395
14766W        W30900  10.116   6.507   1.146  0.0436  0.0005 -0.0896
14767W        W30901  17.572   6.568   3.658  0.2046 -0.0704  0.3583
14768W        W30902   0.306   0.976  14.269  0.2262 -0.0100 -0.4022
14769W        W30903  16.215  12.126   3.112  0.2978 -0.1630  0.3660
14770W        W30904   7.530   5.273   3.461 -0.1756 -0.0936 -0.0786
14771W        W30905   6.935  17.882   3.145  0.1254 -0.0652  0.0963
14772W        W30906   2.471   3.248  13.331 -0.0583  0.1006 -0.0754
14773W        W30907   5.123  15.016   4.613 -0.1334 -0.0474  0.1180
14774W        W30908   9.814  12.051  11.768 -0.0611  0.2820  0.1177
14775W        W30909  14.583  12.457   5.224 -0.0090  0.0352 -0.1957
14776W        W30910  16.888   8.356  14.394  0.0895  0.2442  0.0446
14777W        W30911   8.142   6.378  13.366  0.2911  0.0403 -0.1412
14778W        W30912   9.700   1.930   3.837  0.0315 -0.1673 -0.3050
14779W        W30913   7.640   0.821  13.397 -0.1615 -0.2589  0.0714
14780W        W30914   3.929  14.601  14.932  0.1702 -0.0962  0.2133
14781W        W30915  14.779   0.481   4.563  0.2323  0.2330  0.5962
14782W        W30916  13.650   0.458   5.534  0.0448  0.0757  0.4555
14783W        W30917  16.140  17.837   2.776 -0.2155  0.0052  0.0681
14784W        W30918  17.394   8.255   5.575  0.1080 -0.2099  0.0848
14785W        W30919   3.723  14.716   0.949 -0.0607 -0.2390  0.0512
14786W        W30920  16.640  13.544  12.924 -0.0888  0.1180 -0.2179
14787W        W30921   4.320   0.937  14.830 -0.0746  0.1757 -0.0375
14788W        W30922   0.486   4.415  15.916  0.2164 -0.1886 -0.0135
14789W        W30923   3.816   2.104   2.982 -0.1845 -0.1334  0.1735
14790W        W30924   1.412  15.830   0.509  0.0363 -0.1250  0.1689
14791W        W30925  17.487   0.808  12.008  0.5062  0.2483  0.1786
14792W        W30926   2.760   7.581  12.222 -0.1082 -0.1650  0.1171
14793W        W30927   3.815   1.662   0.191 -0.0780 -0.0218 -0.0367
14794W        W30928  16.746   2.968  13.307 -0.0917  0.0736  0.0812
14795W        W30929  17.034   7.216  12.770 -0.0811  0.0428  0.3801
14796W        W30930   8.179  10.123   3.465  0.1538  0.0346  0.0096
14797W        W30931  14.354  16.602  15.512 -0.0834  0.1272  0.0457
14798W        W30932  16.487   7.554   1.878  0.2082  0.0367  0.4657
14799W        W30933   5.426  13.161  11.687 -0.2185 -0.1579  0.0005
14800W        W30934  17.365   0.280  14.391 -0.0308 -0.0541  0.1802
14801W        W30935   4.532  15.868   0.689 -0.0255  0.0154 -0.1771
14802W        W30936  14.023   1.556   4.068  0.1583  0.1953 -0.1269
14803W        W30937  13.284   2.709  11.862 -0.0794 -0.1324  0.0768
14804W        W30938   5.838  12.947  13.813 -0.0844  0.0943 -0.0291
14805W        W30939  17.614   2.028   0.360  0.1297 -0.1934  0.0874
14806W        W30940   9.491   4.974   3.262 -0.0293  0.1513 -0.2199
14807W        W30941  15.839  15.529   1.254  0.0403  0.0593  0.2482
14808W        W30942  15.120  11.175  15.700  0.0758  0.0148  0.2067
14809W        W30943  13.287   3.609  15.883 -0.0546 -0.1360  0.0390
14810W        W30944   2.246  17.786   2.073  0.1406 -0.0475 -0.2321
14811W        W30945   7.522   2.329  14.147 -0.3158 -0.2784 -0.1000
14812W        W30946   3.969   9.762  13.177 -0.0688  0.1415 -0.0076
14813W        W30947   3.660  13.956   5.123  0.1025 -0.0609 -0.2756
14814W        W30948   7.565  15.069   3.065 -0.1542 -0.0693 -0.1264
14815W        W30949  10.809   7.145   2.924  0.5494 -0.1660 -0.0216
14816W        W30950   7.538   9.403   4.355  0.0003 -0.1348 -0.0607
14817W        W30951   7.987  11.380   4.054 -0.2956  0.0161 -0.0970
14818W        W30952   8.012  14.179  11.147  0.3559  0.1517 -0.0700
14819W        W30953   1.806  15.554   3.377  0.3225  0.2859  0.0467
14820W        W30954   7.794  14.899  14.891 -0.3580 -0.0544 -0.1011
14821W        W30955  12.508  12.125   2.497 -0.1299 -0.1068  0.3865
14822W        W30956   2.104  12.345  13.373  0.0010 -0.0713 -0.1580
14823W        W30957  12.169   4.044  12.927 -0.0022  0.0138 -0.1483
14824W        W30958   4.535  13.841   3.675  0.2072  0.0345 -0.0597
14825W        W30959   3.507   7.279   0.344  0.0468 -0.0882 -0.2455
14826W        W30960   5.325   4.789   3.869  0.1439 -0.0637 -0.1821
14827W        W30961   3.414  17.666   0.052  0.3037  0.0185 -0.5758
14828W        W30962   7.110   1.276   0.538  0.0031 -0.2728  0.0340
14829W        W30963   6.119  13.927   2.868 -0.0032  0.0115  0.0728
14830W        W30964   8.727  13.953  15.246  0.1702 -0.0959  0.2638
14831W        W30965   2.803   6.665   4.341 -0.3129  0.0719 -0.1903
14832W        W30966   8.078   6.483   2.266  0.0035 -0.2185 -0.3226
14833W        W30967   2.620   7.343  14.427  0.0393 -0.4082 -0.0149
14834W        W30968   0.318   9.575   4.673  0.0306 -0.0313  0.1963
14835W        W30969  15.861   0.395  16.568  0.1084  0.0003  0.3309
14836W        W30970  12.521   7.888   2.837  0.0337 -0.0828 -0.1817
14837W        W30971  10.935   7.860  13.228 -0.1077  0.0221  0.2863
14838W        W30972   4.789  15.575   5.168 -0.1204 -0.0287  0.0559
14839W        W30973  16.086   6.511   0.584 -0.0881 -0.3306 -0.1916
14840W        W30974   3.979   9.831  15.080 -0.0323  0.0030  0.1851
14841W        W30975   2.415  14.590  14.873  0.0909 -0.2824 -0.1710
14842W        W30976   8.124   9.360   0.692 -0.0265  0.2024  0.0851
14843W        W30977   6.143  11.816   5.082 -0.0132 -0.1438 -0.2317
14844W        W30978  16.668   7.428   2.643  0.1714  0.1238 -0.4032
14845W        W30979   9.524   0.002  15.118 -0.0344 -0.4129  0.0832
14846W        W30980   4.616  17.233  14.598  0.2964 -0.2752  0.1217
14847W        W30981   9.867  17.610  12.983  0.1257 -0.0197 -0.4525
14848W        W30982  16.144   0.925   3.018 -0.0994 -0.0688 -0.0073
14849W        W30983  14.935   4.552   5.114 -0.1045  0.0195  0.0302
14850W        W30984   6.246  17.224  13.103  0.1136 -0.3043 -0.1037
14851W        W30985  14.004   1.040   2.835 -0.1917 -0.0251  0.1255
14852W        W30986   6.207  17.723   1.517 -0.0832 -0.2349  0.5576
14853W        W30987  11.347   3.212   3.481  0.3553 -0.0455 -0.0319
14854W        W30988   0.281   2.601   0.088 -0.2480  0.1370  0.0977
14855W        W30989  11.868   9.457   1.496 -0.0997 -0.0832  0.2555
14856W        W30990  11.566  15.448   3.074 -0.2429  0.0524 -0.1350
14857W        W30991   4.959  16.665   4.061 -0.0015 -0.1861  0.2899
14858W        W30992  16.928   2.081   5.093  0.2486 -0.0372  0.2005
14859W        W30993  14.631   5.977   2.536  0.1011  0.1564 -0.2644
14860W        W30994   9.380   8.473  11.723 -0.1903 -0.0180  0.0212
14861W        W30995  15.180   9.495  14.486 -0.0308 -0.1282  0.2068
14862W        W30996  17.294  11.648  14.174 -0.0257  0.2467  0.0698
14863W        W30997   6.333  11.526   3.139  0.0339 -0.2704 -0.1238
14864W        W30998  12.480   5.766   2.886 -0.2194 -0.1109 -0.3087
14865W        W30999   6.447   4.622  16.580  0.0188  0.0750 -0.1543
14866W        W31000  10.470   1.249  15.758 -0.1067  0.0959 -0.0120
14867W        W31001   4.527   5.532  16.275 -0.2246  0.0261  0.2506
14868W        W31002  13.011   6.449   5.171 -0.0196 -0.1510  0.0674
14869W        W31003   5.995   2.610  14.543 -0.2143 -0.1977 -0.0096
14870W        W31004   9.644   1.380   4.010 -0.0557  0.0602  0.0860
14871W        W31005   6.461   5.124  12.084 -0.0714  0.1138 -0.0805
14872W        W31006   7.327  10.218  11.751  0.2058  0.0342  0.0844
14873W        W31007   9.845   2.320  16.673 -0.3867  0.2707  0.3565
14874W        W31008  16.892   7.831  11.639  0.0427  0.1761 -0.3144
14875W        W31009  16.023   0.750   3.555  0.2091  0.0227  0.0028
14876W        W31010  16.442   5.617   5.738  0.0813  0.0661  0.5143
14877W        W31011  16.500  13.163  14.829 -0.1939  0.0308  0.2429
14878W        W31012  15.433  10.699  13.835 -0.1860  0.2157 -0.2816
14879W        W31013  12.469   3.721  16.440  0.0877 -0.0126 -0.1243
14880W        W31014  16.915   1.442  15.155  0.0737 -0.0471 -0.3038
14881W        W31015   4.690   6.807  13.244 -0.1860  0.3217  0.1718
14882W        W31016  16.501   1.659   3.926  0.0219 -0.0178  0.2141
14883W        W31017   5.513  14.959  16.150  0.0116 -0.0447 -0.1370
14884W        W31018   4.900  11.839   2.708  0.2859 -0.1388  0.1293
14885W        W31019   5.333  17.928   4.190  0.1348 -0.0843 -0.0171
14886W        W31020   4.912   1.312  11.967 -0.0698  0.1588 -0.1150
14887W        W31021   7.139   4.745  13.116  0.2590  0.0105 -0.0886
14888W        W31022   2.050  17.926   5.437 -0.1282  0.0734 -0.0995
14889W        W31023   6.111   4.932  15.703  0.2914 -0.1059  0.1326
14890W        W31024   8.567  12.471  11.517 -0.0259 -0.3477 -0.0226
14891W        W31025  12.355   6.591   0.510  0.2239  0.0917 -0.1222
14892W        W31026  15.017   2.373   5.068  0.0250 -0.2187 -0.1653
14893W        W31027  17.402   6.916   5.432  0.2334  0.1473 -0.0388
14894W        W31028   7.410   5.970  16.558  0.0436  0.2527  0.2685
14895W        W31029  16.832  15.036  14.012 -0.1866 -0.0387  0.2309
14896W        W31030   4.671  11.943   5.498 -0.2977  0.2955  0.4818
14897W        W31031   4.927   6.681   4.260  0.1216 -0.0367  0.0589
14898W        W31032  14.494   9.235  13.481 -0.3205 -0.3745 -0.0440
14899W        W31033   9.316   3.896  13.732 -0.2055 -0.1159  0.2863
14900W        W31034  17.780   8.835   4.690 -0.1419  0.4147 -0.2819
14901W        W31035  11.255   8.800   0.239  0.1412  0.3117 -0.2843
14902W        W31036   9.839   5.175   2.823  0.0918 -0.0257 -0.1310
14903W        W31037   1.772  14.333  14.484 -0.0059  0.0798 -0.2215
14904W        W31038  12.285  11.403  15.567  0.1189 -0.1831  0.0016
14905W        W31039  11.131  10.122   5.487 -0.0901 -0.1441  0.2107
14906W        W31040  12.261   3.246  12.493  0.2039  0.0665 -0.0245
14907W        W31041  10.925  10.283  13.370 -0.0441 -0.1872 -0.1734
14908W        W31042  14.356  16.481  15.033 -0.0598 -0.4427  0.1803
14909W        W31043  12.171   3.176   3.357 -0.0635  0.0033 -0.0212
14910W        W31044   5.446   1.219  14.453  0.4060  0.0857 -0.1197
14911W        W31045   9.291  11.758  11.794  0.0976 -0.3728 -0.0124
14912W        W31046   5.293  11.725  14.233  0.4855 -0.1042 -0.2783
14913W        W31047   3.932   5.047   1.732  0.0355  0.0849  0.1735
14914W        W31048   5.472   0.492   4.247  0.3133 -0.0764  0.2231
14915W        W31049   0.961  15.116  15.371  0.1190  0.1760 -0.2035
14916W        W31050   9.518  11.109   0.183  0.2437  0.2485 -0.0409
14917W        W31051   9.481   0.036  13.842  0.1130 -0.0713 -0.1644
14918W        W31052  13.941  16.881  15.789  0.4280  0.3225  0.0528
14919W        W31053   4.770   1.168   2.155 -0.0023  0.2011  0.1496
14920W        W31054   1.928   0.163   0.107  0.2103 -0.1199  0.0579
14921W        W31055   9.166   7.613   5.385 -0.1772 -0.0055  0.0050
14922W        W31056  12.621   2.893  12.199 -0.1055  0.4220 -0.0481
14923W        W31057  14.100  10.626  12.102  0.1484  0.4092 -0.1112
14924W        W31058   0.684  17.944   1.248  0.1680  0.0206 -0.0527
14925W        W31059  17.242   4.625  13.843 -0.2770 -0.0487 -0.1667
14926W        W31060   6.061  14.828   2.004  0.0308 -0.1317  0.0119
14927W        W31061   5.791  13.987  15.230  0.0019 -0.1741 -0.1022
14928W        W31062   8.441  17.466  12.446  0.2004 -0.1287 -0.1202
14929W        W31063   1.655  11.750   2.370  0.0154  0.2606 -0.1125
14930W        W31064   7.300   6.954   0.187 -0.1838  0.0934  0.2206
14931W        W31065   3.133  12.588   1.695  0.2888 -0.0164  0.2897
14932W        W31066   4.342   1.768   5.639  0.1287 -0.2563 -0.2166
14933W        W31067  13.241   5.905  14.448  0.3720 -0.2159 -0.2205
14934W        W31068  17.811   1.109   1.791  0.1493  0.1036 -0.1958
14935W        W31069   2.950   6.210  15.947  0.0207  0.0954 -0.1566
14936W        W31070  16.024   7.895  15.271 -0.1543  0.1315 -0.0794
14937W        W31071   7.166   7.300   5.525  0.0284 -0.0556 -0.0222
14938W        W31072  12.598   7.089   0.521  0.1750 -0.1173  0.1547
14939W        W31073  14.631  16.369   0.687 -0.1040 -0.1352 -0.2412
14940W        W31074   3.293  17.692   5.286  0.0300 -0.1221 -0.0693
14941W        W31075  13.609  11.833   2.065  0.1412  0.1799 -0.0352
14942W        W31076  17.682   2.453   5.554 -0.0514 -0.0612 -0.0047
14943W        W31077  16.050  14.018  14.608 -0.0156 -0.0419  0.1141
14944W        W31078   9.149   2.952   0.156  0.2000 -0.0220 -0.1145
14945W        W31079  12.716  17.319   5.755  0.2744  0.0307  0.0994
14946W        W31080   2.208   3.314  11.847  0.1709  0.2316  0.1527
14947W        W31081   6.039   3.604   5.276 -0.1593 -0.1358  0.2977
14948W        W31082  15.034  16.355  16.369  0.1564  0.3434 -0.0124
14949W        W31083   6.222  16.941   4.787 -0.2275 -0.3376 -0.0497
14950W        W31084   2.925   7.498  15.294  0.0911 -0.1334 -0.0773
14951W        W31085  10.875   0.745  16.290 -0.0968  0.1058 -0.3985
14952W        W31086  13.960   7.391  12.627  0.1801  0.0937 -0.0554
14953W        W31087   0.580  14.692   2.030 -0.0682 -0.1483  0.1114
14954W        W31088   2.790   1.792  14.842 -0.1532  0.2120  0.3225
14955W        W31089  12.268  13.943  13.982 -0.0177 -0.0264 -0.1730
14956W        W31090  14.112  14.931  13.258  0.0412 -0.2081  0.0649
14957W        W31091  15.967  14.767  16.048  0.1958  0.0320  0.1149
14958W        W31092  10.779  15.325   4.919  0.3104 -0.0858  0.2810
14959W        W31093   6.033  16.617   4.365  0.2039  0.0698 -0.0121
14960W        W31094   2.113   7.441  14.194  0.1562 -0.0153 -0.1051
14961W        W31095  15.891  12.525   3.196 -0.3034 -0.0586 -0.0081
14962W        W31096   8.322   8.327   3.434  0.1114 -0.0690  0.1483
14963W        W31097   2.556   8.750  14.389  0.0269 -0.1514  0.2883
14964W        W31098   4.295  10.361   1.970 -0.1888 -0.3094 -0.0841
14965W        W31099   6.516  14.948   4.603 -0.0047 -0.1024  0.1033
14966W        W31100   5.071  12.795  14.406 -0.1900 -0.0536  0.1854
14967W        W31101   3.567   3.575   3.475 -0.0771  0.2500 -0.0644
14968W        W31102  10.898   6.668   3.098  0.1442 -0.1709  0.1468
14969W        W31103  17.494   1.726  14.698 -0.0847  0.1175 -0.0314
14970W        W31104  17.943   1.616   0.584  0.3241 -0.0380 -0.1179
14971W        W31105  13.695   9.726  16.052  0.1284  0.3033 -0.1024
14972W        W31106  16.623   0.986   3.925  0.1543 -0.0829 -0.0085
14973W        W31107  10.378  16.866  16.282  0.0382  0.0702 -0.0357
14974W        W31108  14.196  15.369   4.210 -0.1477  0.1753 -0.2867
14975W        W31109  12.959  15.407  14.890  0.1138  0.1416 -0.2703
14976W        W31110  14.261   7.757   0.421  0.2001  0.1505  0.0452
14977W        W31111  16.744   0.158  11.747 -0.3906 -0.1001  0.0885
14978W        W31112   2.302  10.058   4.703 -0.1313 -0.3081  0.0781
14979W        W31113   5.785   4.941   3.649 -0.0357 -0.0108  0.2645
14980W        W31114  16.137   2.990   0.761  0.0592  0.0210 -0.0612
14981W        W31115   9.331  16.224   3.965 -0.0927 -0.2064 -0.0048
14982W        W31116  14.157  15.246   1.295 -0.1404 -0.2792  0.1243
14983W        W31117  15.310   1.705   0.396  0.0953  0.0528  0.2312
14984W        W31118   7.659   3.479   6.424  0.2231 -0.1896  0.3677
14985W        W31119   6.505  17.512  12.101 -0.0435  0.0666 -0.1334
14986W        W31120   3.243   3.583   2.461 -0.1447 -0.0722 -0.2666
14987W        W31121   8.489  14.759  15.790 -0.1972  0.0044 -0.1268
14988W        W31122  13.828   1.842  12.832  0.2451  0.4342  0.2948
14989W        W31123   1.924   6.291  13.070  0.1806  0.3980 -0.0017
14990W        W31124   7.099   5.678  16.155  0.3310 -0.0994 -0.2270
14991W        W31125  17.938  13.856   5.897 -0.0998  0.0878  0.0719
14992W        W31126   1.457  16.884  16.129 -0.1179  0.3779 -0.2766
14993W        W31127  11.974  16.733   1.001  0.2232  0.2033 -0.0783
14994W        W31128   9.572   1.442  16.363  0.0652 -0.1245 -0.3644
14995W        W31129  15.267  15.502  11.434 -0.1568  0.0050 -0.3527
14996W        W31130   8.863   2.947   2.486 -0.1260 -0.1797 -0.1212
14997W        W31131  10.040   3.831  12.229 -0.0048 -0.0056 -0.0977
14998W        W31132   9.776   3.697   6.070 -0.0382 -0.4201 -0.0171
14999W        W31133  13.415   2.224   1.626  0.2637  0.1487  0.0024
15000W        W31134   5.018   9.028  14.171  0.0034  0.0209  0.2277
15001W        W31135   4.228  17.182  15.621  0.0506 -0.0843  0.0477
15002W        W31136  13.995   6.142   3.648 -0.1581 -0.0802  0.0966
15003W        W31137   3.035   2.220   2.504 -0.0804 -0.0816 -0.0548
15004W        W31138  10.650  11.618  15.992 -0.1127 -0.0360  0.3474
15005W        W31139   6.403  10.120  11.485 -0.4739 -0.0409  0.3627
15006W        W31140   6.872   4.618  12.644 -0.0944  0.1025 -0.0619
15007W        W31141  11.569   7.614  15.131 -0.1629  0.2834  0.0649
15008W        W31142  13.515  11.315   2.843  0.0513  0.0930  0.3028
15009W        W31143  14.937  10.634   3.778  0.1194 -0.0364 -0.3762
15010W        W31144   0.551   1.938  13.184 -0.0100  0.0574 -0.0132
15011W        W31145  12.645  11.480   2.677 -0.1251  0.0288 -0.0681
15012W        W31146  10.025   4.847  12.340 -0.0714 -0.0043  0.1719
15013W        W31147   2.255   6.601  12.706  0.1318 -0.0008  0.0755
15014W        W31148  15.533   5.835   0.968 -0.1521  0.0205  0.1832
15015W        W31149  11.629   6.124   3.763 -0.1229  0.1193  0.0989
15016W        W31150   7.857  11.439   4.943 -0.0726 -0.1028 -0.0409
15017W        W31151  17.554  17.920   5.999  0.1447 -0.1072 -0.2393
15018W        W31152   3.445   6.745   1.942 -0.0144 -0.0028 -0.0931
15019W        W31153  12.085   4.133   2.888  0.3626  0.0863  0.0158
15020W        W31154   5.169   3.818   5.571  0.2361 -0.1874  0.0705
15021W        W31155   6.839  11.124  12.829 -0.0467 -0.2176 -0.0029
15022W        W31156   0.568  13.734  15.373 -0.0288 -0.0068 -0.2237
15023W        W31157  14.684   1.264   2.924 -0.1805  0.2048 -0.0399
15024W        W31158   9.288  17.582  15.008 -0.0406 -0.0644  0.1198
15025W        W31159  10.824  14.481   2.812  0.0422  0.0965  0.3009
15026W        W31160   2.658  14.470   0.729  0.2275  0.0629 -0.4367
15027W        W31161   8.001  17.975  14.435  0.0775  0.0052  0.1250
15028W        W31162   6.167   5.061   1.228 -0.4450 -0.0467  0.3772
15029W        W31163   9.677  10.221  13.326  0.2284 -0.0057  0.2511
15030W        W31164   9.041  15.967  13.375 -0.1334 -0.0104 -0.0898
15031W        W31165   1.079   4.076   0.204  0.0627  0.1519 -0.1043
15032W        W31166   0.748  13.867  14.887 -0.2516  0.0330 -0.1871
15033W        W31167  17.709  15.041  12.865  0.1225  0.0482 -0.0418
15034W        W31168   6.085  13.982   4.818 -0.1749  0.1931  0.1982
15035W        W31169  10.698   7.345  12.135  0.1342  0.1755 -0.2472
15036W        W31170   0.885   6.604  15.125  0.0798  0.1387 -0.0002
15037W        W31171  11.571  13.387  14.210 -0.0210 -0.1024 -0.0171
15038W        W31172   5.860   0.017  13.393 -0.2645 -0.0932  0.2487
15039W        W31173   3.557  12.862   1.946 -0.0258  0.1462 -0.0604
15040W        W31174  16.241  15.302  14.732 -0.0930  0.0384 -0.1163
15041W        W31175  12.813  17.176  13.852 -0.1143 -0.1383 -0.2523
15042W        W31176   2.727  14.346   5.050 -0.0508  0.2054 -0.1389
15043W        W31177   6.124   8.856  11.752  0.1564  0.1916 -0.0129
15044W        W31178  16.054  10.734   6.172  0.2172 -0.2639  0.0844
15045W        W31179   6.868   5.762   6.085  0.0393 -0.2625  0.0209
15046W        W31180   9.564   7.131   4.675  0.1300 -0.0019  0.3198
15047W        W31181  10.256   1.280   3.179  0.3474 -0.2852 -0.1846
15048W        W31182  12.696   9.529  12.767  0.0414 -0.0011  0.1628
15049W        W31183  15.404   0.006  12.006 -0.1165 -0.0437 -0.0254
15050W        W31184  16.220  10.461  15.174  0.0801  0.0681 -0.0315
15051W        W31185  11.533  15.676   3.960 -0.1928 -0.0364 -0.4082
15052W        W31186   2.648   2.123   0.971  0.0697  0.0368 -0.1388
15053W        W31187  14.188  17.607   0.268  0.0792  0.1314 -0.2407
15054W        W31188   1.591   9.022  13.583 -0.0680 -0.2339  0.0405
15055W        W31189   7.679  16.096  15.563 -0.1113 -0.0455  0.0757
15056W        W31190  16.491  12.705   0.411 -0.0517  0.3210 -0.0794
15057W        W31191   1.547  10.910  11.614  0.0630  0.3292 -0.0703
15058W        W31192  10.245   6.677   6.469  0.3681 -0.1859  0.0621
15059W        W31193  10.617   2.356  13.086 -0.1746 -0.3869  0.3137
15060W        W31194   4.235   2.824  13.139 -0.0652  0.4396 -0.1761
15061W        W31195   4.892   0.493  12.139  0.3626  0.0164  0.1613
15062W        W31196  13.627  10.618  13.873  0.0523  0.0243 -0.3703
15063W        W31197   4.071  16.284  13.272 -0.0363 -0.2580 -0.1244
15064W        W31198  13.901   0.017  12.191  0.1554 -0.1403  0.0697
15065W        W31199   7.526   7.820  14.708  0.3255  0.1336  0.3138
15066W        W31200  16.397  16.050   4.084  0.0750 -0.1308 -0.0713
15067W        W31201   1.521  10.793   2.309  0.2554 -0.0031  0.1255
15068W        W31202  13.636   9.960  11.866 -0.0245  0.0110  0.2676
15069W        W31203   6.721   8.887   2.978 -0.1740  0.5488 -0.0623
15070W        W31204  15.362   2.519   3.729 -0.0573 -0.0197 -0.0469
15071W        W31205   4.852   9.278   4.892  0.0563 -0.1689 -0.0347
15072W        W31206   7.324  17.395  14.853 -0.0041  0.3691 -0.3804
15073W        W31207  14.428   5.905  14.796 -0.2183 -0.2319 -0.2557
15074W        W31208   8.360   7.625  11.744  0.0451 -0.0417  0.0790
15075W        W31209  17.318   9.919  15.422  0.1977  0.1437 -0.1998
15076W        W31210   9.828   5.422  11.730 -0.0878 -0.2309 -0.1210
15077W        W31211  15.481  16.140  13.121  0.0226  0.2383  0.2163
15078W        W31212  13.550  17.234  15.654  0.1886  0.1165 -0.0941
15079W        W31213  12.775   7.054   5.231 -0.1387 -0.0428 -0.0065
15080W        W31214  15.284  16.954  14.429  0.0165 -0.0834  0.0935
15081W        W31215  11.512  14.913   4.598  0.1862  0.0169 -0.0054
15082W        W31216   4.684   1.051   1.247 -0.3314  0.1339 -0.2013
15083W        W31217  17.571  14.672   0.531 -0.0198 -0.3415 -0.2150
15084W        W31218  16.951   3.600   1.652 -0.0524 -0.1182  0.3577
15085W        W31219   3.218   4.214   4.315  0.1354  0.0041  0.3697
15086W        W31220   3.045   1.739   1.067 -0.1578  0.4823  0.2239
15087W        W31221  11.286   4.768  13.896  0.2173 -0.1262 -0.1095
15088W        W31222  17.449  11.742  15.086 -0.1070 -0.1240 -0.1396
15089W        W31223   0.173   9.907   3.608  0.1537 -0.0667  0.0104
15090W        W31224   3.220   1.875  14.577  0.1842  0.3219  0.0342
15091W        W31225  11.513   7.735   0.169 -0.1399 -0.2979  0.0930
15092W        W31226  11.184  14.525   5.006  0.0692 -0.1934  0.1335
15093W        W31227   7.837   3.721   3.879 -0.0079  0.1984 -0.1490
15094W        W31228   1.021   2.614   2.901 -0.1918  0.0583  0.0823
15095W        W31229   4.007   6.042   2.430 -0.4233  0.0026  0.0212
15096W        W31230   9.700  16.033   2.649 -0.3332 -0.0800 -0.2829
15097W        W31231   5.538   7.129   4.748  0.0702  0.1553  0.2698
15098W        W31232   1.449  11.673   4.110  0.1610  0.0269  0.3108
15099W        W31233   1.607   2.811   4.879  0.2688  0.1852  0.3381
15100W        W31234  14.244  11.442  12.705 -0.0074  0.0278 -0.2157
15101W        W31235   7.265   4.824  14.997 -0.0642 -0.0355 -0.0767
15102W        W31236  14.776  13.542   5.771  0.2990 -0.2615 -0.1069
15103W        W31237   8.867  11.408  14.573 -0.2460  0.0910  0.1065
15104W        W31238   2.126  16.979   0.209  0.0473  0.1729 -0.0287
15105W        W31239   1.654   9.635   3.787  0.0161 -0.0953  0.2511
15106W        W31240  10.854  10.334  14.522  0.0240  0.0682 -0.1086
15107W        W31241   7.703  12.169  11.567  0.0605 -0.0028  0.3621
15108W        W31242   7.273  16.096  12.645 -0.0884  0.2057 -0.0137
15109W        W31243   4.561  15.238   2.459  0.0460  0.0102  0.1218
15110W        W31244   3.625   3.389   4.007  0.0346 -0.0282 -0.1541
15111W        W31245  16.514   6.592  13.484 -0.2241 -0.0820  0.1042
15112W        W31246   8.008  12.043  13.928  0.0514 -0.2442  0.1187
15113W        W31247   4.268  17.599   3.216  0.3253 -0.1048  0.4569
15114W        W31248  11.661   1.911   5.414 -0.1018  0.0738  0.1189
15115W        W31249  14.924   8.780   4.915 -0.0025  0.0868  0.0819
15116W        W31250   2.113  11.330  15.592  0.0753  0.1742 -0.1258
15117W        W31251  13.360  16.439   2.481 -0.0935 -0.0959  0.0674
15118W        W31252  12.625  13.248   3.930  0.0540  0.1584 -0.0449
15119W        W31253  10.453  17.712  14.983  0.1464 -0.0437  0.1134
15120W        W31254  15.455  12.154   0.451  0.0419 -0.2195 -0.0051
15121W        W31255  11.167   7.327  11.884  0.0818 -0.0115 -0.0464
15122W        W31256   1.960  16.258   2.279 -0.3067 -0.0395  0.0148
15123W        W31257   0.164   6.895   3.808 -0.0918  0.0557  0.2142
15124W        W31258  14.025   6.279  14.772 -0.1184  0.1157  0.1788
15125W        W31259  16.280  11.377  14.018 -0.0981 -0.2577 -0.0006
15126W        W31260  17.870  14.730   5.378 -0.0237  0.1455  0.2355
15127W        W31261   5.954   4.540   2.509 -0.2000  0.0942 -0.1799
15128W        W31262   0.979  17.224  15.905 -0.1673  0.3587 -0.2842
15129W        W31263  13.201   3.387  16.512  0.1815  0.0627 -0.0490
15130W        W31264   2.186   2.200  15.600  0.1147  0.2251 -0.1645
15131W        W31265  10.964  17.430   4.596  0.2403  0.1316 -0.1441
15132W        W31266   0.759   6.962   5.422  0.3755  0.0604  0.1160
15133W        W31267   6.990   5.452  13.733 -0.0488  0.2187  0.2058
15134W        W31268   2.284   2.285   3.973  0.0065 -0.1306  0.2236
15135W        W31269   8.804   2.891  15.537  0.4000  0.4220 -0.1673
15136W        W31270   2.664  13.994   0.445  0.2671  0.1712  0.0340
15137W        W31271   9.312  17.794   4.877  0.0230 -0.2629  0.1456
15138W        W31272  15.610   8.133   1.131 -0.1815 -0.1787 -0.1446
15139W        W31273  17.663  12.506  14.567  0.2484  0.0013  0.1684
15140W        W31274   3.482  17.305  11.542 -0.1016  0.0558  0.0371
15141W        W31275   8.007  12.029  12.048  0.0057  0.1421  0.1403
15142W        W31276   1.544   9.387   2.096 -0.0098 -0.0700 -0.0157
15143W        W31277  10.930  13.962  13.320  0.0537 -0.1797  0.1137
15144W        W31278  12.363   9.776   4.213  0.2621 -0.2376 -0.0142
15145W        W31279   9.429   3.586  14.996 -0.2621 -0.1848 -0.0925
15146W        W31280  10.760  13.477  11.750  0.1349 -0.0883 -0.0986
15147W        W31281   3.873  11.490   3.983  0.2415 -0.0639  0.0385
15148W        W31282   7.765  17.296  11.294 -0.2799  0.1350 -0.3464
15149W        W31283   0.669  17.264   4.938  0.1549  0.0791 -0.2436
15150W        W31284   1.508  15.681   4.829  0.2987 -0.0685 -0.0078
15151W        W31285  13.985  12.712  11.739 -0.0799  0.0450 -0.2240
15152W        W31286   9.887  15.565  14.924 -0.0378 -0.1723 -0.1811
15153W        W31287   3.645  17.142  12.627  0.1244 -0.2390 -0.2393
15154W        W31288   6.666  16.585   1.533  0.1549  0.0029  0.3053
15155W        W31289   1.226  10.412   2.348 -0.0211  0.0626 -0.0420
15156W        W31290  13.212  16.975  13.130 -0.2619  0.1095  0.0898
15157W        W31291   8.206  12.997  10.953 -0.1679  0.1989 -0.0727
15158W        W31292   2.406   8.441  13.615  0.2921  0.1551  0.0072
15159W        W31293  13.604   4.093   2.745  0.0440 -0.2223 -0.1809
15160W        W31294   5.494  11.844  15.112  0.0362 -0.1599 -0.1095
15161W        W31295   9.347  17.448  12.783  0.0162  0.2103  0.0858
15162W        W31296  13.793   3.840  12.012 -0.4222  0.4387  0.0653
15163W        W31297   4.494  17.579  14.986 -0.2300 -0.0894  0.2020
15164W        W31298  16.908   5.154   1.979  0.3123  0.2745  0.1388
15165W        W31299   1.059   0.952   0.331 -0.2771  0.1396  0.2547
15166W        W31300   8.658   8.930   2.554 -0.2278 -0.2850  0.2471
15167W        W31301  10.220  11.809  14.079  0.0723 -0.0244  0.3440
15168W        W31302  11.682  10.533   5.185  0.0898  0.2015 -0.1257
15169W        W31303  15.265  16.004   6.148  0.1121  0.1650  0.0590
15170W        W31304  12.276   1.297   3.795 -0.1508 -0.3873  0.2417
15171W        W31305   9.532   8.035  16.145  0.0856 -0.0395 -0.1618
15172W        W31306  16.905   0.578   0.986  0.0989  0.0816  0.1731
15173W        W31307   2.288  13.409   2.391  0.3668 -0.1604 -0.2247
15174W        W31308  13.155   6.653   1.527  0.1497  0.1640  0.4674
15175W        W31309   7.819  16.142   3.541 -0.3363 -0.0515  0.2938
15176W        W31310  12.682   5.094  10.991 -0.2042 -0.2457  0.2733
15177W        W31311   8.623   3.390  12.416 -0.1931  0.0328 -0.1133
15178W        W31312   7.327  13.676  13.490  0.1691  0.2233 -0.2797
15179W        W31313   8.894   3.461  14.905 -0.1710  0.1918 -0.2043
15180W        W31314   9.117   2.536   2.193  0.1637 -0.1679 -0.0800
15181W        W31315  14.634  15.513  13.409  0.3161 -0.1140 -0.1704
15182W        W31316  15.321   4.585   0.480  0.2175 -0.3022 -0.1412
15183W        W31317   9.069   7.823  16.535  0.0531 -0.1034 -0.2820
15184W        W31318  16.112   0.810   4.118  0.2098  0.0296 -0.0236
15185W        W31319  12.716   3.428  15.224  0.0416  0.2993  0.0408
15186W        W31320   7.559   2.741  13.854  0.0011  0.2144  0.1265
15187W        W31321  11.116  17.048   0.812 -0.1379  0.0545  0.4227
15188W        W31322   8.983   2.796  12.113  0.1435  0.3154 -0.2991
15189W        W31323   5.763  12.558  14.100 -0.2896 -0.0409  0.0461
15190W        W31324   7.868   2.088   5.471 -0.1582 -0.0285 -0.2450
15191W        W31325   6.681  10.050  14.154  0.3593  0.1651  0.3152
15192W        W31326   9.483  13.566  15.912 -0.3732 -0.0360 -0.2000
15193W        W31327   9.025   2.743  14.366 -0.4592  0.1580 -0.2670
15194W        W31328   1.408   6.105   2.627  0.2767  0.0312 -0.0869
15195W        W31329   6.057   3.774   0.387 -0.4424  0.0167 -0.0453
15196W        W31330   4.147  11.229  16.721 -0.0495  0.2236  0.0309
15197W        W31331  15.032   5.996   2.933  0.0292 -0.3191  0.3495
15198W        W31332   9.379   2.803  11.806 -0.2151  0.0504 -0.1761
15199W        W31333  16.483  14.144   4.755  0.0279  0.0788 -0.0694
15200W        W31334   1.800   6.877   1.041  0.1829  0.0299 -0.2229
15201W        W31335   1.483   8.495  11.310 -0.1125  0.1672  0.3173
15202W        W31336   2.503   0.738  13.446  0.2140  0.2816  0.0213
15203W        W31337   7.479   5.075   0.455  0.1005  0.0116  0.0876
15204W        W31338  15.975   5.677  13.570  0.2221 -0.4156  0.1716
15205W        W31339   2.325   2.662  15.450 -0.3749 -0.0591 -0.0842
15206W        W31340   0.949   3.071   3.213  0.1516  0.1655  0.1257
15207W        W31341  14.367   0.323   4.855  0.2316  0.3760  0.1633
15208W        W31342   6.671   8.804  14.306 -0.0739  0.0735  0.2568
15209W        W31343  14.540  11.587   2.787 -0.0257 -0.0095 -0.0228
15210W        W31344   1.315   9.541  14.452  0.0544  0.3896 -0.2106
15211W        W31345   5.591   2.324   0.259  0.0110  0.0013  0.1218
15212W        W31346  16.239   0.210  11.706 -0.0180 -0.1140  0.1958
15213W        W31347   1.414   6.198   1.767  0.0028 -0.0462  0.3302
15214W        W31348   6.766  14.426  11.406 -0.1215 -0.3940  0.0415
15215W        W31349   9.145   6.174  11.719  0.0256  0.2258 -0.1229
15216W        W31350   8.748   6.992  14.684 -0.0963 -0.1507 -0.2656
15217W        W31351   4.253   8.006   5.219 -0.2822 -0.0753  0.2754
15218W        W31352   8.303  17.385   0.476  0.1120  0.1524 -0.0766
15219W        W31353  14.343  10.834   4.031 -0.0370  0.2343 -0.3476
15220W        W31354  16.965  14.294  15.257  0.2512  0.2224  0.1429
15221W        W31355  16.896  11.199  12.071 -0.1083  0.0096  0.1574
15222W        W31356  10.497   3.613  14.931 -0.4788  0.1168  0.2285
15223W        W31357  14.537   3.063  14.000  0.0639  0.0506  0.1053
15224W        W31358  11.781   8.136   0.404 -0.0353  0.1074 -0.0449
15225W        W31359   2.214  17.638   3.922 -0.0012  0.0609 -0.2033
15226W        W31360  14.483  14.034   3.897 -0.1700  0.2025  0.0003
15227W        W31361   7.387  11.910  14.601  0.1022 -0.0288  0.0236
15228W        W31362  11.335   7.092   4.470 -0.2179 -0.2278  0.2901
15229W        W31363  16.641   4.384   5.470 -0.0340 -0.0860  0.0303
15230W        W31364   8.808   2.448  15.860  0.0069 -0.1432 -0.2205
15231W        W31365   0.963   2.663   4.487  0.0447 -0.0872  0.0037
15232W        W31366   4.252  15.872  15.560  0.0556 -0.0599  0.0728
15233W        W31367   1.320  13.418  13.819 -0.1386 -0.1143  0.0686
15234W        W31368  14.181   2.151  15.698 -0.0604  0.0077  0.1979
15235W        W31369   8.290  16.771  13.130  0.0870  0.0188  0.2553
15236W        W31370   9.121  16.488  14.541  0.0137 -0.0577 -0.1331
15237W        W31371   0.685   1.903   0.145 -0.0589  0.2314  0.1700
15238W        W31372  10.006  13.564   1.941  0.2151  0.1566 -0.1329
15239W        W31373   4.066  17.928   4.300  0.0782 -0.1042 -0.0597
15240W        W31374   8.621  17.211   2.425 -0.0553  0.0127  0.1747
15241W        W31375   4.316   2.551   2.829 -0.1149  0.2209  0.2149
15242W        W31376  15.146  17.739   4.881 -0.0348 -0.0996  0.2271
15243W        W31377  10.184   0.988  13.543 -0.0155 -0.0951  0.0102
15244W        W31378   3.424  15.175  16.419 -0.0229 -0.0643  0.1248
15245W        W31379  13.235  10.082   3.072  0.0278  0.2624  0.2276
15246W        W31380   9.895  12.919   5.951 -0.0253 -0.0508  0.0100
15247W        W31381   5.795  16.644  12.801  0.2417  0.2138 -0.1852
15248W        W31382   7.034   0.635   3.898 -0.0907  0.0488  0.1192
15249W        W31383  15.865   7.730   1.405 -0.0995 -0.1784  0.1415
15250W        W31384  16.658   5.467  14.658 -0.0408 -0.1820  0.1281
15251W        W31385   2.058  16.557  14.368  0.1596  0.2164 -0.1995
15252W        W31386  11.271  11.359   3.804 -0.2718 -0.3314 -0.2443
15253W        W31387   2.051   8.619   6.191  0.2577 -0.2080 -0.2684
15254W        W31388   3.207  16.917  11.987 -0.0870 -0.0905  0.2292
15255W        W31389  11.591  15.183  13.798 -0.1412 -0.1066 -0.2356
15256W        W31390  12.210  17.295   2.103  0.2460  0.0598  0.1736
15257W        W31391   8.986  17.742   3.706 -0.0460 -0.0050  0.0228
15258W        W31392  11.828   7.162  12.662  0.1547 -0.2235  0.6258
15259W        W31393   7.175  11.389   5.273 -0.0360  0.0168  0.1596
15260W        W31394  17.861   8.366   2.270 -0.1822  0.0160  0.1735
15261W        W31395   3.260  13.503   5.048  0.0943  0.1968 -0.1647
15262W        W31396  16.250   5.292   2.882  0.1707  0.0793 -0.3329
15263W        W31397  17.971  16.553   1.461  0.1934 -0.0201 -0.1199
15264W        W31398  12.230  17.079   2.840  0.0525 -0.0347  0.0657
15265W        W31399  12.272   2.067   6.685  0.0938  0.0372 -0.0288
15266W        W31400  10.667   6.404   4.346 -0.0035 -0.2079 -0.0210
15267W        W31401   2.600  11.791   0.586  0.0377 -0.1039  0.3116
15268W        W31402   6.153   9.468   0.180 -0.1921  0.1087  0.2088
15269W        W31403  11.319   7.473   3.238 -0.0482 -0.0473 -0.3945
15270W        W31404  16.390  13.763  14.276  0.4286 -0.2009 -0.1452
15271W        W31405   5.492   9.130   1.939  0.2380  0.0457 -0.0454
15272W        W31406  12.115  10.614  15.112  0.2089  0.0609 -0.1379
15273W        W31407  16.355   5.242   3.970  0.1507 -0.2402  0.0047
15274W        W31408   4.315  10.556  13.214  0.1769  0.0307 -0.4950
15275W        W31409  16.407   1.914  15.523  0.1909 -0.2635  0.0581
15276W        W31410  13.081   3.461   1.281 -0.1046 -0.0012  0.3021
15277W        W31411  16.886   2.644   0.242  0.1049  0.2228  0.0196
15278W        W31412   0.743   7.432  16.142  0.2203  0.3025 -0.0860
15279W        W31413  12.411   6.961  11.816 -0.2406 -0.0435  0.2830
15280W        W31414   6.389   2.138   1.337 -0.2343  0.1538 -0.1340
15281W        W31415   5.370  16.841   1.538 -0.0196 -0.2622  0.0356
15282W        W31416   2.335  13.142   2.859 -0.0400  0.1561 -0.2823
15283W        W31417   0.374  15.628  11.303 -0.0127  0.1011  0.4661
15284W        W31418   1.944   0.120  13.025  0.0180  0.0327  0.3699
15285W        W31419   1.120   7.278  11.623  0.0242  0.2808 -0.1811
15286W        W31420   9.885   9.994   0.725 -0.3732 -0.2646 -0.4923
15287W        W31421   8.340   0.932   5.910  0.1303 -0.0454  0.2098
15288W        W31422  13.342   5.664  12.182  0.0967 -0.0554 -0.0525
15289W        W31423   8.480   3.737   6.550  0.2153  0.3283  0.3157
15290W        W31424  15.351   9.334   2.909  0.0151 -0.1444 -0.0712
15291W        W31425   3.055   5.973  12.204  0.0440  0.0062 -0.0628
15292W        W31426  16.530   9.978   0.940  0.1357  0.3231 -0.2570
15293W        W31427  14.379   5.168   2.689  0.0481  0.2010  0.1587
15294W        W31428  16.045   3.226   2.792  0.3910  0.0371  0.0567
15295W        W31429   8.159  12.578   3.362  0.2105 -0.1874  0.0070
15296W        W31430  15.052   2.264  15.623  0.0762  0.0318 -0.0639
15297W        W31431   6.396   9.563   2.812 -0.0741 -0.0407  0.3956
15298W        W31432  16.534   5.605  12.319 -0.0759 -0.1105 -0.0127
15299W        W31433  12.812   5.023  14.909 -0.0881  0.0309  0.3093
15300W        W31434  15.217  15.366   3.429  0.0530  0.2414  0.1491
15301W        W31435  13.782   0.384   4.633 -0.1765  0.1673  0.0479
15302W        W31436  12.640   2.903  14.933  0.1878 -0.0680  0.3690
15303W        W31437   5.825   4.563   4.268 -0.0967 -0.0951 -0.2603
15304W        W31438   0.790  14.331   5.470 -0.2396 -0.1902 -0.2366
15305W        W31439   3.457  12.546   3.793 -0.4908 -0.1063 -0.1057
15306W        W31440   4.004   6.092  16.715  0.4080 -0.1884 -0.0948
15307W        W31441  16.210  13.859  16.515 -0.0694 -0.0691 -0.3056
15308W        W31442  15.305   1.254   3.880 -0.0989  0.0839 -0.0378
15309W        W31443   7.920   3.006  15.803 -0.1232  0.0119  0.1816
15310W        W31444  11.626  12.454   2.741 -0.2917  0.1227  0.1524
15311W        W31445  11.573  17.491   1.339 -0.1053 -0.1111 -0.1113
15312W        W31446   8.214   5.399  14.331 -0.1358  0.2068  0.2597
15313W        W31447  17.409   7.100   4.335  0.0337  0.1676  0.1718
15314W        W31448   0.388   0.959  11.659  0.0385  0.1400 -0.1149
15315W        W31449  11.062   7.359  11.334  0.1484 -0.4412  0.2652
15316W        W31450  12.242   0.633  15.757  0.0323 -0.1282  0.1321
15317W        W31451   0.713   7.025  16.696  0.0522  0.0979 -0.1009
15318W        W31452   4.745   7.233  13.542 -0.0400  0.1967 -0.0350
15319W        W31453  12.275   4.641   5.551  0.1397  0.2096  0.0982
15320W        W31454   7.561   9.192  14.724  0.2723 -0.0909 -0.0281
15321W        W31455   3.534   6.791  15.217  0.0868  0.0915  0.3487
15322W        W31456   7.876  14.852  11.587 -0.4159  0.0058  0.1136
15323W        W31457   8.598  10.443  11.926 -0.0457 -0.1447 -0.4377
15324W        W31458   6.394   1.277   5.954 -0.3708 -0.1350 -0.2650
15325W        W31459   1.231  15.571   4.354 -0.1802 -0.2469  0.3032
15326W        W31460   5.832  10.300   3.119  0.1773  0.0914 -0.0401
15327W        W31461  14.165  12.662   1.517  0.1672 -0.0053 -0.2146
15328W        W31462   2.482   2.437  13.952  0.1253 -0.0305  0.1276
15329W        W31463   0.472   5.703  13.522  0.2237  0.1095 -0.1933
15330W        W31464  12.803  10.818  12.761  0.0952 -0.0398 -0.1544
15331W        W31465  10.033   2.729  16.402 -0.0901 -0.2648 -0.3546
15332W        W31466  13.097   7.585  13.007 -0.1877  0.1959 -0.0261
15333W        W31467   4.947  13.618  12.684 -0.0387 -0.0988 -0.0324
15334W        W31468   3.109  14.003   4.395 -0.2856  0.0732  0.0551
15335W        W31469   2.990   1.789   3.375  0.0779  0.1836 -0.1750
15336W        W31470   6.877  15.010  11.631  0.0303  0.0306 -0.3763
15337W        W31471   3.876  16.729  12.184 -0.1964  0.0434  0.3113
15338W        W31472  14.065  13.606  11.949  0.0547 -0.1897 -0.0305
15339W        W31473   1.651   5.495  12.808 -0.0828  0.1099  0.0774
15340W        W31474  16.149  11.222  15.909 -0.0921 -0.0674 -0.2108
15341W        W31475  10.316   2.151   5.216  0.1330  0.2647 -0.1012
15342W        W31476  17.224  11.284   3.029  0.3596 -0.3800  0.0230
15343W        W31477   6.778   5.200   5.133 -0.0289 -0.0361 -0.2318
15344W        W31478   7.274  11.588   0.800  0.3672  0.0288 -0.2251
15345W        W31479   2.613   8.410   5.631 -0.1250  0.1036 -0.2917
15346W        W31480  11.542   0.279  11.829 -0.1186  0.0693 -0.0158
15347W        W31481   5.363  13.553  14.497 -0.4095  0.1560 -0.1633
15348W        W31482  16.454   3.058   3.722  0.0359 -0.0481  0.1210
15349W        W31483   8.116  14.006   5.116 -0.1130 -0.1228 -0.1286
15350W        W31484  13.116   6.374  16.478  0.2201 -0.0761  0.1438
15351W        W31485  11.965   6.128   2.158 -0.1453 -0.2018 -0.1861
15352W        W31486  15.121  16.864  16.266 -0.1146  0.3250 -0.0215
15353W        W31487   8.772   3.591  15.577 -0.3320 -0.1194  0.2570
15354W        W31488   7.391  14.507   5.316  0.1936  0.2903  0.0198
15355W        W31489  16.701   1.392   5.133 -0.1781  0.0166 -0.3589
15356W        W31490  14.203   2.831  15.466  0.1552  0.1552 -0.3801
15357W        W31491  16.536  11.538  16.562 -0.0203  0.0424 -0.1565
15358W        W31492   8.845   8.698  16.648  0.3770 -0.1354  0.1219
15359W        W31493   3.105  12.149   3.064  0.2066 -0.1847  0.4032
15360W        W31494  11.445   7.787  12.244 -0.3007  0.1048  0.0679
15361W        W31495  13.542  13.323   4.202 -0.0625  0.1752  0.1347
15362W        W31496   2.369  13.926  11.161 -0.0290  0.0484 -0.1829
15363W        W31497   1.556  13.857  14.050 -0.1568 -0.2933 -0.0519
15364W        W31498   2.669  12.783  14.863 -0.1851  0.2322 -0.2033
15365W        W31499   8.657   9.059   5.054  0.0377 -0.0827 -0.1019
15366W        W31500   0.405  12.230   2.198  0.3759  0.0389 -0.0048
15367W        W31501   4.203   7.181  11.310 -0.4057 -0.0004 -0.0571
15368W        W31502   8.670   5.470   2.244  0.1776 -0.3907 -0.0972
15369W        W31503  15.316   8.959   0.968  0.0797 -0.2227  0.0744
15370W        W31504   1.369  15.196  15.641  0.2417  0.1274 -0.1143
15371W        W31505  10.295  13.450  12.587  0.1957  0.0169  0.1029
15372W        W31506   5.840   2.254  13.556  0.1751  0.1305  0.1451
15373W        W31507   3.439   9.404   1.640 -0.1679 -0.0054 -0.0558
15374W        W31508   8.145   3.621   5.773 -0.0902  0.0498  0.0542
15375W        W31509   6.197   5.173   3.805 -0.0186 -0.1791 -0.1208
15376W        W31510   5.932   6.755  15.897  0.3552 -0.0405 -0.1049
15377W        W31511   0.535   5.855  16.310  0.2078 -0.4416 -0.1924
15378W        W31512  17.594  11.279   2.355  0.0305 -0.2530  0.2473
15379W        W31513   7.040  12.421   1.159 -0.1291  0.0876 -0.3935
15380W        W31514  15.018   2.992  12.143  0.0351 -0.0494 -0.1837
15381W        W31515   1.217   8.462  14.329  0.0157  0.2849  0.0921
15382W        W31516   6.128  15.850   1.238 -0.2059  0.0561 -0.3498
15383W        W31517   6.520   3.695  13.741  0.0668 -0.0011  0.1163
15384W        W31518   6.428   0.079  16.632 -0.0605 -0.0113  0.1767
15385W        W31519  12.955   9.565  15.446 -0.1379  0.0548 -0.0925
15386W        W31520   9.574   4.487  12.467 -0.0673  0.1137 -0.1318
15387W        W31521  17.759  11.535   5.916  0.1897  0.0888 -0.0683
15388W        W31522  15.218  17.049  14.949  0.1843 -0.1177  0.0912
15389W        W31523   2.381   6.271   5.035  0.1788 -0.2178  0.0685
15390W        W31524   3.931   3.255  13.220 -0.0778  0.0855  0.1613
15391W        W31525   8.964  13.617  12.071 -0.2174 -0.2513 -0.2681
15392W        W31526   6.132  16.215  15.963 -0.1706  0.0473  0.0831
15393W        W31527  17.763   8.177  14.993 -0.1660 -0.0240 -0.0939
15394W        W31528  13.354  14.767   1.027  0.0187 -0.3868 -0.0648
15395W        W31529   4.949  13.829  16.388  0.2709  0.1215 -0.0252
15396W        W31530  17.015   0.071  12.291 -0.0492 -0.0252  0.0638
15397W        W31531   1.324   1.611  15.669  0.1882  0.0205 -0.1444
15398W        W31532  16.119   8.802  11.228  0.1006  0.0118  0.3212
15399W        W31533  17.499   1.856   3.288 -0.1053  0.2188  0.1446
15400W        W31534  13.874   5.703  16.332 -0.0015 -0.1010  0.0928
15401W        W31535   1.352   8.380   0.964 -0.1589  0.3737  0.0743
15402W        W31536   6.275  17.825  15.020 -0.0315  0.5320  0.0251
15403W        W31537  11.403   6.574  12.353  0.2831  0.3209 -0.2786
15404W        W31538   2.836   5.220   0.893 -0.0582 -0.5373 -0.1908
15405W        W31539   9.081   0.148  12.909 -0.0774 -0.0456 -0.0837
15406W        W31540   7.857   1.447  15.310  0.0095 -0.0103  0.2399
15407W        W31541   5.742   3.245   3.344 -0.1207 -0.2149 -0.0806
15408W        W31542   9.262  17.223  11.792  0.0673 -0.0688 -0.1148
15409W        W31543  11.618   2.429   2.764  0.2902 -0.1195  0.2244
15410W        W31544  13.545  17.938   1.377 -0.1633  0.2085 -0.2658
15411W        W31545   0.880  15.536  15.685  0.1844 -0.3496 -0.3031
15412W        W31546  11.843  14.311  14.630 -0.1870 -0.0353  0.1584
15413W        W31547  15.870   2.046  13.589 -0.1225  0.1162 -0.0051
15414W        W31548  11.607  13.705   3.852 -0.0794  0.0431  0.2140
15415W        W31549  10.731  10.579   3.559  0.1526  0.1920 -0.4051
15416W        W31550   6.443   9.395   3.251  0.3093  0.1462 -0.1109
15417W        W31551   1.522  12.659   0.159  0.2571  0.1429 -0.0284
15418W        W31552   1.191  13.432   2.151 -0.0378  0.0520  0.0006
15419W        W31553   7.763   4.788   3.485 -0.3665 -0.1045 -0.0966
15420W        W31554   2.827   7.578   4.015 -0.0858 -0.2838 -0.2575
15421W        W31555   6.823  14.192  15.440  0.0512 -0.0067 -0.3358
15422W        W31556   8.301  16.537  11.126  0.0086  0.0696  0.1663
15423W        W31557   4.351  11.814  15.597  0.0834 -0.1005 -0.0915
15424W        W31558  16.254   5.313   0.067 -0.2481 -0.0387 -0.0781
15425W        W31559   9.116  11.267   3.026  0.3301 -0.0093  0.0888
15426W        W31560  10.870  16.241   0.275 -0.2662  0.0040  0.2864
15427W        W31561   6.258   3.629   1.505 -0.1179  0.1282  0.0975
15428W        W31562   6.415   7.735   3.486  0.1168  0.0895 -0.0131
15429W        W31563   5.536   8.660   0.595  0.2162 -0.0508  0.0660
15430W        W31564   4.371   5.040  14.591  0.3719  0.1592 -0.1005
15431W        W31565   3.560   2.975  15.920 -0.0454  0.2382  0.2638
15432W        W31566  17.621   9.828  16.138  0.1145  0.2082  0.2768
15433W        W31567  17.329  15.160  13.840  0.1187 -0.1232  0.0269
15434W        W31568   8.516   3.516   4.325 -0.0263 -0.0228 -0.1864
15435W        W31569   1.896   1.993  12.066  0.0702  0.0186 -0.1161
15436W        W31570   4.144   2.670   1.828 -0.2632  0.2632  0.0691
15437W        W31571  15.657   5.016  10.255 -0.1255  0.1032 -0.0154
15438W        W31572  12.799   6.023  12.918 -0.2166  0.0358 -0.0940
15439W        W31573  10.593   7.898   0.980 -0.3005  0.3545  0.1806
15440W        W31574   9.860   1.663   5.708  0.2040  0.1622 -0.0807
15441W        W31575   5.149  16.249   1.170 -0.0237  0.1296 -0.1479
15442W        W31576   0.306   3.844   1.459  0.0904 -0.0634  0.1991
15443W        W31577   0.289  12.069  15.999  0.0309 -0.2129 -0.0738
15444W        W31578   4.959  13.998  12.990 -0.2388 -0.1072  0.0226
15445W        W31579  13.928  13.847   5.684 -0.3926  0.1258  0.0760
15446W        W31580  11.653   5.278  14.418  0.1434 -0.2761 -0.2983
15447W        W31581   4.431   6.204   1.800  0.0975  0.5718  0.1086
15448W        W31582   8.044  17.978  11.690  0.1149 -0.2424 -0.2965
15449W        W31583  12.882  14.120   5.553  0.1474  0.0367 -0.1122
15450W        W31584  16.841   9.744  15.116  0.2724 -0.0515 -0.1143
15451W        W31585  14.599   2.402   2.376  0.3875  0.0473 -0.2879
15452W        W31586  16.955   9.691   0.896 -0.2205 -0.1517  0.0421
15453W        W31587   2.153  13.768   5.338 -0.0919 -0.1463 -0.0325
15454W        W31588   3.494   3.870   3.972  0.0151 -0.4530  0.0011
15455W        W31589  13.765  12.582   2.506  0.3281 -0.0740  0.2541
15456W        W31590   1.375   9.736   3.202  0.1064  0.1158  0.1983
15457W        W31591   6.523  14.710   5.643  0.1973  0.1948 -0.3315
15458W        W31592  17.737   9.653  13.028 -0.3758  0.1257  0.2489
15459W        W31593  10.375  10.167   3.651  0.1978 -0.1184 -0.0768
15460W        W31594   8.993   3.256  15.888  0.0348 -0.1284  0.1914
15461W        W31595   4.942  11.651  15.974 -0.0073  0.0927 -0.3179
15462W        W31596   5.892   2.285  12.103  0.0568  0.0962 -0.1584
15463W        W31597  12.718   2.266   1.527  0.3595 -0.1907 -0.4906
15464W        W31598  10.844  12.189   2.186 -0.1543  0.3032 -0.3112
15465W        W31599  15.467   8.922  12.993 -0.1369  0.0258 -0.2233
15466W        W31600   1.059  11.145  11.235  0.0249 -0.0453  0.0782
15467W        W31601   4.516   6.559   0.458  0.1215 -0.2015  0.1154
15468W        W31602   8.333  10.681   4.227  0.0458 -0.0189  0.0064
15469W        W31603   2.650  10.067  13.614  0.1828 -0.1027  0.1122
15470W        W31604  12.004  10.554  14.139  0.0635 -0.3008 -0.1338
15471W        W31605   2.336   4.411   5.374 -0.1561  0.0009  0.1535
15472W        W31606   8.405  17.772  14.608  0.0614 -0.0334 -0.0114
15473W        W31607   3.805   0.697   3.947 -0.0358  0.1888  0.0918
15474W        W31608   3.805   0.122   5.636  0.1640  0.0063 -0.0622
15475W        W31609   5.515  13.232   3.430  0.0327  0.2707  0.1971
15476W        W31610  16.502  14.651   6.286 -0.0057  0.1332 -0.1982
15477W        W31611  16.560  10.698  14.567 -0.1316  0.2587 -0.1519
15478W        W31612  16.606   0.656   4.334 -0.1424  0.1399  0.0150
15479W        W31613  10.654   2.812  12.465  0.0956  0.1392 -0.3494
15480W        W31614  17.146  15.684  12.790  0.2824 -0.0283  0.1959
15481W        W31615   9.899   1.809   1.350 -0.0519  0.1866 -0.0347
15482W        W31616   1.382   5.798   0.043  0.0559  0.1755 -0.2268
15483W        W31617   4.878   0.985  12.338  0.0989  0.2045 -0.0342
15484W        W31618  15.192  15.990  15.222 -0.0063 -0.1546 -0.1521
15485W        W31619  11.025  17.065  14.961  0.2433 -0.0032 -0.1182
15486W        W31620  14.860   2.776  13.751  0.1552  0.1028  0.2060
15487W        W31621  14.133   9.529   2.094 -0.1390 -0.0851  0.0737
15488W        W31622  10.591   8.895  13.334  0.0770 -0.2960  0.3207
15489W        W31623   5.820   7.135   2.119 -0.1174  0.1237 -0.0775
15490W        W31624  17.717   6.934  11.093 -0.4700  0.2000  0.0249
15491W        W31625   1.743   7.984  15.130 -0.5430  0.1222  0.2201
15492W        W31626   5.222  13.453   3.082 -0.3041  0.1653 -0.3668
15493W        W31627  12.108  16.012  15.322  0.0400 -0.1828 -0.2672
15494W        W31628  11.370   1.531   0.105  0.1944  0.0675  0.2953
15495W        W31629  14.541   8.636   0.650  0.0346  0.1574  0.3054
15496W        W31630   2.188  16.633  11.650 -0.2499  0.0536  0.6462
15497W        W31631   7.895   9.062  11.516  0.0530 -0.0149 -0.1593
15498W        W31632   8.322   6.214   0.499 -0.2119  0.2022 -0.0152
15499W        W31633  11.931  12.423  12.528 -0.0379  0.0363 -0.1787
15500W        W31634   8.130  13.464   2.491 -0.3334  0.0027 -0.0391
15501W        W31635  15.886   3.353  11.553  0.0863 -0.0137  0.1012
15502W        W31636  15.426   8.558   4.025  0.0179 -0.0893 -0.2804
15503W        W31637  12.388   8.378  13.943 -0.0004 -0.2345 -0.4025
15504W        W31638  17.206   1.966   4.623  0.2401  0.1533 -0.0575
15505W        W31639   4.461  16.992   1.710  0.1344  0.1847  0.1405
15506W        W31640   9.241   2.143  10.761 -0.0164  0.0585  0.0691
15507W        W31641   5.589  17.094  16.215  0.2704  0.0544  0.2203
15508W        W31642   6.692   8.362   2.241 -0.0444 -0.1911  0.0671
15509W        W31643   4.169   9.747  12.095  0.0214 -0.1440  0.1302
15510W        W31644   7.830   6.723   1.267  0.0190 -0.0592  0.2420
15511W        W31645  13.732   2.612  13.075  0.0613  0.2676 -0.2634
15512W        W31646   9.179   3.041   4.905 -0.3365  0.0787  0.2901
15513W        W31647  12.635  15.660   4.944  0.0465  0.0009  0.1103
15514W        W31648  11.764  16.168   1.749  0.0148  0.2060 -0.2008
15515W        W31649   2.826   8.028   1.986 -0.1072 -0.2393  0.0710
15516W        W31650   3.827   2.478  14.575 -0.2656  0.1463 -0.1781
15517W        W31651   7.440   4.074   1.911 -0.1379 -0.1023  0.0218
15518W        W31652  10.471   0.483  13.793 -0.0648  0.1783 -0.0076
15519W        W31653  16.615  14.073   0.874  0.1449 -0.3583  0.1293
15520W        W31654   9.243   3.509   5.619 -0.0660 -0.1138 -0.6258
15521W        W31655  12.073  10.080  14.665  0.1082 -0.0101  0.1236
15522W        W31656   0.094  16.662   5.441 -0.1421 -0.0656  0.0595
15523W        W31657   0.622  15.902   3.074  0.0808 -0.0866  0.1905
15524W        W31658   7.984   8.286   0.967 -0.0544  0.1270 -0.3989
15525W        W31659   5.586   2.323  15.824 -0.2566  0.0975  0.0945
15526W        W31660   6.760   8.018  12.893  0.0663  0.1621  0.3620
15527W        W31661  14.906   6.593  14.344  0.0531  0.1752  0.3922
15528W        W31662   7.688   2.860  11.959 -0.1992  0.1639  0.0550
15529W        W31663  10.410  17.308  13.204 -0.1533  0.1043  0.0116
15530W        W31664  13.528  14.442   2.788 -0.2174  0.1154 -0.1933
15531W        W31665   2.418   4.926   0.990 -0.2789  0.2171 -0.3015
15532W        W31666   2.743  13.247   2.468 -0.4153  0.0684  0.1369
15533W        W31667   0.115  14.085  12.268 -0.1671 -0.2126  0.2197
15534W        W31668  10.696   8.376  13.209 -0.1203  0.1936  0.2108
15535W        W31669  16.941  15.302   3.978  0.1591 -0.1150  0.0656
15536W        W31670  16.849   4.829   5.664  0.1243  0.1125 -0.2244
15537W        W31671   1.088   8.395   4.660  0.1198  0.0676 -0.0010
15538W        W31672   3.285   4.410   3.369 -0.1053  0.1565 -0.0306
15539W        W31673  10.310   6.711  15.850 -0.1136 -0.2198 -0.0441
15540W        W31674  11.348  11.537  16.133  0.2486 -0.3408 -0.0960
15541W        W31675   8.323   9.464  14.191  0.1206  0.0710  0.0565
15542W        W31676  13.046   0.597  14.167 -0.0659  0.3093  0.0412
15543W        W31677  14.468   6.263  13.172 -0.0266  0.1497 -0.1926
15544W        W31678   5.958   2.629  11.667  0.0389 -0.3171  0.0003
15545W        W31679  15.080  14.033   0.174 -0.0998  0.3944 -0.2374
15546W        W31680   5.744   4.085   1.277  0.0767 -0.1730  0.1944
15547W        W31681  11.874   0.491   3.352 -0.1468  0.2889 -0.0082
15548W        W31682   5.303   2.164   4.534 -0.1781  0.2012 -0.3903
15549W        W31683  12.790   6.319   0.572  0.0005  0.0400 -0.0289
15550W        W31684   2.847   0.237   3.258  0.1198 -0.1144  0.1741
15551W        W31685  11.122   1.614  12.137 -0.2808 -0.3917  0.1935
15552W        W31686  13.356  16.420   1.167  0.1025 -0.2612  0.1964
15553W        W31687   9.369   5.355   1.675  0.3204  0.0350  0.0785
15554W        W31688   7.793  10.803   2.208 -0.1554  0.2554  0.0808
15555W        W31689   1.447   1.834   4.289 -0.0980  0.0672  0.0032
15556W        W31690   5.777  11.020  14.647  0.1207 -0.2644 -0.3034
15557W        W31691   1.007   1.615   4.269  0.3244 -0.4290  0.2159
15558W        W31692  16.785  12.806   3.511  0.0051  0.1198  0.2628
15559W        W31693   9.766  16.648  15.141 -0.2138  0.1085 -0.0015
15560W        W31694   4.046   7.268   2.119  0.0943  0.1959 -0.2472
15561W        W31695   9.621  13.870   0.761  0.3684 -0.1268  0.0498
15562W        W31696   9.380  13.092   1.686  0.0842 -0.0253 -0.2573
15563W        W31697  13.495  14.164  12.752  0.1467 -0.2556 -0.1227
15564W        W31698   5.404   9.105   1.411 -0.2768 -0.0296  0.0739
15565W        W31699  16.336   6.730  12.761 -0.0160 -0.1787 -0.0087
15566W        W31700  10.328   8.962  15.704 -0.1403  0.3472 -0.0775
15567W        W31701   8.153  17.247  12.828 -0.0909  0.3318  0.1255
15568W        W31702   0.578  11.800   2.400 -0.2682  0.1286  0.0518
15569W        W31703  15.152   7.341  15.727 -0.5338  0.1044 -0.0666
15570W        W31704  14.990   0.350  14.031 -0.2337  0.2586  0.2021
15571W        W31705   3.596   3.871   1.062  0.2496 -0.0320  0.0460
15572W        W31706  10.968   5.023  15.307 -0.1966  0.0701 -0.3096
15573W        W31707   4.732  14.243   2.125  0.1157  0.1873  0.1326
15574W        W31708   0.268   5.334  13.050  0.1467 -0.1059  0.0034
15575W        W31709   0.430  13.798  14.544 -0.1529  0.1075 -0.0809
15576W        W31710   0.889   6.724  13.279  0.3446  0.0564 -0.0472
15577W        W31711  12.282   7.694   4.346 -0.1604  0.0901  0.0503
15578W        W31712  14.229   2.771  11.853 -0.2739 -0.2071 -0.0133
15579W        W31713  14.556   9.487  15.047 -0.2168 -0.1438 -0.1210
15580W        W31714   0.010   7.387  15.569 -0.1436 -0.1193 -0.1630
15581W        W31715   2.933   5.621   2.268 -0.1661 -0.3489 -0.1352
15582W        W31716   0.852   6.874   3.336  0.0672 -0.0177  0.0642
15583W        W31717  12.359  14.680   3.064 -0.1103 -0.0224 -0.3468
15584W        W31718   3.847   3.324   1.237  0.3024 -0.1801 -0.2152
15585W        W31719  15.317   5.794   3.667 -0.1565 -0.0524  0.0092
15586W        W31720   4.711  15.470  16.322  0.0734  0.1475 -0.0714
15587W        W31721   5.852  14.582   2.401  0.2331  0.2645 -0.2076
15588W        W31722  14.857  13.553   4.463 -0.0423  0.0853 -0.0371
15589W        W31723   3.473   8.607  12.228 -0.0680 -0.3084  0.0008
15590W        W31724  12.869  11.096  14.155 -0.1052  0.0025  0.0053
15591W        W31725  13.064  12.216  13.834 -0.2227 -0.0083 -0.1198
15592W        W31726  11.711  11.134  16.195  0.0054 -0.2187 -0.0101
15593W        W31727   8.983  16.822  12.403  0.2820  0.1008  0.2516
15594W        W31728   3.155  12.553  11.967  0.1538 -0.1537  0.0983
15595W        W31729   1.459  14.558   1.674 -0.3627  0.1060  0.1416
15596W        W31730   0.765  12.320  12.177  0.3240 -0.0083  0.1191
15597W        W31731   0.047   4.008   3.753  0.1411 -0.2564  0.2570
15598W        W31732  11.367   4.771   0.442 -0.1125  0.2246 -0.0117
15599W        W31733   3.471  12.059   0.673 -0.0292  0.2182  0.0852
15600W        W31734   7.459   5.639   4.418 -0.0664  0.2186  0.2784
15601W        W31735   1.706   3.308   3.234  0.1266 -0.1016 -0.1093
15602W        W31736  11.960   9.563   4.850 -0.1550  0.0300 -0.0366
15603W        W31737   0.370   7.360   1.396  0.1838  0.0500 -0.1835
15604W        W31738   6.459   9.828  12.820  0.2532 -0.0898 -0.0433
15605W        W31739   8.781   5.962   2.333 -0.2022  0.0506 -0.2286
15606W        W31740  13.506  17.903  12.591 -0.2306  0.0641 -0.0466
15607W        W31741   3.114  16.440  11.843  0.1972  0.2756 -0.2327
15608W        W31742  16.162   3.789   4.163  0.1323  0.0170  0.0860
15609W        W31743  13.919  11.366   3.246  0.3399 -0.2250  0.2096
15610W        W31744  16.155   0.852  15.126  0.0970 -0.2747 -0.1012
15611W        W31745  12.899   4.633  12.513 -0.2158 -0.3855  0.0453
15612W        W31746  11.155   7.095  15.690  0.0072  0.1880 -0.0350
15613W        W31747  12.139   2.396   0.300 -0.0849 -0.0012  0.0129
15614W        W31748  14.272   8.110   0.848 -0.2437  0.1953 -0.0883
15615W        W31749   5.407   0.009   0.927 -0.1372  0.1522  0.2533
15616W        W31750   8.450  13.211  16.396  0.3346 -0.2065  0.0663
15617W        W31751   8.850   6.232   5.584 -0.0345  0.3374 -0.2209
15618W        W31752   8.234  11.823   3.408 -0.1661 -0.0087 -0.0365
15619W        W31753   2.632   3.678  12.627  0.1708  0.4607 -0.0870
15620W        W31754  17.318  14.968   5.384 -0.0542  0.0403  0.1483
15621W        W31755   0.867   0.518   4.057 -0.4744  0.2456 -0.1053
15622W        W31756  17.858   1.148  10.378  0.0347  0.0326  0.0336
15623W        W31757  12.705   5.015   1.233  0.0092  0.0832 -0.2337
15624W        W31758  11.907   8.447   0.896  0.1106 -0.1028 -0.1447
15625W        W31759   5.692   1.456   3.967  0.1817  0.0723  0.0070
15626W        W31760   5.982  14.837  12.102 -0.2398  0.0634 -0.1889
15627W        W31761   3.162  14.488   6.246 -0.1076  0.2226 -0.3790
15628W        W31762   8.866  11.061   5.754 -0.3385 -0.1747 -0.2863
15629W        W31763   2.530   0.112  15.503 -0.0832 -0.2930  0.2790
15630W        W31764  12.417   1.907   1.849 -0.2316  0.0214  0.1442
15631W        W31765  12.720   4.636  13.261 -0.2597  0.3514  0.1981
15632W        W31766   8.786   5.421   5.185 -0.0885  0.1579 -0.0188
15633W        W31767   9.114  14.882   4.799 -0.2565 -0.2405 -0.0043
15634W        W31768   4.254  14.278   1.969 -0.1238  0.0497 -0.1141
15635W        W31769  10.912  12.811  14.235  0.0031 -0.0780 -0.0170
15636W        W31770  16.051  14.830  15.054 -0.0781 -0.1224 -0.2625
15637W        W31771   6.397   2.104  12.369  0.0118  0.0411  0.2850
15638W        W31772   2.037  15.389  11.988  0.0760  0.1510 -0.2799
15639W        W31773   1.727   1.443  13.431 -0.0730 -0.0663 -0.0739
15640W        W31774   3.385   5.902  14.815  0.1376  0.0947 -0.0568
15641W        W31775  14.469  14.462   3.600 -0.0655 -0.0584  0.3801
15642W        W31776   9.914   1.262  10.831 -0.4288  0.0985  0.1821
15643W        W31777  11.434   8.742   1.015  0.0241 -0.0757 -0.2273
15644W        W31778  16.923  16.835   3.231  0.0755 -0.2395  0.1386
15645W        W31779  12.420   4.017  12.014  0.2250  0.1357  0.0193
15646W        W31780  10.745   2.401  12.087  0.0112  0.2154 -0.2321
15647W        W31781  17.100  11.364  12.474 -0.0848  0.0309  0.1642
15648W        W31782   5.013  17.540  12.241  0.2366  0.0773 -0.0566
15649W        W31783   8.095   5.787   5.045  0.2011  0.1311  0.1613
15650W        W31784  17.932  10.874  11.866  0.0301 -0.3925  0.0486
15651W        W31785   1.313   6.750  12.457 -0.0796  0.0512  0.0187
15652W        W31786   6.214   7.648   0.678  0.0548 -0.0730 -0.3347
15653W        W31787   0.677  16.327   5.281  0.1896  0.3107  0.1373
15654W        W31788  16.504   3.090  14.120  0.1322 -0.1185  0.0565
15655W        W31789  15.091   6.659  16.044 -0.0537 -0.1061  0.0250
15656W        W31790   9.106  11.581   0.581  0.0731 -0.3723 -0.0579
15657W        W31791  11.533  11.793   0.661  0.0798  0.0646 -0.1263
15658W        W31792   0.131   4.990  14.797  0.0706  0.0264 -0.1212
15659W        W31793  11.382   0.859   0.763 -0.0901  0.2038 -0.0672
15660W        W31794   5.183  10.057  12.099 -0.0666  0.5108  0.1811
15661W        W31795   1.101   5.738  13.850  0.0561  0.2895 -0.2225
15662W        W31796   2.598   7.371   6.628 -0.2037  0.0538 -0.1405
15663W        W31797   9.799  12.219   5.393 -0.0229  0.0547 -0.2321
15664W        W31798   6.939   6.074  11.869 -0.4456  0.3134  0.1012
15665W        W31799   4.567   3.600   4.427  0.0719  0.0162 -0.1460
15666W        W31800   1.920   7.871   2.805  0.0348  0.1741  0.1545
15667W        W31801   1.663  17.359  11.854  0.0579  0.1231  0.0816
15668W        W31802   9.935   0.639  16.398  0.4014 -0.0574  0.1707
15669W        W31803  16.306   6.020   4.891 -0.1551  0.1113 -0.1206
15670W        W31804  10.003  14.580  11.142 -0.1048  0.0925  0.1277
15671W        W31805   1.006  15.822   3.972 -0.0311 -0.1238 -0.0575
15672W        W31806  11.517  10.977  13.042 -0.1407 -0.0368  0.2151
15673W        W31807   4.236   1.215   5.781  0.0218 -0.2401  0.2057
15674W        W31808  11.133   6.650  15.923  0.1962  0.0831 -0.1202
15675W        W31809  14.679   2.690  15.169 -0.1286 -0.3450  0.0003
15676W        W31810  12.174   2.065  15.434 -0.3242  0.1181 -0.0735
15677W        W31811   1.094   4.892  12.956 -0.0348 -0.2283 -0.2443
15678W        W31812  17.663  16.026  13.756 -0.0441 -0.1107 -0.3233
15679W        W31813  12.678  12.366   0.508 -0.1818 -0.0241 -0.0541
15680W        W31814   8.786  11.920  13.006  0.3551 -0.3983  0.1232
15681W        W31815   4.735  10.859  13.093  0.0513 -0.3962  0.0903
15682W        W31816  12.582   3.198   2.449  0.0122  0.0691 -0.0190
15683W        W31817   2.640   9.518  16.275 -0.0387  0.3008  0.2324
15684W        W31818   7.584   0.164  12.564  0.3831 -0.2206  0.0578
15685W        W31819   8.583   9.045  15.772 -0.0282  0.0588  0.0937
15686W        W31820  14.974  10.368  15.082 -0.0878 -0.1673  0.0373
15687W        W31821  14.799   1.316   4.025 -0.2060  0.1468  0.0891
15688W        W31822   4.488   2.467  14.784 -0.0005  0.0755  0.2177
15689W        W31823  13.192  17.555  12.718  0.0182 -0.0952 -0.1376
15690W        W31824  17.602   1.562   1.936 -0.4040  0.0367  0.2219
15691W        W31825   8.619   7.412   4.639 -0.0265 -0.0088 -0.0994
15692W        W31826   0.674  16.646   0.948 -0.1257 -0.3858  0.2077
15693W        W31827   4.017  10.331  12.391  0.0911 -0.3448  0.0407
15694W        W31828   1.304   4.238   0.607  0.0516  0.3125 -0.0657
15695W        W31829   8.523  13.152   2.704  0.0684 -0.1194 -0.1498
15696W        W31830  17.788  16.177   0.851  0.0617 -0.0843  0.0391
15697W        W31831  10.182   4.851   2.920  0.0469  0.2192 -0.0760
15698W        W31832   9.986  11.849  11.075  0.0220  0.0642 -0.2051
15699W        W31833   9.277  12.340  14.273 -0.0985 -0.2803 -0.4210
15700W        W31834   3.146   4.493   2.166 -0.1144 -0.1861 -0.1276
15701W        W31835  17.133  11.490   3.549 -0.1657 -0.4318  0.2086
15702W        W31836   4.401   0.242   2.482 -0.2793 -0.0746  0.1133
15703W        W31837  17.207   8.995   2.613  0.1686  0.1234  0.2943
15704W        W31838   5.177  15.280  12.468 -0.2089  0.0135 -0.0658
15705W        W31839   4.869   1.330   3.893 -0.0661  0.1986 -0.1866
15706W        W31840  11.161  15.008   5.025  0.1122  0.0868  0.3963
15707W        W31841   8.592   0.992   1.171  0.3215 -0.2190  0.2121
15708W        W31842  10.236  12.123   3.036 -0.0244 -0.0151 -0.3592
15709W        W31843  15.689   0.684   2.252 -0.2308 -0.0030  0.0857
15710W        W31844  16.973  13.460   0.197  0.1590 -0.0229 -0.1278
15711W        W31845  10.896   4.632   2.148  0.2922  0.2804 -0.1243
15712W        W31846   8.118   9.633   3.177 -0.1412  0.0858 -0.0661
15713W        W31847   8.075  16.111  13.183 -0.0896 -0.0668 -0.2941
15714W        W31848   8.706  17.537   0.151  0.1818  0.1485 -0.1676
15715W        W31849  14.402   9.936   1.985 -0.0342 -0.2220 -0.2052
15716W        W31850   1.267   5.893   1.319 -0.1929 -0.2946 -0.3498
15717W        W31851  17.706  15.474  13.813  0.2743 -0.0805 -0.2574
15718W        W31852  12.433   2.790  16.619  0.1209 -0.2796 -0.0004
15719W        W31853   4.356  10.425   2.554 -0.3012  0.2237  0.0169
15720W        W31854  11.432   5.518   1.452 -0.0319 -0.2861 -0.1072
15721W        W31855   0.759   4.896  14.354 -0.1510 -0.0608 -0.3486
15722W        W31856  11.187  13.857  11.609 -0.4513  0.0635  0.2567
15723W        W31857  15.329   5.890  14.688  0.1289  0.1541 -0.1631
15724W        W31858  10.997   4.932   0.828 -0.0493 -0.1767  0.2173
15725W        W31859  17.755  10.127   4.314  0.0392 -0.2417  0.2069
15726W        W31860  13.500  15.834  13.956 -0.0276 -0.0955 -0.1292
15727W        W31861   2.294   0.171   1.626 -0.3699 -0.0899  0.2354
15728W        W31862  16.660  14.163   2.905 -0.1508 -0.1908 -0.1322
15729W        W31863   3.414   2.685   1.922  0.0295  0.0861  0.3285
15730W        W31864  15.102  12.905  16.055 -0.1003 -0.1500  0.2014
15731W        W31865   7.690   9.124   0.805  0.3151 -0.1326 -0.3686
15732W        W31866   3.946  12.274  12.830 -0.1874 -0.0835  0.0636
15733W        W31867  17.870   7.436  11.680  0.1057  0.0849 -0.1050
15734W        W31868  15.140  16.819  11.832  0.1726 -0.2065 -0.0888
15735W        W31869   6.508   7.358  12.293  0.1979 -0.1983 -0.2867
15736W        W31870  11.050  12.672   5.501 -0.4059 -0.1444  0.3517
15737W        W31871  13.389   9.659  14.073  0.0895 -0.0498  0.0056
15738W        W31872  13.403   7.405  15.089  0.0738 -0.2029 -0.1229
15739W        W31873  17.095  11.615   0.746 -0.2928 -0.1503 -0.0584
15740W        W31874   6.131  16.216   2.680 -0.1039 -0.2567 -0.1155
15741W        W31875  15.120   8.066   3.279 -0.1367 -0.2293  0.0034
15742W        W31876   5.111  16.684  11.244  0.0150 -0.0071 -0.1343
15743W        W31877  16.041  17.578  13.399 -0.2791 -0.1123  0.0073
15744W        W31878   3.602   0.707  11.586  0.1349  0.2744 -0.2277
15745W        W31879  14.269   3.576   3.164 -0.3328  0.0960 -0.2229
15746W        W31880   2.035   6.567   4.844  0.2462 -0.0054  0.2409
15747W        W31881  10.700  17.823  14.463 -0.1847  0.2374 -0.0536
15748W        W31882  13.557   4.483  13.444 -0.1478 -0.0272 -0.0177
15749W        W31883   5.688  10.740   2.143  0.2148 -0.1813 -0.3222
15750W        W31884  13.239  14.650  11.300  0.1121  0.1524 -0.0218
15751W        W31885   0.055  16.976  13.972 -0.0543  0.0486  0.0657
15752W        W31886   2.782  10.692  13.606  0.1792 -0.0263  0.2269
15753W        W31887  14.911   3.192   3.776 -0.2769 -0.0667 -0.1715
15754W        W31888   1.249   4.413  13.570  0.2029  0.3803 -0.2860
15755W        W31889  16.466  10.905  14.047 -0.1445  0.0706 -0.1053
15756W        W31890  16.006   0.046   1.576  0.2717  0.0722  0.0429
15757W        W31891   4.528   9.789   4.165 -0.0161  0.1286 -0.0440
15758W        W31892  11.928  15.506   4.184  0.1971 -0.0355  0.1504
15759W        W31893  13.915  14.074  12.207  0.1246  0.2403 -0.1942
15760W        W31894   0.726  13.526   2.726 -0.1589 -0.1639  0.3648
15761W        W31895  14.290  13.765   2.957  0.2399  0.1267 -0.2265
15762W        W31896  17.181   4.677  16.712  0.0709 -0.0260  0.1592
15763W        W31897   4.556   1.952  14.956  0.0957 -0.0706 -0.0640
15764W        W31898   4.245   2.835  12.139 -0.1051  0.2938  0.6785
15765W        W31899  12.417   5.599   1.708 -0.2127  0.2111  0.1228
15766W        W31900   8.248  16.630   3.974 -0.1914 -0.0249  0.0407
15767W        W31901  12.434   6.508  15.829  0.0557  0.2658  0.0396
15768W        W31902   1.506  17.296  16.385  0.0848  0.2109  0.0446
15769W        W31903   4.432  17.950  15.860 -0.0781 -0.2236 -0.0302
15770W        W31904   7.970  10.231  12.177 -0.5152  0.2420  0.1935
15771W        W31905  14.801   8.349  10.520  0.0768  0.0954  0.1259
15772W        W31906   7.750  15.145   1.978  0.2518 -0.2593 -0.1453
15773W        W31907  14.411   5.981   5.445 -0.1887  0.0765 -0.2260
15774W        W31908   0.873  14.617  13.184  0.1115 -0.2604 -0.0103
15775W        W31909   6.853   2.270  12.041 -0.0586  0.0789  0.1627
15776W        W31910   2.380   0.033  11.876  0.0797  0.2328 -0.0447
15777W        W31911  15.445  12.563  14.830 -0.0279  0.0601 -0.2304
15778W        W31912  12.476  15.481  12.001  0.0716 -0.0396 -0.2109
15779W        W31913  14.122  10.296   4.278 -0.4001  0.2076 -0.0811
15780W        W31914   2.086   8.516  13.193  0.0987  0.0140  0.3992
15781W        W31915  14.761  12.515  12.940  0.0286 -0.0397 -0.1637
15782W        W31916  16.991   7.179   3.476  0.1266 -0.1123  0.0074
15783W        W31917   1.980   8.650  11.156 -0.2424  0.1221 -0.5040
15784W        W31918  15.501   4.423  12.574 -0.1679 -0.1420  0.1233
15785W        W31919   5.231   7.292   4.185  0.0631  0.0994 -0.1154
15786W        W31920   7.770   3.850   5.476  0.0884  0.1900 -0.2210
15787W        W31921   1.373  10.273   6.023 -0.2313 -0.0581  0.0429
15788W        W31922  13.689   1.509   5.399  0.0562  0.0668  0.0399
15789W        W31923   0.753   7.206   4.845 -0.1296  0.2488 -0.2695
15790W        W31924   7.599   8.088   0.158  0.0942 -0.1125 -0.1596
15791W        W31925   3.506   5.824  12.449 -0.3024  0.1709  0.3525
15792W        W31926   0.683  11.141  11.993 -0.0376 -0.0772 -0.0256
15793W        W31927   3.330   9.393   2.369  0.0790 -0.0155 -0.0797
15794W        W31928   5.637  16.478   1.274  0.1900 -0.0336  0.0828
15795W        W31929  14.924   4.581   3.779 -0.1464 -0.1366 -0.1623
15796W        W31930  17.881  13.318  14.897 -0.2633  0.0412 -0.1081
15797W        W31931   7.585   1.964   0.165 -0.0054  0.0094 -0.1358
15798W        W31932   1.116   7.479  12.955 -0.2632  0.1028  0.3598
15799W        W31933   7.158   9.193   0.812 -0.2027 -0.0164  0.2019
15800W        W31934   7.267   9.233   6.130 -0.1475 -0.0853 -0.1087
15801W        W31935  14.268   0.890   1.738  0.0913 -0.3588  0.3201
15802W        W31936  13.843   6.000   3.205 -0.2652 -0.2951 -0.2290
15803W        W31937   5.905   4.439  15.361 -0.0086  0.0521  0.0605
15804W        W31938   1.512  17.666  15.323  0.0221 -0.4484  0.0342
15805W        W31939   0.167   4.378  12.963  0.2084  0.1011  0.1979
15806W        W31940   1.969   3.355   4.153  0.0822  0.0449 -0.0226
15807W        W31941  11.111  11.924  13.345 -0.0046  0.1312 -0.1154
15808W        W31942   3.657   4.533  12.930 -0.0515 -0.2297  0.0246
15809W        W31943  10.851  12.937   3.858 -0.1639  0.1880 -0.0413
15810W        W31944  13.805  14.557  12.942 -0.1960 -0.0138  0.2554
15811W        W31945   1.045  11.566   3.180 -0.1144 -0.1162  0.3151
15812W        W31946  11.405  16.471   6.373 -0.1439  0.2567 -0.1922
15813W        W31947  17.697  15.633   1.669 -0.1896  0.0402 -0.0184
15814W        W31948   4.379  16.204  11.509 -0.0965 -0.1049  0.1017
15815W        W31949   0.511  17.925  14.305 -0.0995  0.1594  0.2424
15816W        W31950   1.804  10.958   4.347 -0.1831 -0.2410 -0.1611
15817W        W31951  15.996  15.765   3.273  0.1089 -0.1651 -0.0143
15818W        W31952  10.439  14.267   2.524  0.0542  0.1121 -0.0049
15819W        W31953  13.753   3.402   0.589  0.2041  0.0053 -0.1446
15820W        W31954   9.914  15.821   5.457  0.2739  0.0388 -0.1710
15821W        W31955   5.449   5.753   1.639  0.1218 -0.0481 -0.0276
15822W        W31956   5.614  14.164   0.204 -0.1202  0.0250 -0.2504
15823W        W31957  17.939   4.203  11.445 -0.0589 -0.2610  0.3650
15824W        W31958   9.708  11.786   2.278 -0.1702  0.0269 -0.0562
15825W        W31959  15.823   6.968  15.839  0.2974  0.2070  0.0512
15826W        W31960   6.169   9.742   2.294 -0.0897 -0.2528  0.1108
15827W        W31961   6.108   9.692  13.159 -0.0788  0.2675 -0.3892
15828W        W31962   3.546  17.755   0.568 -0.2389  0.0327  0.1965
15829W        W31963   2.497  15.597   4.967  0.2554 -0.1104  0.1470
15830W        W31964  12.982   4.573   4.925 -0.5030  0.1368 -0.3664
15831W        W31965   2.995   9.514   5.272  0.0404 -0.2061  0.3036
15832W        W31966  10.652   0.597   5.903  0.0083  0.3560 -0.0542
15833W        W31967   5.828   4.266  16.315  0.0166  0.1302  0.0676
15834W        W31968   9.946  17.628   3.864  0.0268  0.0444 -0.3773
15835W        W31969   5.558  15.674   0.474  0.4778  0.1778 -0.0752
15836W        W31970   7.833   4.527  15.271  0.1790 -0.2723  0.3294
15837W        W31971   4.993  10.607   6.597  0.1951  0.1352  0.1708
15838W        W31972   3.601   8.293   6.097  0.0308 -0.0773  0.0662
15839W        W31973  11.460  10.180   0.450  0.0151 -0.0493  0.0220
15840W        W31974   9.846  10.330   3.086 -0.4501  0.0159  0.4032
15841W        W31975  15.458  11.528   3.975 -0.0429  0.3069 -0.2904
15842W        W31976   0.112  12.225   5.298  0.0713  0.0923 -0.2188
15843W        W31977   2.794   7.895   2.509  0.0494  0.3574  0.1170
15844W        W31978   6.838   7.592   1.666  0.1110  0.1267 -0.0427
15845W        W31979  11.852   0.529  14.783  0.0169 -0.1820 -0.1957
15846W        W31980  14.958   4.151   0.190 -0.0800 -0.0919  0.2493
15847W        W31981   5.284  16.258   4.506  0.0553  0.1027  0.0355
15848W        W31982  13.614  10.771  11.098 -0.1734  0.2368 -0.0497
15849W        W31983  16.561  15.694   0.244 -0.1717  0.0655 -0.1161
15850W        W31984  15.073   7.562   1.857  0.1308 -0.1351  0.2181
15851W        W31985   7.010   9.201  15.838 -0.2197 -0.2916  0.0815
15852W        W31986  16.940   4.090  14.306 -0.3291  0.3025 -0.0742
15853W        W31987   3.270  15.020   5.152  0.0457 -0.1000  0.0881
15854W        W31988   6.790   9.563  16.581 -0.0914 -0.2947 -0.2293
15855W        W31989   0.268  11.163   4.814 -0.4302  0.3124 -0.0144
15856W        W31990  13.587  10.386   3.176 -0.0143  0.2158  0.4301
15857W        W31991  17.458   3.215   3.571  0.0491  0.5420  0.0243
15858W        W31992  17.071   5.366   1.525  0.0332  0.1605 -0.1380
15859W        W31993   7.704  15.223   2.510  0.0533  0.1499 -0.1473
15860W        W31994   7.348   7.479   3.487  0.1633 -0.2891 -0.1231
15861W        W31995   8.507   2.442  10.815 -0.2459  0.1476 -0.1659
15862W        W31996  12.539  17.757   1.349 -0.0601 -0.3225  0.2401
15863W        W31997   9.342   0.856   2.583  0.1160 -0.0089  0.1578
15864W        W31998   1.778   3.397  14.504  0.0001  0.0698 -0.0101
15865W        W31999   1.950   1.652   5.262  0.1681 -0.3754 -0.2796
15866W        W32000  14.284  16.793   0.006 -0.0146 -0.1038  0.1476
15867W        W32001  11.453   9.882  12.205 -0.0451 -0.3663  0.0825
15868W        W32002   6.785  14.920  13.212 -0.0119  0.2739  0.0711
15869W        W32003   1.501  11.005   0.217 -0.0348  0.1136  0.0931
15870W        W32004   4.461  10.108   3.799  0.2482  0.2502 -0.3134
15871W        W32005   0.694   0.281   6.112 -0.0050 -0.0079  0.2124
15872W        W32006  16.061  16.280  15.199 -0.2106  0.2814 -0.0178
15873W        W32007   6.581   6.544  14.632  0.0515  0.1491 -0.2387
15874W        W32008  15.008   3.344  11.805 -0.1349 -0.3866  0.0336
15875W        W32009  10.057  17.209   4.579 -0.0647 -0.1550  0.0800
15876W        W32010  16.418  13.517   0.084  0.1343 -0.0705 -0.0725
15877W        W32011  15.353   7.964  16.722  0.1590  0.1036 -0.0098
15878W        W32012   2.100   2.010   1.263  0.0703  0.2405 -0.1660
15879W        W32013  13.055  15.487  16.332  0.0841 -0.2558  0.1129
15880W        W32014   4.966   8.018   2.867  0.2042 -0.0968  0.0140
15881W        W32015   2.093  13.190  12.297  0.2482 -0.0192 -0.2243
15882W        W32016   6.978   2.583   5.660 -0.0055  0.1216 -0.0164
15883W        W32017  13.821  14.684  14.994  0.1339  0.0821 -0.0144
15884W        W32018   0.285   7.809   4.725 -0.0957 -0.1661 -0.1721
15885W        W32019   1.646  16.714  13.460 -0.0485  0.2407 -0.2625
15886W        W32020   6.990   5.742   4.507  0.2410  0.1932 -0.2485
15887W        W32021   0.334  17.954   0.890 -0.1435 -0.2516 -0.2038
15888W        W32022  14.154  16.557   2.360  0.0056 -0.0797 -0.1922
15889W        W32023   0.049  17.496  13.057 -0.0440  0.1883  0.1314
15890W        W32024  10.459  15.541   0.066  0.0445  0.0568  0.0920
15891W        W32025   5.012   5.662   0.743 -0.0459  0.0986 -0.1359
15892W        W32026  11.693   9.562   0.948  0.1302 -0.1440 -0.0122
15893W        W32027   6.515   2.827   1.073 -0.0581 -0.0927  0.0315
15894W        W32028   1.641   3.451   2.752  0.1518 -0.1785  0.0968
15895W        W32029   8.218  12.939  16.082  0.2448 -0.0613  0.2566
15896W        W32030   6.528  10.191   2.440 -0.0775 -0.0909  0.3107
15897W        W32031  12.055  14.423  13.321  0.3464  0.0001  0.0555
15898W        W32032   4.303   8.388   1.624 -0.1179  0.2272  0.0333
15899W        W32033   3.791  10.774  13.219 -0.1552  0.0578  0.0492
15900W        W32034  16.275  10.738  15.636 -0.1332  0.3670 -0.0874
15901W        W32035   7.910  12.115   1.463  0.0948  0.0098  0.1205
15902W        W32036   7.173  11.508   2.226 -0.2801  0.0056  0.0920
15903W        W32037  17.553   6.389  15.642 -0.1126 -0.1730 -0.0125
15904W        W32038  16.723  14.682  11.595  0.0541  0.0929 -0.1619
15905W        W32039   4.033  11.167  13.947 -0.0838 -0.2945  0.0252
15906W        W32040   9.630  13.814   2.154  0.1970 -0.1450  0.1182
15907W        W32041   6.220  17.674  15.539 -0.0380  0.1246  0.0388
15908W        W32042   8.425   0.162  12.020  0.1115 -0.1427 -0.2644
15909W        W32043   3.348   3.945   3.166 -0.1016 -0.0617 -0.0474
15910W        W32044  17.638  10.199  15.638  0.1349 -0.0813 -0.0222
15911W        W32045   9.227   5.255  12.773  0.0126 -0.0247 -0.1485
15912W        W32046  16.916   4.990   0.217  0.0940 -0.5944  0.0629
15913W        W32047  12.801   8.667   4.907  0.1155  0.0284  0.0608
15914W        W32048  11.926   7.703  13.582 -0.3766  0.1653  0.2076
15915W        W32049   2.548  11.442   2.213  0.0817 -0.1301 -0.2771
15916W        W32050  15.007  16.312  12.284  0.0831 -0.2919 -0.0538
15917W        W32051   5.938  11.021   4.533  0.0799 -0.0099  0.0920
15918W        W32052   2.272   6.009   0.392 -0.0626  0.0758  0.1605
15919W        W32053  16.964   2.696   1.817  0.1784 -0.0995 -0.3091
15920W        W32054   3.572   0.228   2.985 -0.0065 -0.0051 -0.1594
15921W        W32055  16.716  13.688   2.636  0.1971  0.2547  0.0518
15922W        W32056   5.886   5.610  14.804 -0.2904 -0.2243  0.4733
15923W        W32057  13.856   1.747   3.631 -0.3964 -0.3773  0.0904
15924W        W32058  16.688   1.841   0.548  0.0991  0.3625 -0.2829
15925W        W32059  11.147   2.018  15.655  0.3829  0.1629 -0.1106
15926W        W32060  11.381  12.766  11.678 -0.1387 -0.1600 -0.2167
15927W        W32061   8.723  13.521   3.965 -0.0675 -0.0373 -0.1100
15928W        W32062   2.311  10.148   1.474 -0.0741 -0.0127 -0.1611
15929W        W32063   5.452   0.198  12.748  0.0052 -0.1219 -0.1160
15930W        W32064  14.410   6.527   1.141  0.0265 -0.2815 -0.0678
15931W        W32065  15.968  13.972  14.069  0.1795 -0.1333  0.1441
15932W        W32066   7.209  13.355  11.805  0.3674  0.1449  0.3092
15933W        W32067   0.230   3.005  12.401  0.0035  0.0906 -0.3596
15934W        W32068   6.928  16.678   4.054 -0.2043 -0.0440  0.0847
15935W        W32069  14.874  12.531  15.818  0.0975  0.0506  0.4382
15936W        W32070  14.299  17.516  12.122 -0.1522 -0.0170  0.0566
15937W        W32071   7.628   1.395   2.621 -0.0512  0.1705  0.0845
15938W        W32072  16.114  11.829  16.274 -0.2149 -0.3356 -0.0977
15939W        W32073   2.119   0.265   1.167  0.0051 -0.1854  0.0505
15940W        W32074   2.482   3.251   1.534 -0.2965  0.1463  0.0015
15941W        W32075  12.596   1.874   2.298 -0.1016  0.2891 -0.2245
15942W        W32076   8.864  15.744  14.354  0.1336  0.2213  0.0554
15943W        W32077  11.034  11.810   4.059  0.0310  0.1774  0.0707
15944W        W32078   4.104  14.591  12.268  0.0240 -0.2207  0.0823
15945W        W32079  12.630   0.020   4.252 -0.1610  0.3987  0.4469
15946W        W32080   7.308   9.714  13.004 -0.0453  0.3843  0.0851
15947W        W32081  13.393   2.792   5.478  0.3200  0.1112 -0.1940
15948W        W32082   1.678  13.408   2.315  0.0308 -0.1909  0.0528
15949W        W32083  11.023   8.783   3.326  0.1067  0.3456  0.2670
15950W        W32084  15.272   7.770  12.412 -0.1330 -0.1529 -0.0837
15951W        W32085   0.545   0.095  13.277 -0.4138 -0.3231 -0.0964
15952W        W32086   4.689  10.176   1.349 -0.2743 -0.1802  0.0942
15953W        W32087   2.927   3.230   2.669 -0.4288 -0.0261 -0.0877
15954W        W32088   9.911   6.892  15.664  0.2488 -0.0645  0.2104
15955W        W32089  13.185   6.587   2.018  0.0376 -0.1170  0.1311
15956W        W32090   5.591   5.001   2.336 -0.1697 -0.1009  0.0215
15957W        W32091   6.631  11.170   0.111 -0.0887 -0.0540  0.0266
15958W        W32092   9.942  13.829   0.035 -0.0964  0.2817 -0.2010
15959W        W32093   2.918   4.956   2.188 -0.1047 -0.2257 -0.0519
15960W        W32094   5.662  17.443   0.148  0.1377 -0.0291  0.1183
15961W        W32095   2.380   2.601  11.171  0.2700 -0.2865  0.2157
15962W        W32096  13.540  13.724  11.983  0.0007 -0.0712  0.0063
15963W        W32097   3.568   5.545   0.606 -0.2022  0.0158  0.0498
15964W        W32098   9.955   1.738  16.604 -0.0013  0.0105  0.0802
15965W        W32099  15.924  16.332   4.720 -0.1737  0.1910  0.1061
15966W        W32100  12.849   8.216  15.802  0.0023 -0.1573 -0.1309
15967W        W32101  10.840   6.570   0.677 -0.2085 -0.0461 -0.1298
15968W        W32102  13.619   9.438   2.179 -0.3293  0.2661  0.1788
15969W        W32103  12.671   5.702  11.734 -0.0112 -0.2466 -0.0025
15970W        W32104  11.133   9.526  15.798 -0.0249 -0.1015  0.0388
15971W        W32105   2.261  13.914  13.095 -0.1420  0.0876  0.2084
15972W        W32106  17.825  10.424   5.650  0.1860 -0.2724  0.1886
15973W        W32107  13.568   9.140   1.007 -0.1261 -0.5316 -0.1939
15974W        W32108   4.238  13.504   2.912  0.0436 -0.2007 -0.1638
15975W        W32109  15.088   5.047  15.299 -0.1056  0.1670  0.1321
15976W        W32110   7.589  11.083  13.651 -0.4321  0.2395  0.0383
15977W        W32111  14.851   9.528  13.963  0.1131 -0.2673  0.0596
15978W        W32112  14.425   9.246   3.581 -0.0541 -0.0723 -0.1356
15979W        W32113  15.267   4.861  12.191 -0.0163 -0.0462  0.0665
15980W        W32114   3.338   6.595   4.799 -0.0016 -0.1748 -0.1447
15981W        W32115   5.629  16.503  14.811  0.2316 -0.1206  0.0490
15982W        W32116  14.266   4.745  12.946  0.2026 -0.0674 -0.2527
15983W        W32117  12.145   7.707  14.273 -0.1008 -0.1739 -0.0886
15984W        W32118  16.679  10.416  12.079 -0.1314 -0.4846 -0.0554
15985W        W32119  13.640   8.296  15.235  0.2203 -0.0951 -0.1768
15986W        W32120   6.552   3.330  16.270  0.0867 -0.1644  0.1740
15987W        W32121   1.802   2.746  16.211  0.2915  0.1546 -0.1582
15988W        W32122   9.190  17.098  11.318  0.0595 -0.2306 -0.1152
15989W        W32123  14.678  16.134  14.856 -0.1773  0.0697  0.1225
15990W        W32124   3.660   6.423  15.564  0.0373 -0.0894 -0.2661
15991W        W32125   3.318   5.821  15.364 -0.2233 -0.1783  0.0636
15992W        W32126  13.813   5.204  16.526 -0.0370 -0.1560  0.1259
15993W        W32127  14.689  12.003  13.055 -0.3021  0.0902 -0.2318
15994W        W32128   5.507   3.886   4.822 -0.1208  0.0438 -0.1625
15995W        W32129   3.487   8.825  10.582  0.0409  0.1724 -0.1949
15996W        W32130  10.219  11.371  14.278 -0.1495 -0.2179 -0.2485
15997W        W32131  11.473   4.499  15.451  0.1340 -0.3036 -0.1220
15998W        W32132   6.722  14.224  13.992  0.2153  0.0893  0.0622
15999W        W32133   8.919  16.336  12.548  0.1058 -0.0979  0.2043
16000W        W32134  10.248   1.664  15.898 -0.3049  0.0395 -0.3114
16001W        W32135   6.572   2.709  13.228 -0.1541 -0.0092 -0.1330
16002W        W32136   5.223  14.741  15.756  0.0650  0.0868 -0.0537
16003W        W32137   5.603   7.886   5.893 -0.1614 -0.2464  0.0983
16004W        W32138  14.670  12.145  12.563  0.0848 -0.0592 -0.0088
16005W        W32139  10.331   8.596   2.093  0.0174 -0.2505  0.0133
16006W        W32140   9.421  16.422   5.154 -0.0069 -0.1223  0.0326
16007W        W32141  17.022  14.080   2.529 -0.2264 -0.3845 -0.0374
16008W        W32142  15.560   3.151  14.252 -0.1138  0.2694 -0.2014
16009W        W32143  12.680   5.800   0.521  0.0346 -0.0157 -0.0702
16010W        W32144  13.110   8.309  12.801 -0.1677 -0.0157 -0.0665
16011W        W32145   6.731   7.010  15.274 -0.0557  0.1665 -0.0334
16012W        W32146   4.952  13.023   3.161 -0.1775  0.3789 -0.2643
16013W        W32147  14.427  10.220   3.322 -0.2605 -0.1400  0.0241
16014W        W32148   0.833   5.168  15.284  0.1771 -0.0601 -0.0345
16015W        W32149   2.560   3.948  14.121  0.1295  0.2891  0.3188
16016W        W32150  11.723   3.908   3.818  0.1907 -0.0581 -0.1494
16017W        W32151   5.482   8.958   4.788 -0.1553 -0.2149  0.0968
16018W        W32152  13.600  17.572  13.150 -0.1355  0.5387  0.0613
16019W        W32153   6.336   8.633   4.468 -0.2980  0.0551  0.2140
16020W        W32154  10.839  13.566   0.086 -0.0007  0.0518 -0.1348
16021W        W32155  11.663  12.062  10.359 -0.2717  0.1760 -0.3523
16022W        W32156  12.549   2.122  13.700 -0.3508 -0.0101  0.1359
16023W        W32157   5.409   8.503   4.424  0.0906  0.2955 -0.0173
16024W        W32158   4.927  14.283  15.008  0.1891 -0.2602 -0.2502
16025W        W32159   3.571  12.296   2.764  0.1348  0.1831  0.3700
16026W        W32160   2.534  16.657  12.065 -0.2376 -0.3627 -0.1904
16027W        W32161  16.349   2.974   5.204  0.2356 -0.0891  0.1982
16028W        W32162   4.857   4.152  14.808  0.1356  0.2201 -0.0418
16029W        W32163   2.394  17.158   1.453 -0.2064 -0.1579  0.0192
16030W        W32164   6.707   8.162  13.455  0.1779  0.0704  0.1399
16031W        W32165   9.698   3.660  11.722 -0.2827 -0.1616 -0.1279
16032W        W32166  15.873  10.853  15.961 -0.0714  0.0033  0.1070
16033W        W32167   5.961  11.518  12.766 -0.1452  0.2290 -0.1585
16034W        W32168   0.756  13.991   4.388  0.0357 -0.2040 -0.0976
16035W        W32169  16.127   8.120  13.317 -0.1974  0.0209  0.3937
16036W        W32170   5.667  10.225  13.385 -0.0217 -0.2535 -0.0056
16037W        W32171   3.775   9.476   4.584 -0.1772 -0.2897 -0.2113
16038W        W32172   6.831  13.220  14.009 -0.0266  0.0071 -0.2461
16039W        W32173  10.950   9.834  13.139  0.1776  0.2629  0.0864
16040W        W32174   8.664   5.644   0.987 -0.1741  0.3494 -0.0481
16041W        W32175  15.195  12.295  13.053 -0.1161  0.0294 -0.0780
16042W        W32176  14.122  17.115   0.405  0.0215 -0.0143  0.0008
16043W        W32177   5.832  10.424  13.861 -0.0850 -0.0656  0.0851
16044W        W32178   1.950  13.224   0.456 -0.3907 -0.0317 -0.1462
16045W        W32179   0.843   8.364  12.613  0.0302  0.4623 -0.0841
16046W        W32180   8.802   7.967   2.467 -0.0307  0.0274 -0.0924
16047W        W32181  17.667   5.518   0.588  0.1256 -0.0196  0.0651
16048W        W32182  17.742   0.529   0.712 -0.0338 -0.0676 -0.0905
16049W        W32183  10.726   7.044  16.029 -0.2016 -0.0476 -0.2902
16050W        W32184  15.438  16.717  14.027 -0.0725  0.0660 -0.0351
16051W        W32185   4.580   9.919  11.741  0.1669  0.0224 -0.4150
16052W        W32186   1.558   6.769  13.914  0.0300 -0.2752 -0.1321
16053W        W32187  11.691   7.611  14.575 -0.0098  0.0228  0.0184
16054W        W32188  11.791   6.517   3.445  0.1484 -0.4403  0.0066
16055W        W32189   6.631   8.300  12.469 -0.2143  0.1932 -0.1865
16056W        W32190  16.087   9.402  14.479  0.2022 -0.4805 -0.2806
16057W        W32191  15.533   8.701   5.628 -0.0766  0.1364  0.1950
16058W        W32192  11.082   5.943   5.785  0.1628  0.1857 -0.2938
16059W        W32193  12.039   7.618   4.850 -0.1822  0.0076 -0.0789
16060W        W32194  15.310  15.395   4.084  0.0229  0.0215  0.3386
16061W        W32195  17.023   8.677  16.097  0.4858 -0.1946 -0.0544
16062W        W32196   0.106   3.273  12.932  0.2349 -0.4362 -0.3628
16063W        W32197  17.395  13.568   3.297  0.0780 -0.2728 -0.2237
16064W        W32198  11.192   8.267  10.764 -0.1943  0.3516 -0.1086
16065W        W32199  10.787   9.874  15.769  0.0383  0.0153  0.0244
16066W        W32200   2.229  10.781   1.499  0.0838 -0.1232 -0.2522
16067W        W32201   1.488   8.717   5.378 -0.0361  0.2231  0.0652
16068W        W32202   1.731  10.117  16.269 -0.1371  0.2275  0.2531
16069W        W32203   6.461   1.476   2.178  0.2608  0.2333  0.1100
16070W        W32204  16.493   4.820   4.213  0.1082  0.1946 -0.1689
16071W        W32205   7.572   4.752   5.414 -0.1011  0.0534  0.2732
16072W        W32206  11.165   1.542  15.876  0.0126 -0.2551  0.2958
16073W        W32207  13.302   1.729   1.839  0.0754  0.1516  0.0114
16074W        W32208  14.586   3.952   0.484 -0.1670 -0.2034 -0.0317
16075W        W32209  12.362   9.559   3.723  0.2930 -0.1462 -0.1612
16076W        W32210   1.937   0.926  16.168 -0.0275  0.0448 -0.0415
16077W        W32211   8.805  10.420  13.818 -0.1177  0.2458  0.1984
16078W        W32212  10.481  12.086   0.345  0.2627  0.0028 -0.3113
16079W        W32213  11.893   1.258  11.541 -0.1742 -0.2390  0.1004
16080W        W32214   1.348   3.500   4.600  0.0319  0.3413 -0.1093
16081W        W32215  12.153   3.715   3.867 -0.1859 -0.2397 -0.1288
16082W        W32216   0.520  10.963  15.108  0.1515  0.0008  0.1163
16083W        W32217   4.668   2.553   1.736 -0.0131 -0.0224 -0.0013
16084W        W32218  17.349   9.525  12.699 -0.1502  0.0100 -0.0968
16085W        W32219   0.634  13.227  11.873  0.1042 -0.1950 -0.6830
16086W        W32220  14.048   2.489   0.985  0.1472 -0.1931 -0.1061
16087W        W32221  10.066   5.046   5.751  0.0225  0.2182 -0.1867
16088W        W32222   9.735   8.782   4.104 -0.3676 -0.0636  0.1535
16089W        W32223   7.746   5.688  12.033  0.1963  0.3030 -0.3417
16090W        W32224  13.889   2.642  15.059  0.0019  0.0390 -0.0313
16091W        W32225   8.658   1.195   3.483  0.0304 -0.3127  0.3088
16092W        W32226  14.538  17.272  13.197 -0.1174  0.0256  0.0275
16093W        W32227   8.401   7.991   0.909 -0.0994  0.0649 -0.2053
16094W        W32228   8.298   4.808  16.139 -0.1236  0.0160  0.3250
16095W        W32229  11.163   6.415  11.888 -0.0303 -0.0005  0.0194
16096W        W32230  14.528  15.753   4.160 -0.0549 -0.2168 -0.2853
16097W        W32231   8.655   1.286  14.969 -0.2431 -0.3707 -0.1698
16098W        W32232   6.195  17.779  13.666 -0.2994 -0.0087 -0.2807
16099W        W32233   0.730   1.604   5.047  0.0470 -0.2028 -0.1286
16100W        W32234   3.094   9.297   2.815 -0.2198  0.2190 -0.2778
16101W        W32235   9.134   3.615  16.539  0.2025  0.0963  0.1848
16102W        W32236  10.121   6.079   0.083 -0.1340 -0.1648  0.0364
16103W        W32237  15.104   9.212  11.986 -0.1668 -0.0747  0.1597
16104W        W32238  14.647   1.885   4.657 -0.1158  0.2217  0.1944
16105W        W32239  12.513   0.459   2.822 -0.3766  0.0055 -0.1273
16106W        W32240   1.198  15.986  12.407 -0.1001  0.3534 -0.1022
16107W        W32241   4.786   3.512   5.559 -0.1923  0.4035  0.0543
16108W        W32242  17.577  13.259  12.610  0.2278 -0.1511 -0.0644
16109W        W32243   8.433  14.410  16.201  0.0644 -0.3953 -0.1875
16110W        W32244  13.565  16.118  16.699  0.0035  0.0459  0.1151
16111W        W32245  12.882   9.172  10.851  0.0234  0.0331  0.2375
16112W        W32246  14.391  10.492  11.592  0.1231 -0.1620 -0.3709
16113W        W32247   7.694   3.725   1.053 -0.0015  0.0166 -0.0275
16114W        W32248   8.588   5.917   4.534 -0.2558  0.0993 -0.0551
16115W        W32249  16.236  12.913  13.832 -0.0097 -0.4093  0.0121
16116W        W32250  15.772  12.298   4.578 -0.1601  0.0339 -0.0179
16117W        W32251  15.557  14.383  12.906 -0.1918  0.1996 -0.0377
16118W        W32252  15.132  14.376  15.890 -0.3071 -0.0112  0.1668
16119W        W32253   0.888   4.845  15.945 -0.2654 -0.1349 -0.0066
16120W        W32254   3.259   6.507  16.548 -0.0079  0.2058 -0.0233
16121W        W32255  12.610   6.738   3.589  0.2498  0.3045 -0.1401
16122W        W32256  11.754   5.980  14.552  0.1252 -0.2993  0.0534
16123W        W32257  13.171  14.288   3.157  0.0468  0.0927 -0.0452
16124W        W32258  17.849  15.982  13.000 -0.1679  0.1530 -0.0777
16125W        W32259   5.645   4.808  14.819 -0.0688 -0.1392  0.0609
16126W        W32260  10.037   8.072  14.143 -0.2387 -0.5038  0.0828
16127W        W32261   7.932   2.090  16.473  0.4734  0.3140 -0.0480
16128W        W32262   9.644   7.207   1.821  0.0237 -0.2673 -0.1449
16129W        W32263   5.498  12.175  11.880 -0.1796 -0.3053  0.0872
16130W        W32264   2.035   5.820  11.366  0.2127 -0.1226 -0.0206
16131W        W32265  10.224  16.422   3.591  0.2340 -0.0131  0.0006
16132W        W32266   8.405   9.159   1.061 -0.0106  0.0574 -0.0946
16133W        W32267   9.984   4.980  15.189  0.0632  0.0338 -0.5197
16134W        W32268  17.911   0.327   3.322  0.3548  0.0886 -0.0204
16135W        W32269  17.337   0.787   0.574 -0.0490 -0.0576  0.2768
16136W        W32270  13.950  15.814   2.501 -0.0203 -0.0896 -0.0580
16137W        W32271   8.515  15.415   5.487  0.0579 -0.3641 -0.1580
16138W        W32272   5.821  16.520  16.168  0.1513 -0.2051  0.0366
16139W        W32273  11.437   9.808   2.080 -0.1216 -0.1401  0.3291
16140W        W32274   3.478   4.947   1.966  0.4875  0.0432  0.1894
16141W        W32275   9.700   3.216   2.850 -0.0068  0.1176  0.3726
16142W        W32276   4.359   3.314   3.936  0.1504 -0.1761  0.3084
16143W        W32277   8.863   0.229   3.455 -0.0850  0.0946 -0.3992
16144W        W32278   8.605   9.924  15.210 -0.2006 -0.0127  0.2197
16145W        W32279   0.127  16.062   1.779 -0.2338  0.0942 -0.2027
16146W        W32280   4.890   8.645   2.242  0.0548 -0.2244  0.1182
16147W        W32281  11.024  11.284  11.578  0.2879  0.0004 -0.3235
16148W        W32282   4.879   9.840   2.609  0.0615  0.1259 -0.0889
16149W        W32283  17.090   4.770   4.290  0.0539  0.1856 -0.1160
16150W        W32284  12.972   7.538   0.382  0.0321 -0.1657 -0.0134
16151W        W32285   2.265   7.014   0.872 -0.0988  0.2442 -0.0740
16152W        W32286  17.012   8.445   6.399  0.0195  0.2918 -0.1854
16153W        W32287   1.716  11.684   1.496  0.1398  0.0510  0.2919
16154W        W32288  15.018  11.008  12.339 -0.0428 -0.1674  0.2158
16155W        W32289  13.028   0.709   0.218  0.1722 -0.1393  0.2406
16156W        W32290   1.908   8.536   5.138 -0.0607 -0.1715  0.1195
16157W        W32291   2.418   4.107  13.384  0.4782 -0.0304  0.2255
16158W        W32292   6.456  13.883  13.205 -0.1372  0.1125 -0.0241
16159W        W32293  16.928  16.981  13.254 -0.2189 -0.0070 -0.1506
16160W        W32294  14.226   9.490  13.100  0.0565 -0.0505  0.0487
16161W        W32295  13.569   4.157  14.683  0.0001 -0.1142  0.0389
16162W        W32296   5.822   0.940   5.086  0.4363 -0.0989 -0.0954
16163W        W32297  12.016  14.755  15.864  0.1718 -0.0500 -0.1862
16164W        W32298   8.372   5.830   1.909  0.0334 -0.2096  0.0575
16165W        W32299   8.128   2.168   4.468  0.0206 -0.1836 -0.2958
16166W        W32300   5.159   2.748  13.463 -0.0457 -0.1419 -0.1338
16167W        W32301   7.446   4.633   1.863  0.1909  0.2051 -0.0773
16168W        W32302  17.526  15.198   0.424  0.1157  0.0708 -0.0681
16169W        W32303   5.787  12.972   4.785  0.1586 -0.3812  0.2036
16170W        W32304   1.414  15.531   1.316 -0.0331 -0.2431 -0.1906
16171W        W32305   3.952   7.556  12.909  0.0456  0.1200 -0.0956
16172W        W32306   6.751   8.514  13.935  0.0737 -0.0212 -0.0163
16173W        W32307  13.316   5.914   3.184 -0.1785  0.1969 -0.1209
16174W        W32308  16.677  10.813   2.439 -0.1574  0.1357 -0.0339
16175W        W32309   0.725  12.368   4.150  0.1527  0.2250  0.3226
16176W        W32310   8.327  17.871   0.623  0.2283 -0.0884  0.0615
16177W        W32311   4.758  11.702   4.070  0.1306  0.3035  0.2130
16178W        W32312  16.766   2.214   4.640  0.0194  0.0563  0.0095
16179W        W32313  17.684   5.800  14.596 -0.1099  0.0946  0.1123
16180W        W32314   8.684   6.507   4.636  0.0552  0.2870  0.1725
16181W        W32315   2.690   4.361   3.487 -0.1053 -0.0908 -0.1864
16182W        W32316   2.839   7.653  13.653  0.5825  0.0903 -0.3153
16183W        W32317  15.621  15.289  14.075 -0.1151  0.1820 -0.1654
16184W        W32318  10.640   2.370   5.638  0.2010 -0.0571  0.0514
16185W        W32319  14.960  11.614  13.355 -0.0546  0.1492  0.1335
16186W        W32320   4.477  13.514  12.471 -0.2028  0.0939  0.1199
16187W        W32321  11.105  13.124   3.329  0.1300 -0.0179 -0.2640
16188W        W32322  11.378   5.504   4.361  0.0023 -0.1896 -0.1410
16189W        W32323   6.589   2.555   2.212  0.1229 -0.1036 -0.4067
16190W        W32324  11.554  13.887   0.759  0.2292 -0.0048 -0.0976
16191W        W32325   0.320   5.977  15.698 -0.0911  0.2326  0.0209
16192W        W32326   3.295  10.782  14.142  0.3077  0.2491 -0.1419
16193W        W32327   4.679  10.402  12.090 -0.2188 -0.1690  0.0121
16194W        W32328  10.495  15.810   2.213  0.1169  0.0316 -0.1066
16195W        W32329   2.201  14.301  12.789 -0.0213 -0.0416  0.1760
16196W        W32330   5.663  10.773  13.501  0.1658 -0.1368  0.0397
16197W        W32331   6.597  10.672  13.457 -0.0276 -0.0354  0.0368
16198W        W32332   6.972   2.582   6.245  0.0114  0.1328 -0.1306
16199W        W32333  17.229  14.643  12.275 -0.3950 -0.0425  0.3455
16200W        W32334   7.329  10.997   5.574  0.2272  0.1584  0.1332
16201W        W32335  14.392   2.650  13.785  0.1385  0.2330  0.2376
16202W        W32336   5.067   0.818   4.450 -0.1384 -0.1218 -0.0231
16203W        W32337   7.747   0.659   1.377  0.2473  0.0856  0.0168
16204W        W32338   3.014   8.068   1.122  0.3394 -0.0554 -0.3174
16205W        W32339   7.718   3.425  12.235  0.0201 -0.2670  0.1838
16206W        W32340   4.621  12.132   2.408 -0.0308 -0.1375  0.2232
16207W        W32341   4.931   0.693   2.046  0.3051 -0.1375  0.0131
16208W        W32342  11.168   6.703  15.352  0.1693  0.2331 -0.0438
16209W        W32343   0.834  17.673   3.062 -0.0088  0.2077 -0.0790
16210W        W32344  11.227   3.498   3.916 -0.1209 -0.2455  0.1098
16211W        W32345   6.746   7.207  13.469  0.4168 -0.2688 -0.0065
16212W        W32346   9.457   0.728  13.471 -0.2262 -0.2533 -0.1855
16213W        W32347   8.184   7.153   4.867 -0.1549 -0.1346 -0.3020
16214W        W32348  15.976   2.873  13.394  0.0476 -0.0729 -0.0718
16215W        W32349   0.591  14.229  15.200 -0.4421 -0.2428 -0.0407
16216W        W32350   8.926  15.506  12.466 -0.0183 -0.1966  0.1427
16217W        W32351   8.376   9.603   4.898 -0.1297 -0.1302  0.2368
16218W        W32352   8.522   1.908  13.249  0.2631  0.0306 -0.0500
16219W        W32353  16.198  17.957  16.274  0.4547  0.2670  0.1244
16220W        W32354  13.838   6.891   2.765 -0.0413 -0.1004  0.0549
16221W        W32355   3.035  13.335  13.759  0.0774  0.0261 -0.3578
16222W        W32356   8.489  12.743   4.488  0.1399 -0.1982  0.1764
16223W        W32357   2.877  17.000   1.378  0.0798  0.2631 -0.1578
16224W        W32358   9.131  11.322   4.687  0.1111  0.1309  0.0708
16225W        W32359   5.750  15.591   2.195  0.3149  0.0962  0.0585
16226W        W32360  16.285  16.831  13.561  0.2612  0.0959  0.0950
16227W        W32361  15.486   0.987   4.724  0.1549  0.1309  0.4557
16228W        W32362   6.007   1.712  15.241  0.2694 -0.0428 -0.0591
16229W        W32363   0.779   5.134  16.395 -0.2948 -0.4464 -0.2202
16230W        W32364  16.178   3.461  14.891 -0.0557 -0.2496  0.2790
16231W        W32365   9.420   1.299   2.824 -0.1649 -0.0806  0.2654
16232W        W32366   5.977   3.583   2.304  0.0851 -0.2548  0.1502
16233W        W32367  13.481   2.087   2.705 -0.0318  0.3933  0.1619
16234W        W32368  13.888   2.031  11.645  0.1785  0.0390  0.2195
16235W        W32369   8.995   4.315   6.399  0.2278  0.0105 -0.1525
16236W        W32370   1.043  17.267   3.368  0.1675  0.0722  0.0919
16237W        W32371  11.213   7.463  16.092  0.0106  0.2500  0.1732
16238W        W32372  12.058   8.588   0.345  0.2121 -0.0058  0.0535
16239W        W32373  12.054  15.761   5.055  0.2056  0.0019  0.0504
16240W        W32374  16.919   2.059  16.542 -0.0804  0.0763 -0.1430
16241W        W32375  11.855  13.570  13.316  0.1580 -0.1056 -0.0931
16242W        W32376  10.541   6.017   4.058  0.3032 -0.2013 -0.0042
16243W        W32377   2.755   4.158   1.365 -0.0128  0.0643  0.1445
16244W        W32378  11.393  15.690  13.625 -0.3995 -0.3694 -0.2226
16245W        W32379   1.008  15.056   3.377 -0.1420  0.0558  0.1408
16246W        W32380  11.220   1.560   5.591  0.1589 -0.1061  0.1099
16247W        W32381   7.771   5.151   0.024  0.2353 -0.2990  0.1768
16248W        W32382  17.887   2.314  13.325 -0.2502 -0.2318 -0.1705
16249W        W32383  17.939  10.489  14.559  0.0457  0.1949  0.0770
16250W        W32384  12.800  10.025  11.725  0.1663 -0.0908 -0.0155
16251W        W32385  11.804  15.795  13.121 -0.2559  0.2249  0.0571
16252W        W32386   6.161   0.495  14.234 -0.1593 -0.0464 -0.0576
16253W        W32387   8.398   9.860  16.157  0.2052  0.2826  0.2941
16254W        W32388  12.345  16.443  13.088 -0.1572  0.2663 -0.2009
16255W        W32389   9.459   8.934  14.673  0.0515  0.0497 -0.1860
16256W        W32390   8.261  11.248  12.318  0.1982  0.2288  0.1891
16257W        W32391  10.191   4.653   5.111  0.0004 -0.3224  0.0385
16258W        W32392  17.101   6.632  13.738 -0.0786 -0.0064  0.0553
16259W        W32393  13.339   2.553   2.492  0.0271 -0.3310  0.0866
16260W        W32394   9.583   6.826  15.209 -0.1068 -0.1766  0.1290
16261W        W32395  10.941  14.608   4.407  0.1806 -0.3568  0.0214
16262W        W32396   0.258   3.524   3.749  0.0834 -0.0434  0.0284
16263W        W32397   7.418  13.547   1.111 -0.3758 -0.1147 -0.1473
16264W        W32398   1.047   7.118  12.470  0.0773 -0.0052  0.0335
16265W        W32399   9.323  17.904   3.313 -0.1356  0.2949 -0.0069
16266W        W32400  16.224   8.134   0.295 -0.1890 -0.1153  0.1183
16267W        W32401  13.726   4.845  15.186  0.1237 -0.1860  0.1479
16268W        W32402   8.208   6.868  12.518  0.0358 -0.0326 -0.1228
16269W        W32403   2.035   3.440   2.483  0.1212 -0.2464  0.1048
16270W        W32404  17.731   1.939   2.281  0.0809 -0.1671  0.0245
16271W        W32405  13.437  15.895   2.605 -0.1526 -0.1117  0.0666
16272W        W32406   5.743  10.714  12.113 -0.4639 -0.0645  0.4008
16273W        W32407   9.670   9.296   1.929  0.0776 -0.0614  0.2187
16274W        W32408   8.410  11.640   5.047 -0.1262  0.0725 -0.2345
16275W        W32409  11.152  16.858  15.687 -0.1652  0.1339  0.1472
16276W        W32410   8.575  17.502   0.883  0.0530  0.0715  0.1255
16277W        W32411   1.534  11.046  16.176  0.0586  0.0464  0.0387
16278W        W32412   3.573   2.573  12.587  0.2781  0.2120 -0.0518
16279W        W32413  16.649  14.149   3.589 -0.0264 -0.2049 -0.2306
16280W        W32414   8.098  15.543  11.184 -0.0769 -0.3094 -0.2795
16281W        W32415   8.860   0.573  16.204 -0.3370 -0.0879 -0.2207
16282W        W32416  13.191   8.085   0.400 -0.2227 -0.0162  0.1704
16283W        W32417   3.514   6.888   3.817  0.0803 -0.1631 -0.0824
16284W        W32418  10.788  17.322   2.864  0.3146 -0.0635 -0.0520
16285W        W32419   8.174   9.710   3.827 -0.1252  0.0293 -0.0089
16286W        W32420  11.335  13.222   1.837 -0.0526  0.0369  0.2912
16287W        W32421  17.739  16.983   5.766 -0.1770  0.1643  0.2403
16288W        W32422  11.229   0.855   3.296 -0.2178  0.0486 -0.0255
16289W        W32423  10.881   4.599   3.450  0.2011 -0.0385  0.2537
16290W        W32424   6.119   5.189  13.345 -0.0704 -0.0351 -0.0273
16291W        W32425   6.990   5.307   1.385 -0.2750 -0.1234 -0.2015
16292W        W32426   6.835  14.193   1.504 -0.0720 -0.1334  0.2033
16293W        W32427   5.971  10.105  12.896 -0.2188  0.1497 -0.3215
16294W        W32428  11.636   7.719  14.006  0.0613  0.2786  0.1214
16295W        W32429   8.992  13.296   2.570  0.1526  0.1694  0.1988
16296W        W32430  13.829  15.421  13.855 -0.3051  0.1887 -0.1792
16297W        W32431  13.178  13.621   4.606 -0.1333 -0.1712  0.0561
16298W        W32432  14.212  15.019   4.791  0.0250  0.1778 -0.0929
16299W        W32433   5.840  17.172  12.658 -0.0183 -0.0621 -0.5724
16300W        W32434  10.943   5.384  14.293 -0.0685  0.0983  0.0091
16301W        W32435   1.593  15.095   5.064  0.1571 -0.0393 -0.0954
16302W        W32436   1.557   5.015   5.496  0.1134 -0.3059  0.0208
16303W        W32437  12.169   3.806   6.140 -0.1298 -0.0918  0.1821
16304W        W32438  13.203  16.397  11.746  0.0912  0.0274 -0.0585
16305W        W32439  10.746   5.794   2.703  0.4241  0.1287 -0.1707
16306W        W32440  15.485   8.182  12.702  0.1770  0.3122  0.0424
16307W        W32441   1.758  10.237  12.740  0.0310  0.3140  0.1974
16308W        W32442   7.306  13.826   4.868  0.2315 -0.3115 -0.0345
16309W        W32443  16.644   0.974  12.892 -0.1273 -0.2044 -0.1146
16310W        W32444  13.597   2.677  16.115  0.1095  0.0982  0.0819
16311W        W32445  13.598   8.927  12.794  0.1057  0.2017 -0.0390
16312W        W32446   4.882   4.604   0.128  0.4590 -0.1510  0.0238
16313W        W32447   7.371   4.257  13.044 -0.1120 -0.3861  0.1519
16314W        W32448  14.927  13.442  13.497  0.0571  0.1714  0.1028
16315W        W32449  14.763  11.901  12.123 -0.2672  0.0429  0.0787
16316W        W32450  10.607   1.329  13.446  0.1622  0.0685 -0.3105
16317W        W32451   7.697   6.449   0.078 -0.0381 -0.2870  0.2276
16318W        W32452  14.638  17.320  14.922  0.3215  0.0783  0.2289
16319W        W32453   1.413  13.601  15.616 -0.2917 -0.2633 -0.2631
16320W        W32454  10.001   7.504  13.097 -0.0351 -0.3548 -0.1682
16321W        W32455   3.021  15.310   0.787 -0.0134  0.0708 -0.0293
16322W        W32456   3.184  13.829   0.924  0.4050  0.0264 -0.0420
16323W        W32457  13.476  15.772   5.654  0.0666  0.2752 -0.1626
16324W        W32458   6.864  11.220   4.907  0.2795 -0.1670 -0.0687
16325W        W32459   4.946  15.689   0.305  0.1944 -0.0276 -0.0797
16326W        W32460   4.473   5.840   2.192 -0.2298  0.2497  0.0336
16327W        W32461  10.807   8.186   4.321  0.1055 -0.0840 -0.1574
16328W        W32462   5.950   9.561  12.640  0.1270  0.0251 -0.1848
16329W        W32463  11.448  10.026   0.942  0.0407 -0.1533  0.0931
16330W        W32464  16.316   1.998  12.435  0.0927  0.1087  0.0741
16331W        W32465  10.660   0.307  16.579  0.1599  0.1891  0.0498
16332W        W32466  10.586   9.883   3.960 -0.0428  0.1052 -0.2868
16333W        W32467  17.233   3.674  11.698 -0.0528 -0.0828  0.0230
16334W        W32468  13.056   2.453   0.790 -0.0122  0.3330  0.0831
16335W        W32469   4.679   3.309   1.380  0.2649  0.3499 -0.0061
16336W        W32470   3.942   5.501   1.496  0.1943  0.0386 -0.1624
16337W        W32471   0.556  13.386  16.427 -0.0274  0.2422 -0.0134
16338W        W32472  16.641   7.370  13.081  0.0287  0.1378  0.3137
16339W        W32473   4.915  12.270  16.109  0.2720 -0.1084 -0.0955
16340W        W32474  13.016  13.596   5.464 -0.0832  0.1250  0.2058
16341W        W32475  11.409   6.816  13.954 -0.1830 -0.3265 -0.0340
16342W        W32476   2.365  12.815  16.589  0.1305 -0.0940  0.0598
16343W        W32477   5.871   8.038  16.192  0.0319 -0.2304  0.2950
16344W        W32478   9.155   0.209  11.972 -0.2727 -0.1621  0.1122
16345W        W32479   9.353  14.211  11.461  0.2031 -0.2127  0.3105
16346W        W32480   2.778   8.320   1.535  0.1999 -0.2382  0.2016
16347W        W32481  13.361  17.504   0.983  0.1476  0.2228 -0.0987
16348W        W32482  10.232   4.311   2.665 -0.0219  0.3098 -0.2959
16349W        W32483  10.085   4.812   1.173  0.0445 -0.2224  0.1494
16350W        W32484   3.175   0.439  16.261  0.0197 -0.0231  0.0467
16351W        W32485   4.461   3.667   3.008 -0.1838  0.2398  0.1128
16352W        W32486   4.528   8.815   1.398 -0.0703  0.1035 -0.0814
16353W        W32487   0.765   7.968  15.791 -0.0410  0.0258  0.0051
16354W        W32488   1.950  16.875   5.703  0.0751  0.1541 -0.1689
16355W        W32489  11.095   0.626  14.511 -0.0633 -0.3295 -0.3221
16356W        W32490   8.518  16.755  12.193 -0.0739 -0.1840 -0.2283
16357W        W32491   6.600   1.654  12.748  0.1581 -0.0594 -0.0565
16358W        W32492   5.392   1.373  12.164  0.2766  0.0208  0.1021
16359W        W32493   5.599   3.750   5.329 -0.0426  0.0225  0.1346
16360W        W32494   5.711   8.994   2.833 -0.0980 -0.1963 -0.2100
16361W        W32495  15.330   4.835  13.839 -0.2132  0.0407 -0.1270
16362W        W32496  16.744   6.766  14.692  0.0532  0.1455 -0.0694
16363W        W32497   2.473  13.088   3.363  0.2615 -0.1637  0.0445
16364W        W32498   9.768   7.560  16.345  0.0538  0.2184 -0.0462
16365W        W32499  10.089  10.264   1.656  0.0415  0.1116  0.0450
16366W        W32500   2.868   7.915  15.031  0.0724 -0.3737 -0.1437
16367W        W32501  12.575   0.690   2.245  0.2274 -0.0257  0.2646
16368W        W32502  10.265   5.212   2.083 -0.0139 -0.0372 -0.2678
16369W        W32503  10.917  11.513   1.918 -0.0413  0.1022 -0.0389
16370W        W32504   4.168  14.370   3.146 -0.3085  0.1108 -0.1077
16371W        W32505  14.409   9.653   2.462 -0.0935  0.3340 -0.1884
16372W        W32506   0.963   9.820  15.723  0.1691  0.1222 -0.1429
16373W        W32507   4.439   4.335  15.130 -0.1591 -0.1909 -0.4152
16374W        W32508  11.166  16.472  16.584 -0.1279  0.2207  0.0462
16375W        W32509   5.948  11.242   0.391 -0.0498  0.1990  0.2402
16376W        W32510   1.709  11.938   0.038 -0.3870  0.0307 -0.0264
16377W        W32511  13.562  17.208  14.281  0.0655 -0.0299 -0.2830
16378W        W32512   9.083  11.914  16.334  0.2070 -0.2431  0.2059
16379W        W32513   8.815   1.470  12.403  0.0450 -0.0247  0.1969
16380W        W32514  12.798   7.040  15.015  0.0480  0.2431 -0.0806
16381W        W32515   6.233  10.236   1.504 -0.1714 -0.0792  0.1805
16382W        W32516   3.997  16.072   4.717  0.3873 -0.1836 -0.1848
16383W        W32517  12.664   9.900  15.640  0.1436 -0.3675 -0.0443
16384W        W32518   1.796  10.936   0.670  0.2610  0.2003  0.2224
16385W        W32519   0.801   0.884   5.427 -0.2242 -0.0974  0.3000
16386W        W32520   4.914  16.660   4.599 -0.1609  0.2010 -0.4021
16387W        W32521   5.369   3.967   1.897  0.1973 -0.0724  0.2167
16388W        W32522  14.760   5.300  14.511 -0.0371 -0.0298 -0.1659
16389W        W32523   1.145   6.829   0.142  0.0596  0.0194 -0.0696
16390W        W32524  15.681   8.358   3.535  0.0010  0.1630 -0.1362
16391W        W32525   9.914  17.333  15.780  0.2086  0.2774 -0.1678
16392W        W32526   5.796  17.488  13.395 -0.0985  0.0402 -0.1499
16393W        W32527  15.037   1.171   1.828  0.1043  0.0671 -0.0471
16394W        W32528  17.387  15.674   5.263  0.0529  0.0922 -0.1083
16395W        W32529   2.040  10.466   1.005 -0.2642  0.1629 -0.3112
16396W        W32530   9.699   2.459   3.376  0.0389 -0.3720  0.0819
16397W        W32531  16.924   8.399   0.020  0.2443 -0.1030 -0.0181
16398W        W32532   3.755   1.057  14.129 -0.2282  0.2306 -0.0546
16399W        W32533   2.837  16.321   2.020  0.0214  0.1623  0.0085
16400W        W32534  11.027  17.526  11.980 -0.3969 -0.0119 -0.0509
16401W        W32535  10.566   9.391  16.712  0.0209 -0.2174 -0.1304
16402W        W32536   7.150  12.067  11.781  0.2553 -0.2513  0.1650
16403W        W32537  16.678  10.530  15.077 -0.1857  0.4116 -0.0903
16404W        W32538   5.546   6.896  12.681 -0.1297  0.1721 -0.0565
16405W        W32539  11.022  12.691  12.575  0.1054 -0.0684  0.0792
16406W        W32540  11.107   1.956  14.663  0.2490 -0.1020 -0.0023
16407W        W32541  13.611   4.948   3.088 -0.0715 -0.0718  0.0337
16408W        W32542  10.503   3.025   5.315  0.1528  0.0362  0.2449
16409W        W32543   4.185   8.268   3.601 -0.2602 -0.2780  0.0780
16410W        W32544   6.095  15.175  10.337 -0.2013 -0.2577  0.1160
16411W        W32545   5.122   6.289   3.255 -0.0723  0.2794  0.0562
16412W        W32546   2.333  17.383   2.497 -0.1382  0.0290  0.2079
16413W        W32547  12.847   3.230   3.369 -0.0708 -0.3571  0.0270
16414W        W32548   9.398   1.832  15.541 -0.2103 -0.1904 -0.0304
16415W        W32549   1.146   5.899   4.094  0.1263 -0.0094  0.1061
16416W        W32550   4.766  12.054   3.691  0.2002  0.0659  0.2334
16417W        W32551  16.335  16.899   3.777 -0.2134 -0.0961 -0.0928
16418W        W32552   8.839   2.676   6.333  0.2079 -0.1505  0.0328
16419W        W32553   3.912  14.126  15.038  0.0810 -0.0820  0.2511
16420W        W32554  10.262   6.732  15.268  0.0114 -0.1420  0.3014
16421W        W32555  10.734   9.009   2.959 -0.3765  0.0523  0.0371
16422W        W32556   1.654  16.814   6.078  0.2594  0.1734 -0.1140
16423W        W32557   9.528  11.689  16.021  0.0658  0.3270 -0.0280
16424W        W32558   1.182  15.166  11.891 -0.1515  0.0500  0.1702
16425W        W32559   0.384   0.729  13.622 -0.1374 -0.1851 -0.0693
16426W        W32560   9.882  13.614   5.329 -0.2699  0.1088 -0.0581
16427W        W32561  10.383   2.741  13.470 -0.0576  0.2648 -0.0136
16428W        W32562   3.305   4.544   1.690 -0.1127 -0.0054  0.1556
16429W        W32563   0.164   2.255  12.302  0.2877 -0.2231 -0.0988
16430W        W32564   4.506   8.284  14.755  0.0152 -0.0314 -0.0809
16431W        W32565  11.619   5.162  13.414  0.0954  0.0203 -0.1851
16432W        W32566  16.367   0.359   2.751 -0.0061 -0.0589  0.1770
16433W        W32567  14.720  13.925  12.668 -0.1163  0.0637  0.0046
16434W        W32568  16.091  15.024  14.186  0.1970  0.0203 -0.1930
16435W        W32569  12.475   4.127   2.556  0.0937 -0.2010 -0.0790
16436W        W32570   2.609  12.375   5.661 -0.5790 -0.0208  0.0023
16437W        W32571   7.765  16.037  11.273  0.1409  0.1069 -0.3597
16438W        W32572  14.725  10.913   0.057 -0.2821 -0.0051  0.1120
16439W        W32573  17.658   1.502   5.402 -0.3328 -0.1279 -0.0509
16440W        W32574   3.202   6.006   3.952  0.1115  0.0379 -0.1541
16441W        W32575  11.848   2.181   0.598  0.0770  0.2327 -0.2991
16442W        W32576   4.262   1.878   1.674  0.1569 -0.0510  0.2178
16443W        W32577   6.780   3.723   1.398  0.0095  0.0971 -0.1956
16444W        W32578  11.858  11.035   5.167 -0.0162  0.1370 -0.1941
16445W        W32579   7.933   6.884   0.080 -0.0351  0.0600 -0.1089
16446W        W32580   7.596  13.162   5.412  0.2780  0.0270 -0.3125
16447W        W32581  16.878   7.143  14.962  0.2563 -0.1076 -0.1806
16448W        W32582   5.086  12.369   5.074 -0.0791  0.1520  0.1670
16449W        W32583  17.761  16.646  15.228 -0.0707  0.1937 -0.1376
16450W        W32584   7.368  13.621   1.781  0.1449 -0.1368  0.0064
16451W        W32585  15.339  16.602   3.438  0.1487 -0.1691  0.0785
16452W        W32586   7.740   2.856   5.670 -0.0215  0.1593 -0.0545
16453W        W32587   5.559   6.114   4.650  0.0381  0.2841  0.1906
16454W        W32588  11.300   2.017   2.718  0.2050 -0.1526  0.1919
16455W        W32589   4.049   2.311   0.343 -0.0772  0.3483  0.2832
16456W        W32590   0.586   0.082  14.860 -0.0528  0.0289  0.2126
16457W        W32591   7.184   6.333  13.187  0.0524  0.0610  0.0870
16458W        W32592   0.192  15.746  15.010 -0.0915 -0.2863  0.0125
16459W        W32593  14.866   3.587   1.338  0.0633  0.2976 -0.3321
16460W        W32594  10.917   6.471   6.039 -0.0344  0.1632  0.0302
16461W        W32595   0.579   9.879  16.102  0.0510 -0.2126 -0.0940
16462W        W32596   2.628   0.191   2.297  0.3153 -0.1589  0.0825
16463W        W32597   1.820  10.179  12.209 -0.0517  0.1251 -0.2835
16464W        W32598  16.414  10.108   4.225 -0.3073 -0.1811 -0.3522
16465W        W32599   9.401  14.827  14.539  0.0126  0.0157 -0.2185
16466W        W32600   7.988   8.946  13.904 -0.0893  0.1255 -0.0661
16467W        W32601   1.073  14.942  14.616  0.0902 -0.0148 -0.0094
16468W        W32602   2.365  12.177   4.435  0.0487 -0.1533 -0.0217
16469W        W32603  15.029   4.144  16.338  0.2826 -0.4632  0.0631
16470W        W32604  15.916  14.397   0.074  0.2753  0.1537 -0.0465
16471W        W32605   8.342   2.794   2.540 -0.1008 -0.1880 -0.2199
16472W        W32606   6.696  11.334  12.309 -0.1738  0.3072 -0.2421
16473W        W32607   9.394  10.629   3.004 -0.2664  0.0307 -0.1244
16474W        W32608   0.485   6.417  15.962 -0.1812  0.3357 -0.1320
16475W        W32609   2.404   0.783   0.608  0.0014 -0.1637  0.2883
16476W        W32610   7.362   3.641   5.265 -0.0738  0.2005  0.0312
16477W        W32611  17.507  11.713   0.078 -0.3010  0.0679  0.1583
16478W        W32612   4.154   3.146   0.876  0.1053 -0.2342 -0.0151
16479W        W32613   0.798  14.403   2.607 -0.1312 -0.2381 -0.0350
16480W        W32614   7.024   4.582   4.057 -0.1719 -0.2429  0.1561
16481W        W32615   2.047  16.494  14.849  0.3284  0.1248  0.1466
16482W        W32616  16.042   6.775  13.520  0.0875  0.1418  0.1196
16483W        W32617  10.628  14.270   1.547 -0.0479 -0.3306  0.2131
16484W        W32618   0.350  11.776   2.898  0.0247  0.0702  0.0117
16485W        W32619  13.727  14.094  11.676 -0.0019  0.2131  0.3158
16486W        W32620   5.243   5.276   4.121  0.1282  0.1964  0.3075
16487W        W32621  11.849  14.001   4.721  0.0774 -0.3176  0.1090
16488W        W32622   8.402   8.681   4.733  0.1766  0.1908 -0.2404
16489W        W32623   1.354  16.660   5.701 -0.0486  0.0396 -0.3743
16490W        W32624  13.282  12.881   1.716 -0.1703  0.1699  0.4466
16491W        W32625  17.469   4.343  14.903  0.0489  0.2390  0.0836
16492W        W32626  17.728  14.474   2.650  0.1742  0.1773  0.3907
16493W        W32627  16.154  14.619   3.255 -0.1638 -0.0753 -0.0039
16494W        W32628  10.111  11.174   5.141 -0.0795 -0.0476 -0.2007
16495W        W32629  11.947  15.553   1.410 -0.0385  0.0107 -0.1396
16496W        W32630  13.144  15.984  12.658  0.2610 -0.1084 -0.0770
16497W        W32631  14.353  14.491  12.386 -0.1869  0.0524 -0.0724
16498W        W32632   3.149  10.005   4.077  0.0321 -0.1045  0.0449
16499W        W32633   1.819   6.092   0.805 -0.0439  0.0675  0.0769
16500W        W32634  11.689   0.080   3.749 -0.1643  0.0737  0.0013
16501W        W32635   6.405  12.877   3.718 -0.2984 -0.1727  0.2150
16502W        W32636  15.192   2.345   0.180 -0.0862 -0.1205 -0.3254
16503W        W32637   1.776   5.423   5.898 -0.3893 -0.0780  0.4214
16504W        W32638   4.585   4.613  11.148 -0.0469  0.3178 -0.2518
16505W        W32639   3.325   0.947   0.904 -0.1870  0.0405  0.0980
16506W        W32640  12.455   5.358   2.175  0.0503 -0.0852 -0.0093
16507W        W32641   9.710  13.045  14.936 -0.5416 -0.0754 -0.0597
16508W        W32642  14.031   6.482   4.771 -0.1119  0.0858 -0.0334
16509W        W32643  15.748   3.499   5.040 -0.0233  0.0194  0.2645
16510W        W32644   8.047   8.284   4.760 -0.0433 -0.1344  0.1616
16511W        W32645  15.347  13.383   0.939 -0.0592  0.1433  0.3534
16512W        W32646   1.487   1.284  14.927  0.0870 -0.0234 -0.1397
16513W        W32647   2.504  12.313  14.662 -0.3185 -0.1380  0.0496
16514W        W32648   3.815  17.017   0.824  0.1240 -0.0629 -0.0058
16515W        W32649   8.011   7.201   1.257  0.0957  0.1654 -0.0799
16516W        W32650  17.316  16.509   5.106  0.3148  0.1000  0.2421
16517W        W32651   3.306   5.855   2.616 -0.2371  0.0521  0.1625
16518W        W32652   8.449   9.999   1.665  0.0909  0.3112 -0.3850
16519W        W32653   3.292   8.814   2.240  0.0422 -0.0414  0.1289
16520W        W32654   8.142  10.657  11.865  0.0224  0.0620  0.0024
16521W        W32655   1.123   7.522   4.574  0.2149 -0.0087  0.0390
16522W        W32656  10.697  17.079  11.167  0.2376 -0.0741 -0.2160
16523W        W32657   4.776  16.513   5.176 -0.2710  0.1887  0.1369
16524W        W32658   7.684  10.360   1.922 -0.1877 -0.1055 -0.1267
16525W        W32659  12.188  10.856   3.012 -0.0137  0.1439 -0.0998
16526W        W32660   0.370   2.821   4.471  0.2567  0.2108 -0.1756
16527W        W32661  15.774   1.581   2.208 -0.2721  0.1067 -0.0129
16528W        W32662  13.365  15.630   4.226  0.5654  0.0680 -0.1131
16529W        W32663  14.743  13.654   0.274  0.0269  0.0123  0.0168
16530W        W32664  11.411   3.113   5.613 -0.0655  0.1390  0.0647
16531W        W32665  16.930   1.870   3.663  0.1535 -0.1048  0.0958
16532W        W32666  10.103  16.638  14.735 -0.1706 -0.2260 -0.1037
16533W        W32667  14.752  15.001   2.619  0.0324 -0.0860  0.0810
16534W        W32668   3.852   0.622  15.446 -0.1582  0.1345  0.0284
16535W        W32669   1.354  15.909   3.625  0.0252 -0.2018 -0.2741
16536W        W32670  13.659   9.397  12.091 -0.0181 -0.1055 -0.1733
16537W        W32671   1.127   7.702   1.565  0.2640  0.2219 -0.5522
16538W        W32672   7.414  15.328  15.819  0.1632 -0.0548  0.1497
16539W        W32673  13.767  14.260  16.456 -0.1611  0.1668  0.0328
16540W        W32674   6.563   3.890   3.669  0.0745  0.4136  0.1795
16541W        W32675  16.937   9.749   4.338 -0.1633  0.2585  0.0069
16542W        W32676  17.119  14.281   0.725  0.0228 -0.2689 -0.1558
16543W        W32677  14.681   2.897   2.309 -0.0509 -0.1649  0.1672
16544W        W32678   6.282   7.544  16.058  0.1911 -0.1075 -0.0057
16545W        W32679   6.629   9.077  16.150  0.2761 -0.5618  0.0788
16546W        W32680  16.337   9.858   0.041  0.0301  0.3388  0.0586
16547W        W32681   2.042   6.466   1.184 -0.0391 -0.3616 -0.4309
16548W        W32682  16.712   1.085   4.641 -0.3183 -0.0585 -0.1032
16549W        W32683   5.354  11.426  11.834 -0.4660 -0.4404  0.0396
16550W        W32684   2.954   6.252  12.742  0.1721 -0.0751 -0.2084
16551W        W32685  12.502  13.404  16.227  0.1336 -0.3346 -0.1795
16552W        W32686  15.782   1.654   0.413  0.2084 -0.2163 -0.4091
16553W        W32687   8.751   0.019   0.394  0.0981  0.1785  0.0284
16554W        W32688   3.408  10.395   0.247  0.4313  0.1799 -0.0262
16555W        W32689   7.037   7.215   2.512 -0.2665 -0.0845 -0.2315
16556W        W32690   4.637  11.681   0.585  0.2302  0.0573 -0.0230
16557W        W32691  13.791  10.400   5.128 -0.1681  0.2246  0.1578
16558W        W32692   0.627  16.866   2.261  0.1321  0.0465  0.3468
16559W        W32693  16.687   8.796   1.894  0.0545 -0.0800  0.1288
16560W        W32694   4.667  12.923   1.721 -0.1093 -0.0795  0.2366
16561W        W32695   6.032  14.324  11.904  0.1854  0.1217 -0.0039
16562W        W32696   2.236  13.388  15.172  0.0046  0.0986 -0.0817
16563W        W32697   0.435  12.624   5.998 -0.2009 -0.2144  0.2163
16564W        W32698   8.934   9.416   5.324  0.0132  0.0408  0.2513
16565W        W32699   3.533   4.247  16.181  0.0392  0.0393 -0.0816
16566W        W32700  11.457   2.644   5.539  0.1942  0.3465  0.0622
16567W        W32701   9.782   4.918   5.256 -0.3928 -0.2255  0.2625
16568W        W32702  14.949   4.915   4.582 -0.1268  0.0176 -0.0558
16569W        W32703   0.033   2.121   1.344 -0.0099 -0.1143 -0.2267
16570W        W32704   1.947  16.744   1.245 -0.3439  0.2467 -0.3493
16571W        W32705  15.192   4.092   1.626  0.2098 -0.0382 -0.2206
16572W        W32706  17.636  11.411  16.417  0.0182  0.2302 -0.1345
16573W        W32707   4.688   0.730   4.143 -0.1800  0.5455  0.0092
16574W        W32708  10.095   0.964   4.447 -0.1973 -0.1674  0.1629
16575W        W32709  11.760   4.045  11.921 -0.2295  0.1500 -0.3546
16576W        W32710   9.434  12.809   4.676 -0.1758 -0.0853 -0.2704
16577W        W32711   8.995   5.057   3.385 -0.1051 -0.1716 -0.1072
16578W        W32712   4.219   3.859   4.686 -0.2937  0.3927 -0.2149
16579W        W32713   7.000  17.348   1.097  0.2905  0.0113 -0.1897
16580W        W32714   6.171  13.164   5.113 -0.3966 -0.2581  0.0954
16581W        W32715  15.957  11.775  15.842  0.0365  0.2518  0.0650
16582W        W32716   7.807  15.083  16.669 -0.1445  0.2140  0.0866
16583W        W32717   9.355  14.354   0.887 -0.3211  0.1357  0.1642
16584W        W32718   0.974  11.024   3.898 -0.3285  0.1011  0.1733
16585W        W32719   1.576   6.734  11.984 -0.1176 -0.0622  0.1588
16586W        W32720   6.222   1.945   4.934  0.0970  0.1150 -0.0123
16587W        W32721  11.973   3.878  13.951 -0.0973 -0.1866  0.2916
16588W        W32722  11.283  10.409  14.274  0.0956  0.0777 -0.0557
16589W        W32723  15.006  17.432   5.172 -0.1877  0.1830  0.1887
16590W        W32724   9.371  10.118  16.701 -0.3168 -0.1285  0.1131
16591W        W32725   5.653  12.249   3.650 -0.1397  0.0188 -0.2274
16592W        W32726  15.793  17.716  15.370  0.1861  0.4986 -0.0708
16593W        W32727   6.822   3.321   4.805 -0.1445 -0.2848 -0.0825
16594W        W32728   7.642   0.024  15.385  0.2618 -0.0121  0.0465
16595W        W32729  11.960   0.913   4.732 -0.0129 -0.1943 -0.2706
16596W        W32730   8.213  12.317   5.768 -0.2995  0.0284 -0.1083
16597W        W32731  13.757   9.939   2.156 -0.0519  0.2347  0.2738
16598W        W32732   9.741   2.436   3.936 -0.3718 -0.2171 -0.0692
16599W        W32733   0.269   1.854   2.317 -0.1306 -0.0651  0.0343
16600W        W32734   0.536   5.891   2.268  0.0459 -0.2343 -0.1007
16601W        W32735   5.656   9.905   5.914  0.2880  0.0300  0.0500
16602W        W32736   2.623   2.486   0.124  0.1428  0.1112  0.1456
16603W        W32737   6.870  13.556  13.220 -0.0130 -0.0453 -0.0568
16604W        W32738   0.808   9.779   0.595 -0.0845  0.0387  0.1943
16605W        W32739   3.440   0.962  14.502  0.0562 -0.1564 -0.0331
16606W        W32740   1.076   8.401  13.528 -0.1753 -0.2885 -0.0968
16607W        W32741   7.830  13.015  11.815 -0.2294  0.1682 -0.2654
16608W        W32742   6.331  17.194  11.337  0.2492  0.1711  0.1747
16609W        W32743   9.101   5.247   2.096 -0.0565 -0.0840  0.2145
16610W        W32744   8.456   7.647   1.985  0.2692 -0.0094 -0.1739
16611W        W32745   8.842   9.088  13.427  0.0889  0.0485  0.0299
16612W        W32746   9.862  10.219  14.339 -0.0445  0.3945  0.0736
16613W        W32747   9.744   7.318  14.853  0.1301 -0.1535 -0.0356
16614W        W32748   8.197  15.390   3.055 -0.1049 -0.1554  0.3975
16615W        W32749   5.554  14.370  16.483  0.2720 -0.1582 -0.0700
16616W        W32750   2.075   7.646   0.424 -0.1320 -0.0255 -0.0339
16617W        W32751   0.368   8.241   2.449 -0.2729 -0.0293 -0.1036
16618W        W32752   3.703  14.337   4.742  0.1925  0.0506  0.0382
16619W        W32753  15.181   4.125   3.130  0.2446  0.0465 -0.0643
16620W        W32754   0.363  10.333   4.426 -0.0520 -0.2271  0.2424
16621W        W32755  15.159   7.126  11.755  0.1252 -0.3214  0.0513
16622W        W32756   5.307   9.195  12.967 -0.0369  0.0004  0.1247
16623W        W32757   9.553   4.884  13.729 -0.1602  0.0598 -0.0271
16624W        W32758   2.041   7.050   4.997  0.1775 -0.2946 -0.1277
16625W        W32759   7.618  13.701   2.281 -0.1220  0.2179  0.0918
16626W        W32760   2.792  16.845  11.111  0.3110  0.3125  0.0722
16627W        W32761   1.709  10.294  14.609  0.1267 -0.2830 -0.0423
16628W        W32762  10.770   7.793   3.880  0.0715 -0.2113  0.0477
16629W        W32763  12.210  14.190   2.682  0.1988  0.0958  0.3114
16630W        W32764  17.740  17.305   4.673  0.2799 -0.0611  0.2973
16631W        W32765  11.564   9.232  13.351  0.1872 -0.1453 -0.3550
16632W        W32766   2.676  12.686   2.464  0.3028 -0.2990  0.1589
16633W        W32767   2.058   9.495  13.796 -0.3482  0.0199  0.0153
16634W        W32768   0.698   8.519   3.260 -0.0179 -0.1218 -0.2673
16635W        W32769  14.781  12.052   1.433 -0.0917  0.0391  0.0717
16636W        W32770   9.365  13.923  12.093 -0.1022 -0.1361  0.0353
16637W        W32771  14.991   1.920   0.039  0.2876  0.1621  0.0384
16638W        W32772   6.339  14.640  11.297 -0.1161 -0.3151 -0.0793
16639W        W32773  11.914  13.060   0.393  0.1283 -0.2010  0.2584
16640W        W32774   3.296  10.064  12.818 -0.0550  0.1028  0.1366
16641W        W32775  10.829   6.473  12.389  0.0171 -0.0693  0.3043
16642W        W32776   5.611   9.503  16.695  0.1785 -0.2200 -0.0891
16643W        W32777   2.735  11.955   4.946 -0.1757  0.1597  0.2220
16644W        W32778   2.182   4.791   0.524 -0.4211 -0.0286  0.3875
16645W        W32779  16.093  11.433   0.810 -0.4553 -0.3002  0.0320
16646W        W32780   8.970   0.802  13.658  0.0408  0.2356 -0.3103
16647W        W32781  16.997   3.525   2.294 -0.0798 -0.2509  0.1116
16648W        W32782   6.799   8.363  15.686 -0.0445 -0.3211  0.1763
16649W        W32783   3.588  11.421  12.583 -0.0979  0.1986  0.1172
16650W        W32784   8.560  15.154  10.782  0.1797 -0.2220  0.0569
16651W        W32785   2.826   1.486  15.941 -0.2061 -0.0767  0.1974
16652W        W32786   4.094   4.959  12.498 -0.0241  0.1913  0.0087
16653W        W32787  13.369  13.289  11.802 -0.0603 -0.2006 -0.2060
16654W        W32788   9.710  16.288   5.694  0.0307  0.0574  0.0058
16655W        W32789  15.800   6.696  14.575  0.1694  0.1620  0.0702
16656W        W32790   4.418   9.469   5.051 -0.0379 -0.1979 -0.3741
16657W        W32791   3.964   6.061   3.876 -0.1193 -0.1362 -0.0491
16658W        W32792   9.916   0.623  13.240 -0.1321 -0.0686  0.2323
16659W        W32793  12.194   0.060   5.750  0.1213 -0.3301  0.1897
16660W        W32794  10.879  11.015  13.891 -0.0163 -0.2088 -0.1000
16661W        W32795   0.704  17.620  15.101  0.2614 -0.0614  0.1290
16662W        W32796   2.131   5.794   5.070  0.1751  0.0665  0.1224
16663W        W32797  10.823  15.932  16.561  0.2409 -0.0435  0.0578
16664W        W32798   9.477  12.576  14.908 -0.0248 -0.1634  0.0896
16665W        W32799  14.748   5.299  11.374  0.0638  0.1173 -0.0915
16666W        W32800   4.500  12.625   0.974  0.1078  0.0707 -0.2100
16667W        W32801   5.416   6.398   4.261 -0.1857 -0.0155  0.2929
16668W        W32802  11.578   1.086  16.662 -0.1027 -0.0154 -0.0791
16669W        W32803   8.278  13.111  12.862 -0.1263 -0.1053 -0.1296
16670W        W32804  10.558  16.146   5.995  0.0485 -0.1329 -0.0869
16671W        W32805  13.046   1.483  13.221  0.1098 -0.1400 -0.1129
16672W        W32806  12.876  12.509  12.440 -0.3603 -0.2915  0.2609
16673W        W32807   1.251  17.066  13.460 -0.0834 -0.1041  0.0344
16674W        W32808   5.633   3.901  12.326  0.2435 -0.1541 -0.1272
16675W        W32809   5.670   7.155  13.575  0.0823  0.3893  0.3715
16676W        W32810  16.952   4.378  13.028 -0.2422  0.2758 -0.1693
16677W        W32811  16.247   6.773  14.364 -0.0640  0.0693  0.2003
16678W        W32812  11.106  12.370   2.809  0.3109 -0.1069  0.1672
16679W        W32813   0.012  13.414  12.811 -0.0344  0.4983  0.1452
16680W        W32814   4.013  12.971   1.637 -0.3161  0.3898  0.2334
16681W        W32815   7.044  12.755  15.752 -0.1181 -0.0524  0.0386
16682W        W32816   4.296  17.398   4.888 -0.0246  0.0912  0.1974
16683W        W32817   1.166   8.997  13.782  0.2653 -0.0760 -0.2427
16684W        W32818  13.179   7.705  11.244  0.0600  0.1617 -0.1037
16685W        W32819  14.187   4.395  14.485 -0.3161  0.1198 -0.1175
16686W        W32820  13.478   4.560  14.318  0.1761  0.4386 -0.1583
16687W        W32821  14.094   9.627  15.773 -0.0321  0.2707 -0.1635
16688W        W32822  11.409   9.366   5.222  0.0598  0.2096  0.0666
16689W        W32823   9.633  17.007   2.364 -0.3484 -0.1699  0.1717
16690W        W32824  12.269   4.191  16.453 -0.1316 -0.1343 -0.0838
16691W        W32825   0.266   8.954   1.657 -0.1035 -0.1340 -0.0230
16692W        W32826  17.418  17.127  15.266 -0.1053 -0.0351 -0.3497
16693W        W32827   3.648   2.561   2.787  0.1599  0.1794  0.2747
16694W        W32828   5.711   4.932  13.151  0.1072  0.0421 -0.1741
16695W        W32829   9.122   5.342   1.117  0.0792 -0.0130  0.1225
16696W        W32830   3.227   0.651   3.142  0.3155  0.0106  0.3172
16697W        W32831   7.658   0.373  14.459  0.1029  0.2051  0.0158
16698W        W32832  17.540   2.220  15.750  0.1230  0.0863 -0.2408
16699W        W32833   5.485  12.715   3.469  0.2853 -0.0614  0.0958
16700W        W32834   2.388  13.843   1.245 -0.0451 -0.1255 -0.1812
16701W        W32835  14.984  12.261  11.782 -0.1846 -0.0357 -0.2154
16702W        W32836  15.754  15.997   1.534 -0.0443  0.1987 -0.2629
16703W        W32837   9.553  13.480   2.570 -0.3176  0.1986  0.0773
16704W        W32838  17.545  17.621  13.116  0.2596 -0.0927 -0.2878
16705W        W32839  10.635  12.969  12.843  0.0875  0.1363 -0.0604
16706W        W32840  17.506   3.423   0.900  0.0466  0.0838  0.1668
16707W        W32841   4.857  15.718   5.672 -0.0594  0.0601  0.1590
16708W        W32842   1.340   8.837   3.200  0.2899  0.0396 -0.2455
16709W        W32843  15.481  16.865  12.867  0.0697 -0.1462  0.4071
16710W        W32844   6.027  12.061  12.257  0.1804 -0.0462 -0.2859
16711W        W32845   7.894  10.738  11.393 -0.3478 -0.0030 -0.3138
16712W        W32846   2.598   1.536  13.035 -0.0273 -0.1867 -0.0820
16713W        W32847  14.998   7.218   4.297  0.0239 -0.1342 -0.3836
16714W        W32848   7.919  16.109   1.762  0.2955  0.1509  0.1716
16715W        W32849  15.773   8.263  15.575 -0.2236  0.0065  0.2376
16716W        W32850   8.771  16.669  11.162  0.3590  0.3389  0.5163
16717W        W32851  11.464  17.676  15.031 -0.4130  0.0377 -0.0618
16718W        W32852  15.067   8.911   4.206 -0.1536 -0.1395 -0.2454
16719W        W32853   7.466   8.229  11.166  0.3728  0.0635 -0.1096
16720W        W32854  14.254   5.685   5.082 -0.0588 -0.1362 -0.2598
16721W        W32855  10.609   6.117   0.421 -0.2403 -0.1509 -0.0028
16722W        W32856  13.471  14.223  13.659 -0.0507 -0.1264 -0.0265
16723W        W32857   5.331  17.860  16.648  0.0730 -0.1523 -0.1605
16724W        W32858   4.731   5.821   4.471  0.0145  0.0740 -0.0149
16725W        W32859  11.196  17.703  11.016 -0.1896 -0.2664 -0.0999
16726W        W32860  17.136  11.780   3.139  0.1885  0.1768  0.0615
16727W        W32861   2.045   0.648   3.664 -0.0342 -0.2577  0.1732
16728W        W32862  16.318   2.711  14.364  0.0424 -0.4671 -0.4613
16729W        W32863  14.055   6.587  14.340  0.1985  0.1114 -0.1609
16730W        W32864   5.565  12.669   1.791 -0.2215 -0.0197 -0.1006
16731W        W32865  15.841   1.813   3.165  0.2283  0.0940  0.2589
16732W        W32866  16.168   2.964  11.343  0.0056  0.1676  0.0392
16733W        W32867  14.243  12.684   5.600 -0.0282 -0.3754  0.5880
16734W        W32868   3.390  14.877  15.102  0.2560 -0.1864  0.0357
16735W        W32869  13.949  12.089  14.905 -0.1749 -0.2179 -0.1938
16736W        W32870   8.550  12.643   1.321 -0.0082  0.1164 -0.1421
16737W        W32871   4.031  16.155   5.425 -0.0541  0.1398 -0.4282
16738W        W32872  10.731   3.347   3.708  0.0348 -0.0742  0.0456
16739W        W32873   0.012  15.775   0.590  0.1993 -0.1072 -0.0352
16740W        W32874   6.995   1.615   0.978  0.0629  0.1542  0.0703
16741W        W32875  13.385  15.227  16.122  0.0285  0.1312 -0.1356
16742W        W32876   3.093   7.101  12.829  0.2020  0.0029 -0.0207
16743W        W32877   7.942  17.095   1.416 -0.3168  0.0342  0.1304
16744W        W32878  14.250  17.212   3.122  0.0644 -0.1172 -0.1150
16745W        W32879   2.172   6.642  15.379  0.1146 -0.0372 -0.1161
16746W        W32880  12.300   3.271   1.369  0.2465  0.0507  0.0228
16747W        W32881  15.119  14.698  13.257  0.1458 -0.3474 -0.0715
16748W        W32882  14.162  10.046  12.980 -0.0227  0.2027 -0.1520
16749W        W32883   6.818   2.760  16.108  0.1512  0.0490 -0.2520
16750W        W32884  13.773  16.264   2.256 -0.2050 -0.0610  0.1976
16751W        W32885   9.131  11.236  11.804 -0.0001 -0.2114 -0.0873
16752W        W32886  13.884   9.468   4.256 -0.0118  0.0319  0.1529
16753W        W32887   7.238   5.796   3.934 -0.2381 -0.1399 -0.1425
16754W        W32888   0.351  17.198   4.453 -0.2891  0.0177 -0.0045
16755W        W32889  15.588   8.027   3.956 -0.1389  0.0251  0.1520
16756W        W32890   8.539   2.276   0.821 -0.1016 -0.0328 -0.2626
16757W        W32891   3.002  15.200  12.329 -0.0787  0.1734  0.1006
16758W        W32892   8.687   7.306   5.335 -0.3444 -0.1861 -0.0816
16759W        W32893   5.097   6.912   3.820  0.0350 -0.1679  0.0742
16760W        W32894   5.892   0.356  12.221 -0.0735  0.2566 -0.4413
16761W        W32895  12.294   4.175   3.962  0.0508  0.0473 -0.0629
16762W        W32896  13.612   0.433   1.420  0.2924 -0.4337 -0.0149
16763W        W32897  14.111  15.177  14.922  0.1909 -0.0070 -0.0717
16764W        W32898  13.697  11.291   2.014  0.0732  0.1095  0.1542
16765W        W32899   5.415  16.076  16.595  0.1854 -0.1364  0.4417
16766W        W32900  15.487  15.269   5.095  0.2907 -0.0438 -0.0117
16767W        W32901  11.884   4.917  12.233  0.1507  0.3206 -0.2452
16768W        W32902   8.780  16.047   2.336  0.1355  0.0436 -0.1421
16769W        W32903  10.872  15.055  15.516  0.0879  0.1912 -0.0293
16770W        W32904   9.490   1.677  11.691  0.1105 -0.2006  0.2033
16771W        W32905   3.770  14.377   1.986 -0.1629  0.0974 -0.2304
16772W        W32906   5.058  13.003   3.632  0.0344  0.1472  0.1509
16773W        W32907   7.729  11.995  16.385  0.3229 -0.0404  0.0692
16774W        W32908  12.533   5.103   1.724  0.0799  0.2093  0.2315
16775W        W32909   4.402   5.161   3.894  0.3082 -0.0596  0.0360
16776W        W32910   0.384   5.904   1.787 -0.1474 -0.0386  0.1017
16777W        W32911   8.740   7.190   3.136  0.0246  0.0204  0.0448
16778W        W32912   7.493  10.671  13.400  0.0581 -0.0673  0.2181
16779W        W32913   7.071   0.071  16.141  0.1081  0.2481  0.0462
16780W        W32914  10.548   8.759   2.633  0.1529  0.2183  0.1236
16781W        W32915   3.604  10.828  16.712 -0.0491  0.3095  0.0771
16782W        W32916  12.546  15.493   1.567  0.0411  0.0656  0.0584
16783W        W32917  14.229  16.569   1.453 -0.1649  0.2590  0.1152
16784W        W32918   5.400   8.634  14.326  0.1678 -0.1631  0.0763
16785W        W32919   8.694   9.675  12.604 -0.3139 -0.0655 -0.0757
16786W        W32920   6.322   6.072  16.457  0.1790 -0.1234  0.2360
16787W        W32921   2.490  13.279  14.004  0.0514  0.0359  0.0799
16788W        W32922   1.112  13.266   6.012 -0.0615 -0.0881  0.1937
16789W        W32923   2.598   4.638  12.875  0.0757 -0.0826  0.1653
16790W        W32924  10.032   4.647  12.853  0.1152  0.0629  0.0108
16791W        W32925  17.924  15.381  11.887  0.2766  0.0715  0.0321
16792W        W32926  16.279   5.310   5.252 -0.1387  0.2259 -0.1702
16793W        W32927  13.891   7.323   4.936  0.3534  0.0265  0.1481
16794W        W32928  11.178   5.289  12.627  0.0934 -0.3724 -0.0900
16795W        W32929   4.408   8.482   5.365  0.0415  0.0546 -0.0064
16796W        W32930  15.061   0.265   0.692 -0.1159 -0.0308  0.0490
16797W        W32931  14.115  15.881   0.533  0.1002  0.2078  0.1683
16798W        W32932   7.599  12.917  10.937 -0.0244 -0.1582 -0.0850
16799W        W32933   5.957   9.319   3.173  0.1869  0.0918  0.2517
16800W        W32934  11.910  13.634  13.817 -0.2596  0.0517 -0.0831
16801W        W32935  16.168   7.589  13.166  0.2217 -0.3090 -0.0315
16802W        W32936   1.436  15.931   5.276 -0.2572 -0.2148  0.0558
16803W        W32937   5.119  17.200   3.159 -0.2111 -0.1960 -0.0044
16804W        W32938   3.211  14.141   3.878 -0.0230 -0.0325  0.0678
16805W        W32939   8.398   6.914   4.398  0.2405  0.2800  0.1716
16806W        W32940   5.877   4.583  12.889 -0.0042  0.0590  0.0525
16807W        W32941   2.691   8.027   4.000  0.0919  0.2636 -0.1787
16808W        W32942  11.312  17.030  14.025 -0.0330  0.2672  0.0209
16809W        W32943  10.298   6.291   5.349  0.0750  0.0196  0.0410
16810W        W32944  14.342   9.789   4.963  0.0383 -0.3298 -0.0599
16811W        W32945   3.405  10.825  12.936  0.0265 -0.1185 -0.0636
16812W        W32946   2.765   3.584   2.212 -0.0036 -0.0638 -0.1741
16813W        W32947   3.265  13.497   2.493 -0.3866  0.2851  0.1151
16814W        W32948   7.480   6.450   1.518 -0.0513  0.1173 -0.3492
16815W        W32949  16.184   9.931  14.307 -0.1287  0.3457  0.0332
16816W        W32950   1.870  13.943   3.984  0.0908  0.0562  0.0168
16817W        W32951   0.483   4.171  12.031  0.0349 -0.1774 -0.0324
16818W        W32952  10.176  14.182  14.750 -0.0212 -0.1057 -0.0911
16819W        W32953   5.379  13.121  14.791 -0.5315  0.1244 -0.0324
16820W        W32954  15.030   2.803  16.487 -0.0137 -0.0382 -0.4012
16821W        W32955  11.436   8.633  11.684 -0.0595  0.0584  0.1046
16822W        W32956   4.624   4.786   0.533  0.1049  0.0436 -0.0178
16823W        W32957  11.786  13.002  15.917  0.0778 -0.1104  0.0068
16824W        W32958  11.147   8.081   1.470 -0.0406  0.0416 -0.2042
16825W        W32959   8.217   7.469  13.806  0.1416 -0.2180 -0.1814
16826W        W32960   2.867  15.246  12.835  0.0142 -0.0536  0.2754
16827W        W32961  11.480   6.495   0.009 -0.2454  0.1970  0.2874
16828W        W32962  16.791   7.595  16.368 -0.1041 -0.2882  0.0577
16829W        W32963  11.183   0.138   5.420  0.0688  0.1666  0.1298
16830W        W32964   3.383  12.091  14.519  0.2291 -0.0217 -0.2277
16831W        W32965   5.811  12.102  15.381 -0.0833 -0.0173 -0.2329
16832W        W32966   7.310   1.257   3.236 -0.1489 -0.3163  0.2253
16833W        W32967   6.337   9.546  16.316 -0.2756  0.1600  0.1197
16834W        W32968   4.989   0.185   6.005 -0.1892 -0.2003 -0.2583
16835W        W32969  16.496   3.355   2.463  0.2545 -0.1259 -0.1427
16836W        W32970  16.660   2.812  11.532  0.0588  0.5239 -0.0591
16837W        W32971   5.380  17.104  14.528 -0.1575 -0.0784 -0.1902
16838W        W32972  17.011  13.139  14.064  0.1619  0.0542 -0.3278
16839W        W32973  14.035  16.299  16.644  0.0117  0.0557  0.0848
16840W        W32974   3.082   0.364   2.215  0.0467  0.4518 -0.2749
16841W        W32975  13.468   5.381  11.832 -0.1047 -0.1175 -0.3206
16842W        W32976   1.751   9.370  15.815  0.0717 -0.0923 -0.1114
16843W        W32977   0.249  13.700  12.491 -0.3113  0.2412  0.0256
16844W        W32978  15.454  16.870   1.030  0.1511 -0.2521  0.1274
16845W        W32979   6.615  14.858  14.101 -0.5994  0.3559  0.1546
16846W        W32980   7.903   3.276   3.684  0.1249 -0.2529 -0.0256
16847W        W32981  13.468   4.574  11.744 -0.0094 -0.0559  0.0468
16848W        W32982  15.580   3.181  13.216  0.0074  0.0270  0.0428
16849W        W32983   2.962   5.569  16.449  0.2231 -0.2944 -0.2822
16850W        W32984   7.750  13.410  14.900  0.0995  0.2309 -0.0688
16851W        W32985   6.700  13.249   1.278 -0.0950 -0.3121 -0.1879
16852W        W32986  17.741   5.946  15.709  0.1455 -0.0048 -0.1763
16853W        W32987  16.846   5.304   2.883 -0.1547  0.0112  0.1296
16854W        W32988   8.912  12.909   4.804 -0.2490 -0.1822  0.2443
16855W        W32989   2.960   2.265   1.842 -0.1421 -0.0925 -0.1917
16856W        W32990  13.648   2.375   5.189  0.2338  0.0612  0.1107
16857W        W32991   1.999   3.773  16.405 -0.0669 -0.3746 -0.2243
16858W        W32992   6.098   5.582  12.900 -0.1773  0.1027 -0.0119
16859W        W32993  11.974   9.683  14.348  0.0497  0.0967 -0.2977
16860W        W32994   9.094  14.989  13.162  0.0555 -0.0998 -0.0503
16861W        W32995   4.576  13.088   3.700 -0.0031  0.0193 -0.0974
16862W        W32996  13.678  13.692  12.946 -0.3300  0.0202  0.2724
16863W        W32997  14.578   2.030  15.006  0.0141  0.0706 -0.0790
16864W        W32998  12.397   6.996  13.869  0.1037 -0.1357 -0.0532
16865W        W32999   9.746  13.508   3.233 -0.3240  0.0149  0.0054
16866W        W33000  15.136  13.565  12.568 -0.3028  0.2408 -0.6129
16867W        W33001  15.891   2.175  15.670  0.0702  0.1921 -0.0252
16868W        W33002   5.706   5.512  12.328 -0.3109  0.0503 -0.0767
16869W        W33003   5.987   2.448   3.271 -0.0295  0.3633 -0.2464
16870W        W33004  12.922   6.066  15.463 -0.0389 -0.0457 -0.4110
16871W        W33005  16.687   6.960  11.474  0.1545 -0.0021  0.0411
16872W        W33006   6.723   3.394  14.761  0.3097 -0.0848 -0.1173
16873W        W33007   9.072   4.193  15.825  0.0892  0.1716  0.1853
16874W        W33008  15.782   5.365   4.540 -0.1972  0.1342  0.0082
16875W        W33009   7.951   3.064  14.135  0.1385 -0.1329  0.1761
16876W        W33010  17.486   5.038   2.063  0.0976  0.2023  0.3920
16877W        W33011   6.725   8.615  15.242 -0.1686 -0.1310 -0.0207
16878W        W33012  10.743   1.332   3.264 -0.2989  0.0526 -0.0980
16879W        W33013   1.461   6.665  16.493 -0.0360 -0.1543  0.0784
16880W        W33014  10.192   0.050  14.527 -0.2011 -0.2926  0.2301
16881W        W33015  13.263  12.358   0.072 -0.0376  0.1027 -0.2611
16882W        W33016  11.459   8.847   5.270  0.0628  0.0585  0.2043
16883W        W33017  10.369  12.373  11.704 -0.0439  0.0509  0.0790
16884W        W33018   4.641   1.443   0.331 -0.1128  0.0027 -0.2520
16885W        W33019  13.907   5.055   2.203 -0.0640 -0.0294 -0.0421
16886W        W33020  10.776  17.269   4.163  0.3160  0.2081  0.1818
16887W        W33021   1.820   1.466  12.630  0.0085 -0.0824  0.0369
16888W        W33022   0.752   0.928  14.565  0.2277 -0.3549 -0.2823
16889W        W33023   5.198   9.801   4.439  0.0803  0.0172 -0.1514
16890W        W33024   3.020   0.086  11.283 -0.1878 -0.2909  0.0514
16891W        W33025  16.680   3.920   5.871 -0.1296  0.1479  0.2035
16892W        W33026   3.927   8.494  12.078  0.2037 -0.0707  0.0843
16893W        W33027   7.688   7.104  13.386  0.2011 -0.2667 -0.0857
16894W        W33028  13.939   1.201  13.030  0.2898  0.0652  0.0696
16895W        W33029  12.402   6.945   1.817  0.2725 -0.2125  0.0935
16896W        W33030  17.757   0.613  13.731 -0.2606 -0.1584  0.0766
16897W        W33031   8.225  14.496   4.027  0.0593  0.1331  0.3762
16898W        W33032   9.257   6.025   4.165  0.0473 -0.0659  0.0033
16899W        W33033  14.192  11.768   5.931  0.0874 -0.1103  0.4364
16900W        W33034  12.254  10.685   0.233  0.1518 -0.1330 -0.2084
16901W        W33035   6.357   3.494   3.961  0.2120  0.1162  0.0260
16902W        W33036  16.783   0.157   5.788 -0.0837 -0.1024  0.0894
16903W        W33037   4.198   3.937   5.991  0.0793 -0.1359 -0.1943
16904W        W33038   0.272  11.261  11.649 -0.1878 -0.1656 -0.4359
16905W        W33039   1.526   0.957   2.958 -0.0166  0.3168  0.1738
16906W        W33040   6.059  17.203   4.269  0.1808 -0.2448  0.2529
16907W        W33041   2.696   7.611   0.363  0.1130  0.1450 -0.1511
16908W        W33042   7.787   0.240   3.409  0.1525  0.0976  0.2709
16909W        W33043   0.444  14.276   4.685 -0.1832 -0.1982 -0.0967
16910W        W33044   2.770  13.395  14.448 -0.0741 -0.0489 -0.5455
16911W        W33045   0.540   6.319   2.017 -0.1701 -0.3528  0.0875
16912W        W33046   4.938  11.576   3.584  0.1018  0.2353  0.2929
16913W        W33047   9.122   6.190  14.751  0.0643 -0.2437  0.0805
16914W        W33048  16.859  15.108  12.917  0.0104 -0.0135  0.0354
16915W        W33049  12.908   5.474   3.692  0.0193 -0.0970  0.0588
16916W        W33050   2.458  15.043   0.042  0.1528 -0.0072  0.1476
16917W        W33051   1.706  16.815   4.289  0.2982 -0.0855 -0.1277
16918W        W33052   3.506   3.128   2.657 -0.0942  0.1198 -0.1246
16919W        W33053   2.413   4.762  11.558 -0.1971 -0.0206  0.0169
16920W        W33054  15.390   3.602  10.795 -0.2737  0.2081  0.2054
16921W        W33055  17.830   1.073  14.034  0.0001 -0.2212 -0.0356
16922W        W33056   1.164   2.457  11.639 -0.1130 -0.0887 -0.0637
16923W        W33057   3.252  17.493  14.622 -0.3648  0.1109 -0.1769
16924W        W33058   1.789   2.432   1.336 -0.2759  0.0133  0.4660
16925W        W33059   1.037  15.984  15.251 -0.2249 -0.1118 -0.0708
16926W        W33060   8.527   2.355   6.019 -0.1901  0.0271  0.1052
16927W        W33061   0.137  17.653  12.003  0.1586  0.1027  0.0263
16928W        W33062   7.114   5.340   4.188  0.0097  0.1230  0.2053
16929W        W33063   1.401   7.514  12.530  0.1089  0.2378  0.0007
16930W        W33064  11.072   7.836  12.639 -0.0729  0.0506 -0.1594
16931W        W33065   1.303   4.589   5.306 -0.0392  0.0797  0.0676
16932W        W33066  16.131   4.847  12.723 -0.0409  0.1145  0.1860
16933W        W33067   8.669  17.543  11.698 -0.2430 -0.0311 -0.0646
16934W        W33068  11.171   5.468   0.015 -0.0794  0.1637  0.0034
16935W        W33069   6.427  17.489   1.919  0.0062  0.4848 -0.1977
16936W        W33070  13.726  15.473  15.771 -0.0529 -0.2995  0.2310
16937W        W33071   7.903  16.527  12.831 -0.1470 -0.0051 -0.1132
16938W        W33072  13.540  16.257   3.633 -0.0022 -0.0788 -0.0577
16939W        W33073  15.063  10.913   5.170 -0.1533 -0.2952 -0.2366
16940W        W33074   7.288   1.574   0.110 -0.2406 -0.1767  0.0652
16941W        W33075  17.173   1.378  16.633  0.0248  0.1625  0.3681
16942W        W33076  10.140  11.118  11.595 -0.4245  0.5564 -0.1440
16943W        W33077  10.915  16.337   2.922 -0.1458  0.1826 -0.0022
16944W        W33078   7.335   8.723  15.094  0.2516  0.0310 -0.0276
16945W        W33079   0.838  17.712   6.088  0.1204 -0.0181  0.0922
16946W        W33080   3.259   1.351  12.839  0.0482 -0.1885  0.2276
16947W        W33081  11.392   7.255   2.188 -0.2143  0.1418 -0.1357
16948W        W33082   7.615  17.003   5.626  0.1849 -0.2544 -0.2804
16949W        W33083  16.397   8.757   2.377  0.0965 -0.0026 -0.1790
16950W        W33084  16.495   9.796  13.026  0.2234  0.0971 -0.2564
16951W        W33085  15.017  13.802   0.945 -0.0281 -0.0199  0.0580
16952W        W33086  15.131  12.071  13.484  0.1125 -0.2173 -0.1314
16953W        W33087  17.347   5.649   2.752  0.3274  0.2535  0.2080
16954W        W33088   4.309   7.938   0.375  0.2053 -0.1869 -0.1685
16955W        W33089  11.174  17.569   1.888  0.0598 -0.0976  0.0635
16956W        W33090  10.232   6.165   4.461 -0.1857 -0.2723  0.0768
16957W        W33091   0.331   1.242  14.722 -0.2664  0.2019  0.1443
16958W        W33092   5.036   5.938  13.478  0.0645  0.2245 -0.1639
16959W        W33093  14.552  11.892  15.786 -0.1389  0.0360 -0.0239
16960W        W33094   3.910  15.644   3.369 -0.0502 -0.1475  0.1211
16961W        W33095   8.809  15.959   1.294 -0.2131  0.1771  0.0267
16962W        W33096   6.236   4.840   1.659 -0.0857  0.1189  0.0471
16963W        W33097  14.229  14.168   2.551 -0.3001  0.2857  0.3256
16964W        W33098   8.555  15.869  13.508 -0.0636 -0.0800 -0.3589
16965W        W33099   8.937   5.983  12.798 -0.1409 -0.0723  0.1273
16966W        W33100  11.961   9.775   3.331  0.0083  0.3323  0.1807
16967W        W33101   4.995   8.190  11.016 -0.0332  0.0491 -0.0806
16968W        W33102  13.687   0.612  16.224 -0.0667 -0.1045 -0.2165
16969W        W33103   3.513  16.118  12.490  0.4231 -0.0621 -0.0903
16970W        W33104   1.259  16.646  11.692  0.1028  0.2438 -0.3226
16971W        W33105   4.053  16.338  12.702  0.0519  0.2981 -0.0043
16972W        W33106   5.914   0.579  14.629  0.0199  0.0891  0.2733
16973W        W33107   8.630  11.143   2.275 -0.1112  0.0539  0.0186
16974W        W33108   8.570   9.843   3.520 -0.3390 -0.1589 -0.2254
16975W        W33109  14.807  15.948  14.405 -0.2978 -0.4363  0.0775
16976W        W33110  14.843   2.200  12.764 -0.2653  0.1918 -0.0296
16977W        W33111   4.733   7.802   1.132 -0.1297  0.0497 -0.2196
16978W        W33112  13.573   6.382  11.815 -0.3370  0.1338  0.0187
16979W        W33113   1.638   4.351   4.863  0.0856 -0.0053  0.1149
16980W        W33114   7.437   0.581  15.443  0.0378 -0.2046 -0.1424
16981W        W33115  11.051   0.636   5.433 -0.0677 -0.0319  0.2093
16982W        W33116  11.977   7.123  16.401 -0.1063 -0.1011 -0.0548
16983W        W33117  10.033  16.189  14.885  0.3203 -0.0299  0.1878
16984W        W33118   2.219   4.073   1.173 -0.2486  0.1108  0.1256
16985W        W33119  16.014  14.440  14.280 -0.0264 -0.1536  0.0344
16986W        W33120  16.260   1.657   0.372 -0.1314  0.0135  0.1338
16987W        W33121  13.822   8.750   2.350  0.1309 -0.3901  0.3680
16988W        W33122   6.624   3.958  11.887 -0.2996 -0.1182 -0.1669
16989W        W33123  17.026  10.602  14.678  0.1576  0.2517  0.0259
16990W        W33124   5.460   9.579  11.322 -0.3730  0.0453  0.0389
16991W        W33125  16.954  13.439   2.992  0.1899 -0.0716  0.2821
16992W        W33126  14.677  11.477  13.813  0.1722  0.1580 -0.0860
16993W        W33127   1.061  11.394   0.421 -0.0141 -0.0054 -0.1888
16994W        W33128   9.480   5.220  14.132  0.0636  0.1862  0.0005
16995W        W33129   0.540  16.760   6.282  0.1418  0.1702 -0.0568
16996W        W33130   3.349  14.239   2.878 -0.2405  0.1094 -0.0189
16997W        W33131  10.450  12.084  15.985  0.2056  0.2056  0.0994
16998W        W33132   0.961   6.615  13.764  0.0932  0.1332 -0.1147
16999W        W33133   0.336   3.137   5.242 -0.0536 -0.2249 -0.0371
17000W        W33134   0.915  11.601  16.021  0.0553 -0.4442 -0.0794
17001W        W33135   4.648  14.986   2.877 -0.3026  0.3305  0.3669
17002W        W33136  17.334   3.764   0.535 -0.2469  0.0425  0.3280
17003W        W33137  10.847   9.467   0.706  0.0339 -0.3024  0.0958
17004W        W33138   1.977   2.597   5.338  0.2625 -0.3791  0.0807
17005W        W33139  11.306  13.135  15.088 -0.0486  0.1627 -0.3134
17006W        W33140   0.547  13.023   0.863  0.0218 -0.2134 -0.2673
17007W        W33141  15.123   7.511   3.224 -0.2131 -0.0404 -0.0180
17008W        W33142   6.244  13.857  14.923 -0.1211  0.0488  0.1648
17009W        W33143   0.650  11.851   1.481 -0.0772 -0.0606 -0.0173
17010W        W33144  13.811   4.250  11.720  0.0399  0.0741 -0.1130
17011W        W33145   6.946   1.956   1.437  0.0124 -0.2163  0.2226
17012W        W33146  12.744   7.356  11.768 -0.1164 -0.0450  0.2277
17013W        W33147   1.015   8.348   1.392  0.2007 -0.0207  0.1033
17014W        W33148  11.944  10.113  12.321  0.0706 -0.1385 -0.0623
17015W        W33149   0.960   8.919   4.123  0.1461 -0.0560  0.0307
17016W        W33150   3.999  12.657   3.294  0.2351  0.0207  0.2813
17017W        W33151   0.141  10.623  12.253 -0.0477  0.0887  0.1460
17018W        W33152  14.852   3.785   4.833 -0.0547 -0.0700  0.0966
17019W        W33153   1.263  11.768   1.321 -0.0913 -0.0741 -0.1910
17020W        W33154  15.269   2.505  13.746  0.1559  0.0952  0.0040
17021W        W33155  13.732   3.543  15.515 -0.0774  0.0799 -0.5545
17022W        W33156  11.553  14.501  11.777 -0.1505 -0.2158 -0.4532
17023W        W33157   4.612   0.064  12.554  0.1591  0.1332 -0.1843
17024W        W33158   4.312  14.236  13.776 -0.2903  0.3181 -0.2902
17025W        W33159   2.974   9.780   2.669  0.0119 -0.2304  0.3536
17026W        W33160  17.345   6.189  12.907 -0.3067  0.0850  0.0080
17027W        W33161   8.453   1.571   3.826  0.2795 -0.0746  0.2449
17028W        W33162   3.897   2.506  16.427  0.1646  0.1053  0.1563
17029W        W33163   1.288   4.559   3.475 -0.1062 -0.1149  0.0149
17030W        W33164   2.212   8.623  14.035  0.0654 -0.2200 -0.0225
17031W        W33165   0.571   3.832   4.531 -0.2734 -0.2858  0.2087
17032W        W33166   6.597  13.978   0.727 -0.2844  0.0805  0.1614
17033W        W33167  14.655   6.957  13.531  0.1159 -0.1376  0.1771
17034W        W33168   9.645   7.747  13.559 -0.1513  0.1898 -0.3242
17035W        W33169   8.998   1.897   5.535  0.3049 -0.2546  0.3980
17036W        W33170   7.107  12.039   3.824  0.1512  0.1735  0.2958
17037W        W33171   2.992  12.072  15.533  0.0862 -0.3113 -0.0287
17038W        W33172   1.203  10.821   4.284 -0.1618  0.0741 -0.3889
17039W        W33173  12.012  12.112  14.984 -0.4257 -0.0666  0.1064
17040W        W33174   2.757  12.450   5.138  0.1180 -0.1799  0.3073
17041W        W33175  10.633   2.986  14.970 -0.1134 -0.3547  0.2880
17042W        W33176   8.777  15.532   2.056  0.3387 -0.3132  0.2170
17043W        W33177   6.593   1.306   0.307  0.0168  0.1874  0.0491
17044W        W33178  10.446   1.120   1.603 -0.1623  0.1079  0.3074
17045W        W33179   6.962  17.142  13.299 -0.0032  0.0655 -0.2530
17046W        W33180   2.265   8.358   1.418  0.0043  0.1518  0.3053
17047W        W33181   0.288   6.887   2.555  0.2447 -0.2748  0.1108
17048W        W33182   3.164  16.268  11.292 -0.3059 -0.0681  0.1602
17049W        W33183   8.276   4.867   6.145 -0.2042 -0.3866  0.2123
17050W        W33184  17.064  13.506  16.105  0.4437  0.1458 -0.0168
17051W        W33185   2.220   8.432   2.627  0.0278 -0.0599  0.0095
17052W        W33186  12.718  15.241   3.865  0.0183 -0.2848  0.1038
17053W        W33187  14.877   7.474  12.638  0.0862 -0.0483  0.1078
17054W        W33188   5.689  16.408   3.711 -0.3475 -0.1707 -0.0154
17055W        W33189  12.116  12.110  11.694  0.2174 -0.1991  0.0517
17056W        W33190  14.388  12.333   1.191  0.0570 -0.2507 -0.1081
17057W        W33191  12.366  12.987  16.559 -0.0891  0.1056  0.0818
17058W        W33192   5.995  12.444  13.580 -0.1760  0.1243  0.2112
17059W        W33193   1.140   4.475   1.745 -0.2419  0.2509 -0.0182
17060W        W33194   0.312   1.122   4.534  0.3875  0.0548 -0.2064
17061W        W33195   7.609   9.556   3.869 -0.0557 -0.1359  0.0572
17062W        W33196   6.582   2.760  15.590  0.1666  0.0630 -0.0749
17063W        W33197   9.404   4.502   4.405  0.1739 -0.0384 -0.0209
17064W        W33198  14.512  13.886   3.380 -0.1269 -0.0915 -0.0715
17065W        W33199   3.206  15.180  14.758  0.0120  0.1564  0.0527
17066W        W33200  16.448   5.814   2.516  0.3608  0.0071  0.0501
17067W        W33201  16.028   2.211   2.739 -0.0055 -0.2464 -0.0795
17068W        W33202   3.818   0.037   1.807  0.4751  0.1804  0.2889
17069W        W33203  15.697   0.889   2.760 -0.0434 -0.1808  0.0600
17070W        W33204  17.603  10.045  12.154 -0.1598  0.3366  0.5638
17071W        W33205   2.248  17.043   5.281 -0.0479 -0.2181  0.1337
17072W        W33206   4.050   9.792  12.641  0.0473 -0.1675  0.0205
17073W        W33207  11.959  12.253   1.190 -0.2161 -0.4165  0.1172
17074W        W33208  11.526   0.007   4.974 -0.1153 -0.3014 -0.0295
17075W        W33209  14.799  13.229   3.647  0.0358 -0.0722  0.1923
17076W        W33210  15.797   1.167   0.253  0.2985  0.2609  0.0435
17077W        W33211  16.662  14.944  15.875  0.0946 -0.3100 -0.3205
17078W        W33212   0.059   1.662  14.999 -0.4186 -0.3072  0.1095
17079W        W33213   1.401  17.680  14.283  0.0442 -0.3776 -0.0170
17080W        W33214  11.926   3.107  12.049 -0.3488 -0.0911 -0.1261
17081W        W33215   8.685   2.377   2.472 -0.0426 -0.2071 -0.2453
17082W        W33216  17.225   9.400   2.337 -0.1370 -0.0537  0.0994
17083W        W33217   5.942   5.582  16.490 -0.0870 -0.0646  0.2622
17084W        W33218  10.383  12.533  15.798  0.1898 -0.0104 -0.0856
17085W        W33219   3.051   3.839   0.190 -0.0313 -0.1000 -0.0444
17086W        W33220   9.248   5.716  15.871  0.2288  0.1331  0.1631
17087W        W33221   4.203  15.645  11.468  0.0189  0.1980  0.0343
17088W        W33222   4.485  11.423   3.741  0.4258  0.0144  0.1194
17089W        W33223  15.720   5.813   1.802 -0.2336  0.1929 -0.0515
17090W        W33224  13.955   2.256  14.295  0.2360  0.0121 -0.1184
17091W        W33225  14.616  12.121   2.518 -0.0904 -0.0414 -0.2478
17092W        W33226   1.869   1.657   2.104  0.0092 -0.0786 -0.0262
17093W        W33227  14.398  14.115   0.356 -0.1203  0.0178  0.0732
17094W        W33228  14.995  10.687  15.574  0.1225  0.1474 -0.2155
17095W        W33229   4.633  11.442  16.404  0.2120 -0.0692 -0.0425
17096W        W33230   7.738  17.582   1.463 -0.2295  0.1331 -0.0695
17097W        W33231  17.407   5.818   1.495  0.0552  0.2879  0.1878
17098W        W33232   0.772  12.522  13.687 -0.0754  0.0203  0.1040
17099W        W33233   8.891   4.729   5.009  0.0005 -0.3242  0.2150
17100W        W33234   7.573  10.288  14.262  0.0656 -0.1160 -0.1414
17101W        W33235  14.515   9.597   5.887  0.1675 -0.2368  0.0536
17102W        W33236  12.582   1.731   3.577 -0.0287 -0.0154  0.1899
17103W        W33237   5.243   0.658  12.525 -0.0958  0.0607  0.3514
17104W        W33238   3.234  14.017   2.417 -0.2840  0.3110  0.5059
17105W        W33239  11.756   2.411   1.059 -0.1278 -0.1549  0.2499
17106W        W33240  15.483   2.665  12.065  0.5626 -0.2184  0.0228
17107W        W33241  11.862  16.230  12.895 -0.1689 -0.0348  0.1280
17108W        W33242  15.112   1.835   5.404 -0.0852 -0.0877  0.0361
17109W        W33243   5.725  16.453  11.616  0.1450 -0.2751 -0.1904
17110W        W33244  13.417   2.094   2.174  0.2242  0.1563 -0.2287
17111W        W33245   6.580   3.782   0.364  0.1887  0.1631 -0.3504
17112W        W33246  11.410   0.047   2.218 -0.7216 -0.1010  0.2235
17113W        W33247  10.770  15.499   3.932 -0.3388  0.2630  0.3697
17114W        W33248   6.288   2.294  13.286 -0.2167 -0.2414 -0.1946
17115W        W33249   8.375  13.414   0.255 -0.0269 -0.3303 -0.1973
17116W        W33250   5.475  13.985  12.140 -0.1808 -0.2951 -0.0194
17117W        W33251   5.994  14.577   5.759 -0.0374 -0.0299 -0.4431
17118W        W33252   8.277  16.267   0.346  0.2203  0.1028 -0.1260
17119W        W33253   8.324   4.445  12.028  0.3797 -0.1357 -0.0940
17120W        W33254  15.329  10.533  12.380  0.2628  0.0748 -0.1200
17121W        W33255  12.067  13.261   3.092 -0.0780  0.1414  0.0000
17122W        W33256  11.180  16.244  11.977 -0.0256  0.3666  0.1977
17123W        W33257   0.048   1.850  11.586 -0.2517 -0.0856 -0.1568
17124W        W33258  17.958   9.803  11.820 -0.0658 -0.1736  0.3156
17125W        W33259   3.046  10.387   2.036  0.1381 -0.2079 -0.0673
17126W        W33260  15.630   6.183   1.503  0.1087  0.0982  0.3722
17127W        W33261  16.462  13.440   2.283  0.3273  0.0835 -0.1551
17128W        W33262   1.120   6.403   3.367  0.0669 -0.0232  0.1440
17129W        W33263   5.712   8.806   1.070 -0.0637 -0.1531  0.0151
17130W        W33264  16.131  14.732  13.384 -0.0739 -0.0443 -0.1860
17131W        W33265   2.498   8.604  15.637 -0.1990  0.2279  0.1458
17132W        W33266   1.874  16.663  13.897  0.0072 -0.3308 -0.0518
17133W        W33267   2.337   7.528   3.701  0.1693  0.0643  0.0426
17134W        W33268   9.824  14.155   4.911 -0.3061  0.1257 -0.2958
17135W        W33269   6.206  12.671   5.501  0.1958  0.1869 -0.0225
17136W        W33270   2.159   1.190  15.228  0.1451 -0.2301  0.1652
17137W        W33271  16.602   3.540  12.411  0.0962 -0.2945 -0.1330
17138W        W33272   5.513   9.679   3.017  0.0398  0.1555 -0.1526
17139W        W33273   7.476  15.765   2.798  0.1507  0.1539  0.3213
17140W        W33274   1.402   7.249   1.122 -0.1849 -0.0844 -0.1682
17141W        W33275  16.611  10.330  13.123  0.3063 -0.0973 -0.2448
17142W        W33276  14.826  13.694  12.207  0.2083  0.0345  0.0782
17143W        W33277   3.684   5.579   4.561  0.3134 -0.3563  0.0670
17144W        W33278   9.279   4.341   2.314 -0.0055 -0.0898  0.0166
17145W        W33279   4.096  11.514   2.941  0.0644  0.1340 -0.0298
17146W        W33280   3.765   6.938  13.671  0.0922 -0.2330 -0.2139
17147W        W33281  14.248  10.511  16.481 -0.1933  0.2423  0.0015
17148W        W33282   5.815  10.283   0.227 -0.3800  0.1874  0.3654
17149W        W33283  17.410   3.129   2.290  0.1698 -0.1678 -0.0146
17150W        W33284  17.243  17.380   4.884 -0.3038 -0.0220  0.0173
17151W        W33285  10.247  15.244   4.150  0.0066  0.2878  0.2299
17152W        W33286  10.754   9.268   3.434 -0.1309  0.1097 -0.0450
17153W        W33287   7.615  14.823   3.588 -0.0231  0.1905 -0.1226
17154W        W33288  10.418  12.334   1.945  0.0575  0.0336  0.1992
17155W        W33289   7.236   6.065   6.337  0.1056 -0.0713  0.4524
17156W        W33290   3.118   9.382  15.341  0.1847  0.0747  0.1907
17157W        W33291   7.379   5.536   0.632  0.2166  0.3144 -0.0727
17158W        W33292  17.448  14.338  16.064 -0.1654 -0.0040 -0.0399
17159W        W33293   4.240  16.277  15.939  0.0508  0.0180  0.1615
17160W        W33294   1.339   3.653  14.721 -0.0501 -0.1002  0.1187
17161W        W33295   5.624  10.672  15.566 -0.0035 -0.1285  0.1452
17162W        W33296   4.513  12.224  15.297 -0.2982  0.0582  0.2990
17163W        W33297  15.077   0.615  14.571  0.0793  0.2137 -0.0821
17164W        W33298  12.699  13.045   3.485  0.1053  0.2513  0.1587
17165W        W33299   8.755  16.738   2.447 -0.6449 -0.0908 -0.1361
17166W        W33300   1.936   3.686   4.602 -0.1923 -0.1435  0.1854
17167W        W33301   6.339  14.234   1.025 -0.3676  0.2504 -0.2605
17168W        W33302   8.056   6.412  12.483  0.0708 -0.1624  0.1877
17169W        W33303   1.425   1.357   4.081 -0.0101  0.0121  0.1409
17170W        W33304   4.231   4.379  14.683  0.0843 -0.1238  0.3350
17171W        W33305  17.869  10.630   0.966  0.0196  0.1187 -0.0647
17172W        W33306   5.370   0.550   1.742  0.0302  0.3438  0.2830
17173W        W33307   4.794  16.550   1.904 -0.2332 -0.2976  0.3903
17174W        W33308   1.772  14.845  13.723  0.4487  0.0462 -0.2778
17175W        W33309   1.716   1.461   3.685 -0.2423 -0.0771  0.1310
17176W        W33310   9.499   0.722  12.510 -0.4156  0.1314 -0.2037
17177W        W33311  10.447   2.467   2.687  0.2601  0.0282 -0.0068
17178W        W33312   5.758  15.133   2.371 -0.0747 -0.3171  0.0544
17179W        W33313  13.991  17.818  16.612  0.0095 -0.1151  0.0406
17180W        W33314  13.742  16.798  13.747 -0.0392 -0.0867 -0.0450
17181W        W33315  16.670   5.216  15.945  0.1209 -0.1214 -0.0986
17182W        W33316   6.867   3.770  12.754  0.2328  0.2204 -0.3112
17183W        W33317   3.625  15.400   3.810  0.1498 -0.2380 -0.1682
17184W        W33318   3.756   7.613   1.018 -0.1002 -0.1482  0.2348
17185W        W33319   9.715  15.363   5.178 -0.0861 -0.1648  0.0599
17186W        W33320  10.213   2.443  14.063 -0.0977  0.1115 -0.1510
17187W        W33321  13.264  11.104   0.383 -0.0732  0.1484 -0.3629
17188W        W33322  13.340   1.567  14.118  0.0054  0.1778  0.0736
17189W        W33323  11.979  15.633   1.926  0.1347 -0.0838  0.0244
17190W        W33324   4.194   4.585   1.774  0.0296  0.0892  0.0214
17191W        W33325   8.622   3.585  13.301  0.2147 -0.0348  0.1714
17192W        W33326   8.111   9.877   0.690  0.2342  0.0522  0.1892
17193W        W33327   0.858  12.429  11.711  0.0929  0.2752  0.1354
17194W        W33328  11.791  16.069   0.291  0.3938 -0.1372 -0.2027
17195W        W33329   1.326  13.339   3.355 -0.0901 -0.3818 -0.2393
17196W        W33330   2.862  15.975   2.393 -0.2294  0.0347  0.2332
17197W        W33331  16.705   7.539   3.711 -0.1023  0.1103 -0.1070
17198W        W33332  11.455   7.695   1.229 -0.2033 -0.1970 -0.0660
17199W        W33333  13.317  17.547   3.161 -0.0454  0.0647 -0.1400
17200W        W33334   7.580   6.575  11.566 -0.3223 -0.1128 -0.1703
17201W        W33335   4.393   0.707   5.574 -0.1647 -0.0149 -0.2455
17202W        W33336   3.385   9.315  15.987 -0.1150 -0.0040 -0.0202
17203W        W33337   4.005  15.803   5.115 -0.0056 -0.0333 -0.1863
17204W        W33338   6.558   7.233  14.013  0.0888  0.2704 -0.0181
17205W        W33339  13.117  11.837  11.283 -0.2080  0.0522 -0.0038
17206W        W33340   9.302  17.332  16.390 -0.0601 -0.0278 -0.2684
17207W        W33341  16.163   3.341  12.548  0.1245 -0.0612  0.3539
17208W        W33342  12.255   3.257  15.067 -0.2225  0.0795 -0.1863
17209W        W33343   4.984  13.747  11.384  0.1003  0.0240 -0.3693
17210W        W33344  11.715  10.021  11.765 -0.1027  0.2650  0.1384
17211W        W33345   3.123   8.325  14.966  0.1891 -0.0462  0.1307
17212W        W33346   3.182  10.197  12.288 -0.2488  0.0241 -0.1545
17213W        W33347   8.266   8.117  11.780  0.2952 -0.1128 -0.1438
17214W        W33348   6.975   1.562  15.782  0.1077 -0.3476 -0.1528
17215W        W33349   0.770  12.560  13.075  0.0134  0.0795  0.1078
17216W        W33350  10.791  14.159  16.649  0.3450  0.0606 -0.1301
17217W        W33351  10.205   1.958  14.002 -0.1423  0.0205  0.2318
17218W        W33352   4.624  13.818  14.275 -0.0833 -0.2550  0.1599
17219W        W33353   8.172   9.383  14.984  0.0840 -0.2113  0.1596
17220W        W33354  12.145  14.420   4.756 -0.0038  0.0708 -0.0505
17221W        W33355   3.437  14.756  15.731 -0.1692  0.1173  0.0949
17222W        W33356  16.968  15.489  14.129  0.1527 -0.0219  0.2143
17223W        W33357  16.314  17.099   3.263 -0.0478 -0.0492  0.0900
17224W        W33358   5.696   6.627  16.401  0.3098  0.1948 -0.0298
17225W        W33359   6.386  14.201  13.557  0.0358 -0.2481  0.1238
17226W        W33360   0.233  12.036  12.599  0.1523 -0.1422 -0.1517
17227W        W33361   9.689   5.374   4.045 -0.1392  0.2643  0.0445
17228W        W33362   7.844  16.947   2.038  0.1263  0.3921 -0.0072
17229W        W33363   5.830   7.921   3.304 -0.0859  0.1744  0.1609
17230W        W33364  13.838  16.579   1.083 -0.1355  0.0102 -0.1655
17231W        W33365   2.658  12.243   0.351 -0.0230 -0.0764 -0.0738
17232W        W33366  10.197  11.294  14.808 -0.2120 -0.1610  0.1279
17233W        W33367   2.521   8.458   3.799  0.0270 -0.1761 -0.3380
17234W        W33368  16.644  15.703   1.827  0.0039 -0.0859  0.2193
17235W        W33369   0.143   5.561  13.912 -0.0720 -0.1858 -0.0639
17236W        W33370  15.901  12.716   1.816 -0.0711  0.0422 -0.2210
17237W        W33371   2.649   5.898   5.193  0.2306  0.0936  0.0412
17238W        W33372  13.162  17.206   5.502  0.2294 -0.2283  0.0059
17239W        W33373  10.211   6.100   0.702 -0.1142  0.2432  0.0243
17240W        W33374   3.099   6.302   1.013  0.1859  0.1338 -0.0937
17241W        W33375  15.285  17.881  15.205 -0.2125 -0.0506 -0.0503
17242W        W33376  14.399  14.901   0.548  0.1747  0.0167  0.0790
17243W        W33377   2.666   0.633  11.357 -0.1427 -0.0966 -0.0270
17244W        W33378   7.571  12.646   2.498 -0.1172 -0.1292  0.1823
17245W        W33379   3.214   0.794   1.995 -0.0795  0.1395  0.0731
17246W        W33380  13.100  11.891  11.998 -0.3915  0.1008  0.1456
17247W        W33381   6.316   5.861   4.451 -0.0073 -0.2110  0.0230
17248W        W33382  17.643  15.663   4.805  0.3063  0.1016 -0.2181
17249W        W33383  10.513   4.739   2.436  0.0477 -0.2126 -0.1064
17250W        W33384  12.976  14.547   0.717  0.0854 -0.0160  0.3356
17251W        W33385   5.408  17.866  14.495  0.1169 -0.3240 -0.0697
17252W        W33386  14.214  15.520  15.970  0.2716  0.2669 -0.1898
17253W        W33387   8.406  13.474   5.395 -0.0557  0.0315  0.0191
17254W        W33388   3.767  11.542   2.142  0.1351  0.0930  0.0116
17255W        W33389   4.349   3.650  11.976 -0.1135 -0.1896  0.2909
17256W        W33390   8.434   7.801   0.358 -0.1275  0.2018  0.0523
17257W        W33391   5.482   8.254  11.946 -0.2498 -0.1711  0.1789
17258W        W33392  13.851  12.094  13.995  0.4116  0.1543  0.1326
17259W        W33393   5.724   1.698   0.475  0.0986  0.1963 -0.1781
17260W        W33394  11.511   3.768  16.036  0.1960 -0.2520 -0.0670
17261W        W33395  15.745  15.350  11.975  0.1327 -0.0382  0.1848
17262W        W33396   3.511   1.012   2.323 -0.0240  0.1664  0.2038
17263W        W33397  11.105   3.366   1.343  0.2090 -0.3781 -0.0867
17264W        W33398   7.380   8.875   0.407 -0.1230 -0.2220  0.1369
17265W        W33399   9.880  13.144   2.823  0.2340 -0.1661 -0.0153
17266W        W33400   0.972  14.642   5.797 -0.1006 -0.3473  0.1393
17267W        W33401  17.667  15.324   5.489  0.0161  0.0062 -0.1465
17268W        W33402   3.933  14.827   3.140 -0.1031  0.0016  0.2046
17269W        W33403   1.415   4.752   2.079 -0.1763 -0.2550 -0.0890
17270W        W33404  17.055   4.825   2.972  0.2256 -0.3290  0.0899
17271W        W33405   8.622  15.944  12.384 -0.0386  0.2156 -0.1614
17272W        W33406   8.471  14.275  11.981  0.3219  0.0478  0.0179
17273W        W33407   0.296  15.622  13.018 -0.0033 -0.0841 -0.0723
17274W        W33408  11.629   1.914   3.292  0.1029 -0.0228 -0.2268
17275W        W33409   0.340   9.054   5.434 -0.1240  0.2159  0.0374
17276W        W33410  12.029  12.656  16.224  0.1185 -0.0111  0.5430
17277W        W33411   4.458  16.843   4.774  0.1309  0.2012  0.0566
17278W        W33412   3.048  15.471   4.355  0.4278  0.0045  0.0597
17279W        W33413   8.267  13.049   3.681  0.1087 -0.1604  0.1009
17280W        W33414  17.019  11.688  13.716  0.2899  0.2036  0.0952
17281W        W33415   1.192  13.766   1.376 -0.0827  0.2987  0.0158
17282W        W33416   7.055  14.447  13.168 -0.0343 -0.0963 -0.0216
17283W        W33417  10.522  12.656   4.234 -0.0344  0.0072  0.0924
17284W        W33418   8.951   5.547   0.536 -0.0394 -0.0569  0.0673
17285W        W33419   7.593  17.862   4.560 -0.1307 -0.2130 -0.0675
17286W        W33420   0.954   8.034   4.255 -0.1450  0.3066  0.2929
17287W        W33421  12.564  10.639   5.641  0.1880 -0.0025 -0.1857
17288W        W33422  13.260   6.248   0.786  0.0663 -0.0630  0.0741
17289W        W33423  11.294   0.060   4.089 -0.3036  0.1826  0.0567
17290W        W33424  17.744   9.229   2.423 -0.0761  0.1838  0.0867
17291W        W33425   9.872   2.928  11.595 -0.0158  0.2781 -0.2638
17292W        W33426   9.842  10.623  15.335 -0.4591  0.1988  0.0537
17293W        W33427   6.868  13.611   5.147  0.0692 -0.0069  0.1732
17294W        W33428  13.352   2.724  15.168 -0.1347 -0.0931 -0.2223
17295W        W33429  12.357  10.391  15.544  0.1340  0.0615  0.0010
17296W        W33430   1.334   5.750   4.622 -0.0419  0.0708 -0.1584
17297W        W33431  11.458  11.078  14.621  0.2036 -0.0888 -0.1627
17298W        W33432  16.301   6.389   5.176  0.0746  0.1957 -0.1143
17299W        W33433  16.408   9.434   3.990  0.2905 -0.2784 -0.1115
17300W        W33434   0.085  13.149  16.233  0.0338 -0.1332  0.0867
17301W        W33435   2.263  12.667   2.769 -0.2503  0.2331 -0.3153
17302W        W33436   5.412   5.454  16.562 -0.0378  0.2730 -0.0095
17303W        W33437  16.534   8.484   4.907  0.1152  0.1917 -0.1406
17304W        W33438  13.145   3.402   4.266 -0.1155 -0.2799 -0.0091
17305W        W33439  17.805  15.874   4.295  0.3540  0.0005 -0.0435
17306W        W33440  11.723  13.623   5.194  0.3013 -0.4176 -0.0144
17307W        W33441  13.639   7.594  13.039 -0.0288  0.0826  0.0057
17308W        W33442  12.342  13.537  12.370 -0.4080 -0.1174 -0.1625
17309W        W33443  10.446  11.771  14.586  0.1542  0.0603  0.1367
17310W        W33444   6.584   8.240  14.388 -0.0987  0.1995 -0.1622
17311W        W33445   0.144   0.475   2.911 -0.0788 -0.1215 -0.1149
17312W        W33446  10.594  11.821  13.758  0.2053  0.0500  0.4425
17313W        W33447   1.381   3.007   2.910 -0.1631  0.1789 -0.1639
17314W        W33448  12.300   2.626   4.087  0.2431 -0.0050 -0.1796
17315W        W33449   7.878   3.820  13.076 -0.0103 -0.0696 -0.0968
17316W        W33450  17.270   5.940   4.210  0.0809  0.1855 -0.0990
17317W        W33451   5.143   8.171   4.090 -0.0487 -0.2327  0.0272
17318W        W33452   1.842   6.281   0.321 -0.0251 -0.1524 -0.0069
17319W        W33453  13.786  10.436   2.440  0.1323 -0.0808 -0.2867
17320W        W33454  15.268   7.729  14.893  0.0341 -0.0850 -0.0971
17321W        W33455   7.539   9.919   2.000  0.2183  0.2641 -0.0856
17322W        W33456  16.096   2.215   3.292  0.2008 -0.0073  0.4360
17323W        W33457   4.204   3.612  15.477  0.0817 -0.0068  0.1359
17324W        W33458   2.274   5.972  13.444 -0.1901 -0.3149 -0.2110
17325W        W33459  17.425   6.728  12.326  0.1827 -0.0384 -0.0628
17326W        W33460   3.452  11.107   2.186  0.1498 -0.0654  0.2736
17327W        W33461   5.028  14.483  13.109  0.2819  0.0633  0.0828
17328W        W33462   1.350   9.835  15.185 -0.0303 -0.1892 -0.1455
17329W        W33463  10.352  17.440   5.479  0.1135 -0.1661 -0.4824
17330W        W33464   3.621   2.384  15.036 -0.0669  0.2001 -0.0661
17331W        W33465  17.284  15.781  15.192 -0.1251  0.1340  0.1139
17332W        W33466  13.809  17.677   1.749  0.0451 -0.0926 -0.0348
17333W        W33467   5.788   7.441  15.291  0.0599  0.0703 -0.0454
17334W        W33468  13.891  14.976  12.621 -0.2772  0.1005  0.0172
17335W        W33469  10.497  13.488  15.800  0.1081 -0.1174  0.0668
17336W        W33470   9.591   0.505  12.054  0.1041  0.0661  0.1357
17337W        W33471   8.057   6.730  16.359  0.0431 -0.0469 -0.0880
17338W        W33472   6.528  15.166  13.595  0.2844 -0.1318 -0.0016
17339W        W33473   4.742   7.289  15.529  0.0412  0.0043  0.3146
17340W        W33474   6.003   5.082  16.564  0.4013  0.2685  0.0042
17341W        W33475   3.927  13.572  16.399  0.3916  0.1422  0.0786
17342W        W33476   7.370  16.382  11.338 -0.0179  0.0072 -0.0468
17343W        W33477   3.195  14.781   0.059  0.2081 -0.1689 -0.1384
17344W        W33478   0.942   0.088  12.594  0.0187 -0.5352 -0.2665
17345W        W33479  15.947   2.390  14.492  0.0628 -0.1288  0.2700
17346W        W33480  12.492  14.251  16.639  0.0553  0.0969 -0.0327
17347W        W33481   6.982   4.166   1.649  0.0363 -0.1742  0.0255
17348W        W33482  14.016  11.512   4.551 -0.4316  0.2807 -0.0270
17349W        W33483  10.160   6.197   6.562  0.1374 -0.0388  0.1495
17350W        W33484   5.137   7.259  10.344 -0.2266  0.2541 -0.0545
17351W        W33485   7.881  16.199  13.693  0.0305  0.1018 -0.1749
17352W        W33486  14.269   2.469  14.747 -0.0263 -0.0912 -0.1743
17353W        W33487  11.863  14.256   3.059  0.0458 -0.2614 -0.1374
17354W        W33488   6.182   6.879  14.609  0.0421 -0.2381  0.2296
17355W        W33489  11.220   3.992   6.212  0.0646  0.0560 -0.1489
17356W        W33490   9.245  15.727   2.409 -0.1718  0.1240 -0.3173
17357W        W33491   1.585   7.681  12.094  0.2913 -0.2471  0.0415
17358W        W33492  10.817  13.143   1.826  0.0170  0.3708  0.0603
17359W        W33493  17.120   4.203   3.637  0.1530  0.0433 -0.0906
17360W        W33494  15.996   0.777   1.850  0.0051  0.0366  0.0499
17361W        W33495   2.115   8.691   3.029  0.1285 -0.2538  0.0871
17362W        W33496   5.754  11.738  11.948  0.0683 -0.1846  0.3476
17363W        W33497   9.727  13.763  15.408 -0.4138  0.1714 -0.2841
17364W        W33498  13.969   6.403  10.249  0.2022  0.0825  0.1638
17365W        W33499  16.411  13.278   2.772 -0.2458 -0.1216  0.0187
17366W        W33500   7.331   2.124  13.693 -0.3006  0.1308 -0.3200
17367W        W33501  12.149   9.551  12.789 -0.0753 -0.1602  0.1371
17368W        W33502  11.871   9.578  13.679  0.2092  0.1358 -0.1064
17369W        W33503  15.864  12.180  14.962 -0.1474  0.1649  0.0875
17370W        W33504   2.574   3.876   3.141 -0.2212  0.1402  0.3357
17371W        W33505  16.221  16.996  15.900  0.2197 -0.2388  0.0712
17372W        W33506  17.282  16.668  15.420 -0.3020  0.0945 -0.4469
17373W        W33507  10.593   5.554   2.283 -0.1800  0.1060  0.0180
17374W        W33508  13.462  12.738   1.020 -0.0903 -0.0704  0.0002
17375W        W33509   9.894  15.252  15.291 -0.0478 -0.0197  0.1855
17376W        W33510   0.726   5.524  11.395 -0.2972  0.1167 -0.2931
17377W        W33511   4.390   6.122   0.361  0.3008  0.1599  0.0127
17378W        W33512   7.578   0.679   1.888 -0.2703  0.2049 -0.0313
17379W        W33513   0.502   3.505  16.558 -0.0143 -0.2675 -0.0113
17380W        W33514  11.598   1.276  15.914 -0.0532  0.0114 -0.3833
17381W        W33515   3.079  15.089   5.587 -0.1259  0.4930 -0.0928
17382W        W33516  15.276  16.733  12.310  0.0738  0.1652  0.0502
17383W        W33517  11.320  16.242   0.543  0.0114 -0.1864  0.0519
17384W        W33518  10.209   7.045  12.816  0.4850 -0.2420 -0.1254
17385W        W33519  11.522  17.067   3.212  0.2105 -0.1310 -0.1619
17386W        W33520  11.759   1.981  13.482  0.0236 -0.0953 -0.0088
17387W        W33521   2.429   7.182  12.462 -0.1370  0.1662  0.2291
17388W        W33522  17.130   0.244  15.975  0.5797 -0.0073 -0.1487
17389W        W33523   1.984   8.748   1.267 -0.2314  0.0559  0.0673
17390W        W33524  17.235   0.824  13.966  0.0461  0.1785  0.1217
17391W        W33525   2.035   4.658   5.840 -0.2215 -0.2810 -0.1214
17392W        W33526  15.896  17.870  15.834  0.4987 -0.0950 -0.2263
17393W        W33527   1.812   4.572   5.377 -0.2090  0.1425 -0.0560
17394W        W33528   5.925   7.638   6.268 -0.0066 -0.0653 -0.0993
17395W        W33529   4.161  15.575   3.946  0.0764  0.1999  0.0353
17396W        W33530  11.734   8.786   2.636 -0.1048 -0.2572 -0.1558
17397W        W33531  15.389   9.832  12.803  0.3699  0.0435  0.0957
17398W        W33532   6.142  10.632  15.880  0.1022 -0.1553 -0.0525
17399W        W33533   5.343   0.210   4.674 -0.1730  0.2916  0.0951
17400W        W33534   6.865   0.910  14.352  0.0875 -0.0839 -0.0044
17401W        W33535   9.381  17.953  14.654  0.0146  0.1618 -0.2187
17402W        W33536  10.503   7.583   2.925  0.0751  0.1237  0.2015
17403W        W33537   3.591   7.356   1.748  0.1012 -0.1458 -0.0322
17404W        W33538  12.148   0.842   1.476  0.1435  0.0245 -0.0249
17405W        W33539  15.408   3.922   2.781  0.1336 -0.0603  0.0027
17406W        W33540  11.499   6.212   2.440  0.1410 -0.1293  0.0446
17407W        W33541   9.222  11.658   1.738  0.0527 -0.0577  0.1871
17408W        W33542   0.052   0.766   0.204  0.3070 -0.2171  0.1339
17409W        W33543  17.607   4.213   1.954  0.1750  0.1823 -0.0885
17410W        W33544  16.241   1.751  14.547  0.4340  0.1153  0.1809
17411W        W33545   6.915  11.830  11.282  0.1395 -0.2785  0.1728
17412W        W33546  15.412  11.799  13.110 -0.1537  0.1715 -0.0356
17413W        W33547   3.343   6.672  14.740 -0.0682  0.3842  0.1497
17414W        W33548   6.350   6.981  13.217 -0.4009 -0.1510 -0.2115
17415W        W33549   3.272   2.792  12.959  0.0282 -0.2243  0.1151
17416W        W33550  14.597   3.628   3.687 -0.2178 -0.0193 -0.1555
17417W        W33551  10.715  12.625  13.174  0.1081 -0.1512  0.0378
17418W        W33552   4.420  16.369   0.648  0.0264 -0.1319  0.0943
17419W        W33553  14.752   5.472   2.403  0.0363  0.0549 -0.5450
17420W        W33554   6.091   5.370   5.656  0.1059  0.0502 -0.0009
17421W        W33555   6.387   5.797   5.718 -0.0859  0.0462 -0.0067
17422W        W33556  10.550   3.550  13.682 -0.1504 -0.2271 -0.3562
17423W        W33557   1.524  12.234   2.274 -0.4002  0.0032  0.2913
17424W        W33558   7.135   2.639  13.454 -0.0918 -0.3751 -0.0286
17425W        W33559  10.469  17.363   0.258  0.0240 -0.0535 -0.0364
17426W        W33560   5.452   4.839  12.686  0.2549  0.1505 -0.0744
17427W        W33561  10.360   1.743   5.488 -0.0034  0.0474  0.0330
17428W        W33562   7.970   6.051   3.350  0.0124 -0.0066 -0.0790
17429W        W33563  16.638  13.741   3.170 -0.1437 -0.3001 -0.0425
17430W        W33564  16.378   7.507   4.129  0.1860 -0.4231  0.4050
17431W        W33565  15.559   2.370   4.262  0.0503  0.0585  0.3946
17432W        W33566   8.859   2.634  12.965 -0.1012 -0.3532 -0.1053
17433W        W33567  13.659  17.100   6.123 -0.2382  0.1349 -0.0159
17434W        W33568   1.988  11.559   0.034 -0.3505  0.2720  0.0619
17435W        W33569  13.650  15.979  12.674 -0.1282  0.6920 -0.2513
17436W        W33570   7.253  10.810   4.229 -0.4378 -0.0056  0.1437
17437W        W33571   6.198   4.402   5.395  0.0419  0.0362  0.0619
17438W        W33572  15.328  14.398  12.474  0.2238 -0.0466 -0.1021
17439W        W33573   7.397   0.202   4.883  0.1309  0.0194 -0.0481
17440W        W33574  13.268  14.358   5.763 -0.3019 -0.2515 -0.1866
17441W        W33575  16.079  17.100  12.267  0.1125 -0.2102  0.3750
17442W        W33576   6.076  12.343   1.087  0.0574  0.1630 -0.1783
17443W        W33577  15.844  13.276   5.487 -0.0731 -0.0958 -0.0546
17444W        W33578   7.454   9.297   5.690  0.1470  0.1325  0.3047
17445W        W33579  11.542  13.927  16.622 -0.2106  0.0734 -0.0559
17446W        W33580  14.058   7.179   5.432  0.2961 -0.1358 -0.0625
17447W        W33581   7.054   6.524  10.671  0.1538 -0.0382 -0.0797
17448W        W33582  11.985  12.866   4.805  0.0493 -0.2287 -0.0474
17449W        W33583   9.016   6.356   4.999 -0.2347  0.3669  0.1882
17450W        W33584  10.512  15.085   0.885  0.2990  0.1966 -0.0785
17451W        W33585   5.005   2.830  13.927  0.0063  0.3080  0.1090
17452W        W33586  10.780   6.774   4.731  0.0712  0.1266  0.2603
17453W        W33587   1.874   7.742   3.909  0.0246 -0.0094  0.1062
17454W        W33588  12.865   5.373   1.902 -0.0370 -0.0417 -0.1515
17455W        W33589  16.279  14.278   0.519 -0.2042  0.2487 -0.1610
17456W        W33590   5.243  13.355  11.310  0.3068  0.4080 -0.3566
17457W        W33591  15.635   1.336  11.923  0.1320 -0.1186  0.1111
17458W        W33592   7.418  15.262  13.454 -0.0691  0.0659  0.2825
17459W        W33593   5.622   9.413  11.742 -0.1016 -0.0303  0.1137
17460W        W33594  10.688   2.792   0.051 -0.0266  0.1188  0.1072
17461W        W33595  10.426  10.382  13.109  0.0435 -0.0158 -0.1400
17462W        W33596  14.573   9.657  16.062  0.0498  0.1168 -0.1848
17463W        W33597   0.351  10.616   3.869 -0.1301 -0.2005  0.2590
17464W        W33598  17.295   2.598  14.475  0.0533 -0.2210  0.0808
17465W        W33599   5.284   5.259   1.610 -0.0929 -0.1146 -0.1642
17466W        W33600  10.766  13.578   2.565 -0.1395  0.3087 -0.1805
17467W        W33601   1.177  16.461   2.634 -0.1787  0.0874 -0.1201
17468W        W33602  11.387   7.299   0.386  0.1221 -0.3193 -0.0718
17469W        W33603   0.247   9.388  12.286  0.2012  0.1288  0.2255
17470W        W33604  12.176   8.182   0.108 -0.0817 -0.2544 -0.0871
17471W        W33605  14.227  14.181  16.301 -0.0167 -0.1512 -0.0144
17472W        W33606  15.648   5.586  13.143  0.0817 -0.0918  0.1701
17473W        W33607  17.563   8.631   0.224  0.2308  0.0021  0.1224
17474W        W33608  13.369   1.067  14.310  0.0610  0.1130  0.1152
17475W        W33609   4.546  13.076   1.280 -0.0449  0.0791 -0.2011
17476W        W33610  15.964  17.380  12.789 -0.0364  0.0028 -0.2237
17477W        W33611   4.037   7.080  11.870 -0.0445  0.2003 -0.2401
17478W        W33612   9.870   1.946  11.989  0.1869 -0.0414  0.0219
17479W        W33613   4.017  16.151   3.601 -0.1148 -0.2820  0.4063
17480W        W33614  13.785  15.539   4.693 -0.3291 -0.2710 -0.2048
17481W        W33615  17.195   4.495   2.038 -0.2570  0.1042  0.2911
17482W        W33616   6.313  17.698  13.223 -0.1021  0.0640 -0.1560
17483W        W33617   4.327   0.049  14.966 -0.0603  0.0784 -0.1876
17484W        W33618   1.024  12.132   2.383 -0.1105 -0.3014 -0.1853
17485W        W33619   0.220  10.502  13.689 -0.3006 -0.1867  0.0185
17486W        W33620  14.711  16.438  11.846  0.1256 -0.0725  0.1627
17487W        W33621   7.999   0.991   1.839  0.4333  0.1704 -0.1306
17488W        W33622   2.136   5.451  13.326  0.2057 -0.3251 -0.2441
17489W        W33623   1.033  15.876   2.047  0.1395  0.2496 -0.0053
17490W        W33624  10.001   0.625  12.710  0.2522 -0.1317 -0.2247
17491W        W33625  12.057   0.399  12.725  0.0862  0.0411 -0.2699
17492W        W33626   9.705  17.394  11.299  0.3527 -0.0857  0.0280
17493W        W33627  13.935  12.909   4.288 -0.1754 -0.1947  0.0514
17494W        W33628   8.963   2.465   3.479 -0.1365 -0.3083 -0.2686
17495W        W33629  15.153   7.721  11.440  0.0186 -0.1970  0.1693
17496W        W33630   0.825   0.455   1.262 -0.1808 -0.2289  0.1299
17497W        W33631   7.862   5.721  12.857  0.2480 -0.2607  0.0512
17498W        W33632   2.273   2.545  16.016 -0.3657  0.1395 -0.1396
17499W        W33633   9.237   7.059   3.271 -0.0675 -0.2790 -0.1390
17500W        W33634  16.242  16.484   5.908  0.1398 -0.0384  0.1597
17501W        W33635  15.651   6.649  16.452 -0.1659  0.1353  0.0046
17502W        W33636   7.633   0.487   3.858 -0.0804 -0.0984 -0.4147
17503W        W33637  12.865   7.115  13.915  0.1449 -0.4643  0.1571
17504W        W33638   8.114   1.795  12.810 -0.2831 -0.0834  0.0797
17505W        W33639   4.666  10.556   6.164 -0.0622  0.0734 -0.2517
17506W        W33640  12.709   8.454   3.496  0.0754  0.0454 -0.0066
17507W        W33641   4.210  10.527  11.963 -0.2357  0.1870 -0.1407
17508W        W33642  16.311   5.625   1.688 -0.3769  0.0815  0.1943
17509W        W33643   4.735   4.206   0.444  0.1554  0.3776  0.1960
17510W        W33644  10.765   4.188   3.693  0.1246  0.1663 -0.0801
17511W        W33645  14.145  16.056  14.965 -0.2127 -0.1720  0.0081
17512W        W33646  17.061   0.316   5.270  0.3391  0.0896 -0.1802
17513W        W33647  17.661  17.012  15.673  0.1556 -0.1514  0.0101
17514W        W33648   4.244   1.886   0.232 -0.1633  0.3700  0.1465
17515W        W33649  14.356  16.917  14.799 -0.1353 -0.2150  0.1482
17516W        W33650   6.277  13.331   2.094  0.0077 -0.3584  0.4148
17517W        W33651  17.551  12.371   3.923 -0.4051 -0.1271 -0.0732
17518W        W33652  10.500   1.698   5.019 -0.3133 -0.1582 -0.1035
17519W        W33653   9.684  12.302   4.900  0.1585  0.0712 -0.0430
17520W        W33654  10.401   7.210   5.057  0.0246 -0.0563 -0.0671
17521W        W33655   5.428  13.918   5.762 -0.2030  0.1255 -0.1703
17522W        W33656  15.912   4.568  16.048  0.1886 -0.0532  0.4420
17523W        W33657  10.737  17.354  16.431 -0.2937 -0.2162 -0.0653
17524W        W33658   1.535  13.215   0.145  0.1233 -0.2202  0.1274
17525W        W33659   3.115   8.671  16.477 -0.2500 -0.1894 -0.1833
17526W        W33660  14.878  16.308   6.152  0.1691 -0.1295 -0.0555
17527W        W33661   2.770  14.591  16.380  0.0483  0.1233 -0.0028
17528W        W33662   3.521  14.795   5.556  0.2811  0.0969 -0.0565
17529W        W33663   0.681   4.154  15.469  0.1816  0.1198  0.1375
17530W        W33664  14.399  16.969  12.722  0.1981 -0.1964  0.1204
17531W        W33665  17.184  10.451  12.262 -0.3033  0.2142 -0.3967
17532W        W33666   7.511   3.207   3.943 -0.3566 -0.0073 -0.1035
17533W        W33667   3.132   2.136   0.810 -0.1196  0.0844 -0.1076
17534W        W33668   8.344   6.700   1.911 -0.1514  0.0264  0.1324
17535W        W33669   7.199   2.503  15.126  0.0691  0.1714  0.3601
17536W        W33670  14.456   8.569  16.426 -0.3119 -0.0692 -0.1299
17537W        W33671  11.639   8.612   1.977  0.0408 -0.0424 -0.0670
17538W        W33672  12.559  12.185  16.328  0.1155  0.3364  0.1062
17539W        W33673   9.595  14.954   5.020  0.1639 -0.2363 -0.0214
17540W        W33674   9.788   9.484  15.900 -0.0358  0.2284 -0.0556
17541W        W33675  14.320   1.955   2.492  0.4857  0.1321  0.0008
17542W        W33676   8.032   0.693   2.295  0.0906 -0.0719 -0.2205
17543W        W33677   1.631  14.607   3.465  0.0877  0.0363 -0.0622
17544W        W33678   5.446  15.897  13.141 -0.2629 -0.2890 -0.0868
17545W        W33679   6.489  12.192   4.344  0.0666  0.0464  0.2339
17546W        W33680   9.218  11.629   3.826  0.3919 -0.0097  0.0161
17547W        W33681   6.634  16.512  13.023  0.1998 -0.0280  0.0272
17548W        W33682   9.107  17.930  15.681  0.1865 -0.0046 -0.1052
17549W        W33683  14.508   7.069   1.449  0.0674 -0.1823 -0.2022
17550W        W33684  10.795   9.712  13.663  0.1554  0.0678 -0.1531
17551W        W33685  17.626   9.269   3.342 -0.0600 -0.0640 -0.0742
17552W        W33686  10.045   2.081   4.160 -0.0782  0.0061 -0.0322
17553W        W33687   9.386   7.513  12.900 -0.0233  0.0897 -0.3155
17554W        W33688  11.901   9.049   1.127 -0.1319  0.1503  0.1885
17555W        W33689  11.298  10.357  15.441 -0.0705  0.1562  0.0842
17556W        W33690   0.201  12.715   3.282 -0.1741  0.2508 -0.0389
17557W        W33691   2.233  17.301   5.691 -0.1294 -0.2220 -0.1203
17558W        W33692   4.191  12.236   4.082  0.1841  0.0106  0.0898
17559W        W33693  13.545  13.472  14.055 -0.0566  0.1948  0.0582
17560W        W33694  14.272  12.179   2.888  0.1542  0.0304  0.2472
17561W        W33695  10.115   8.324  12.938 -0.0481  0.0800  0.2240
17562W        W33696  13.304  12.285   2.330 -0.0329  0.1496  0.0211
17563W        W33697   6.339  11.845   5.648 -0.1861 -0.0152 -0.1151
17564W        W33698   0.062  10.325  11.877 -0.1015  0.1673  0.0384
17565W        W33699  12.508  12.757   5.413 -0.0851 -0.1861  0.1950
17566W        W33700   0.170   6.590  11.734 -0.1850 -0.1001 -0.2276
17567W        W33701  11.181   6.081  16.062 -0.0104  0.0247 -0.1146
17568W        W33702  13.022  17.850  11.724 -0.3860 -0.0874  0.1926
17569W        W33703   7.579   1.386  11.853 -0.3685 -0.3009 -0.3714
17570W        W33704  16.785  13.161  15.965 -0.1263 -0.2370  0.2236
17571W        W33705   0.963   1.007  16.560  0.3547  0.5689 -0.0100
17572W        W33706  17.759  16.782  13.030 -0.0667  0.0056  0.0622
17573W        W33707   3.458   3.697  13.874  0.0323 -0.3057 -0.1651
17574W        W33708  11.539   5.143   0.136 -0.1840  0.0405 -0.0925
17575W        W33709   2.281   4.934   1.777 -0.2540 -0.1144 -0.1287
17576W        W33710   1.364  17.080  14.236  0.2063  0.2984  0.2076
17577W        W33711  12.334   0.535  14.894 -0.1556 -0.4572 -0.0010
17578W        W33712   9.982  10.008  15.286  0.0032 -0.1757 -0.3296
17579W        W33713   6.292  12.620   2.305 -0.2137  0.0476 -0.0967
17580W        W33714   0.291   2.429   5.405  0.0197 -0.1524 -0.0208
17581W        W33715  12.710  14.391  14.010 -0.3806 -0.0021 -0.1574
17582W        W33716  17.445   2.000  16.544 -0.2863  0.0682  0.0437
17583W        W33717   3.255   4.681  16.153 -0.0672 -0.0601  0.1790
17584W        W33718   3.826   8.618  14.311  0.3375 -0.2110  0.1767
17585W        W33719   8.045   6.809   0.844 -0.1068 -0.0824  0.0387
17586W        W33720  17.381   0.114   4.782 -0.0448 -0.0864  0.2394
17587W        W33721   3.318   4.207  14.273  0.1435 -0.1275 -0.0831
17588W        W33722  16.600   9.644  16.396 -0.1221  0.1076  0.1591
17589W        W33723  10.276  17.474   1.899  0.0343 -0.1797  0.0643
17590W        W33724   1.449  10.516  12.045  0.1446 -0.1689  0.0712
17591W        W33725   6.018   2.010   1.618  0.1991  0.0645  0.1489
17592W        W33726   5.827  14.380   2.938  0.0076  0.1256 -0.0943
17593W        W33727   1.380   0.432  13.516 -0.0119 -0.2342  0.0694
17594W        W33728   7.354  11.745  14.130  0.0065  0.2074 -0.0993
17595W        W33729   7.869   1.643   1.252  0.0411  0.1782 -0.0269
17596W        W33730   9.009  15.206  14.503 -0.0537  0.3427  0.0172
17597W        W33731  16.434  11.102   5.382  0.1006 -0.1985 -0.1864
17598W        W33732  15.498   1.975   4.619  0.2309  0.1172  0.2415
17599W        W33733  10.540  13.141   4.265 -0.2553  0.0460 -0.2085
17600W        W33734   9.460   6.133  16.707 -0.0345 -0.2929  0.1066
17601W        W33735  17.543  14.324   4.623 -0.0338 -0.0425  0.0132
17602W        W33736   4.933   8.783  16.658  0.2127 -0.1154  0.0186
17603W        W33737  17.601   8.122   3.987  0.4019 -0.1334 -0.0376
17604W        W33738  10.074   4.728  14.545  0.4828  0.0512  0.0365
17605W        W33739   9.165   3.947  15.331 -0.2716 -0.0161  0.1434
17606W        W33740   0.519  14.028   2.767 -0.1715 -0.1058 -0.2209
17607W        W33741   5.749   3.724   3.335  0.2964 -0.2534 -0.1812
17608W        W33742  14.244   5.886   0.302  0.0362 -0.0818 -0.0094
17609W        W33743  17.926   5.118  15.876  0.0889  0.0687 -0.1628
17610W        W33744   4.235   8.797  15.851 -0.1267  0.0098 -0.1902
17611W        W33745  16.550  15.035   3.238 -0.0136  0.5437  0.0420
17612W        W33746   3.783  14.741  16.261  0.2450  0.1168  0.1650
17613W        W33747   5.342   6.487  12.385  0.0605 -0.0877  0.1076
17614W        W33748   1.027   3.109   1.545  0.1932 -0.1270 -0.0954
17615W        W33749   2.044   8.015  12.037  0.1427 -0.0098 -0.0716
17616W        W33750  15.960   5.111  14.309  0.3368 -0.1766 -0.0612
17617W        W33751   4.479   6.684   2.848 -0.1877  0.1305  0.2046
17618W        W33752  11.267  17.462  13.124 -0.0085 -0.1656  0.2197
17619W        W33753  13.374  11.782  13.219  0.1941 -0.2996  0.1531
17620W        W33754  16.922   3.058   2.600 -0.0825 -0.4632  0.1412
17621W        W33755  16.985  14.181  16.673 -0.4168  0.0492  0.0643
17622W        W33756   8.892  14.375  11.284  0.0416 -0.1313  0.0976
17623W        W33757  15.858   1.503  11.079  0.2015 -0.0780 -0.0230
17624W        W33758   2.655  12.504  12.588  0.2272 -0.0448 -0.0686
17625W        W33759   9.756   0.194   0.462  0.0653 -0.0907 -0.0081
17626W        W33760   3.809   4.754  13.340 -0.1720  0.1186 -0.0497
17627W        W33761   0.442   0.751   1.533  0.2128 -0.3052 -0.2829
17628W        W33762  11.433  17.127   0.052  0.1283  0.1228  0.4389
17629W        W33763   5.575  14.177  13.129  0.4517 -0.2046 -0.1639
17630W        W33764  10.750   1.575   1.336  0.4034  0.2372  0.0234
17631W        W33765   1.452   1.331  10.098 -0.0490  0.2953 -0.3799
17632W        W33766  11.320   8.621   2.443 -0.0003 -0.1508 -0.1030
17633W        W33767  15.347   8.453  13.138 -0.2018  0.0471 -0.3008
17634W        W33768   2.396   6.695  16.540 -0.2387 -0.0454  0.2815
17635W        W33769   4.275  17.263  13.821 -0.0426 -0.2231 -0.0563
17636W        W33770   6.707   0.008   5.354  0.3969  0.0604  0.2617
17637W        W33771   4.494   0.319   0.355  0.1032 -0.1242 -0.3423
17638W        W33772   4.321  13.620  15.202  0.1515 -0.1332  0.2095
17639W        W33773   4.095  10.202   5.700 -0.0653  0.2553  0.0851
17640W        W33774   8.470   3.445   6.115 -0.0359 -0.1056  0.1108
17641W        W33775  13.229  10.677   0.130  0.0439  0.0279  0.1188
17642W        W33776   4.010  15.669   1.807  0.0175  0.3982  0.4022
17643W        W33777  10.139   7.691   2.550  0.2948 -0.2184  0.3335
17644W        W33778   1.231   7.725   0.168  0.3787 -0.0245  0.0964
17645W        W33779   0.223   4.882   1.631  0.2679  0.1074  0.1004
17646W        W33780  15.612  15.796  15.910 -0.1514  0.0589 -0.4876
17647W        W33781  12.904   8.641   2.151  0.1225  0.1711 -0.0601
17648W        W33782  14.068   9.350  16.223  0.2610  0.2751 -0.0468
17649W        W33783  11.392   1.628   6.138  0.1043  0.1552  0.2746
17650W        W33784  14.996  16.817   0.831 -0.3329 -0.4152 -0.0913
17651W        W33785   3.950   9.601   2.998 -0.0693  0.2558 -0.1262
17652W        W33786  11.617   4.805   5.038 -0.0940 -0.3703  0.0130
17653W        W33787  12.592  13.178  14.817 -0.2034 -0.1613  0.3637
17654W        W33788   1.982  12.110  14.506 -0.3297 -0.0582 -0.1800
17655W        W33789   2.859   8.265  16.355  0.4105  0.2187  0.1338
17656W        W33790   8.184   6.667  12.065 -0.1083 -0.0383 -0.0189
17657W        W33791   0.516   7.229   5.744 -0.1227 -0.3392 -0.0702
17658W        W33792   5.791  10.233  14.373 -0.1459 -0.0530  0.2935
17659W        W33793  15.162   5.296   5.325 -0.1852 -0.0018  0.2078
17660W        W33794   7.550   1.556  10.742 -0.2215 -0.1292 -0.1390
17661W        W33795  13.242  11.411   2.140  0.0750 -0.2992  0.0448
17662W        W33796  13.202   2.453  13.336 -0.0860 -0.0477 -0.1943
17663W        W33797   4.933   4.813   1.433 -0.3418 -0.0887  0.1937
17664W        W33798   6.183   1.994   3.028 -0.1875  0.0342 -0.2448
17665W        W33799   5.839   1.798   5.337  0.1686 -0.1709 -0.0063
17666W        W33800   8.708  14.441   2.096  0.1026 -0.1146 -0.3807
17667W        W33801   5.473  17.333   4.954 -0.1866  0.2202 -0.0008
17668W        W33802  11.450   4.703   0.955  0.0096  0.0103  0.2784
17669W        W33803   5.534   1.385   5.344 -0.2132 -0.2949  0.4267
17670W        W33804   8.165  10.613   5.295  0.0720 -0.0348 -0.2354
17671W        W33805   4.198  12.701   3.792  0.1822 -0.0056  0.2360
17672W        W33806   8.186   0.715  11.839 -0.0449  0.1844 -0.0050
17673W        W33807  14.781   6.156   1.185  0.0524 -0.0881  0.1236
17674W        W33808  10.370  16.895  12.400 -0.2458  0.1231 -0.1745
17675W        W33809   4.440   1.606   3.919 -0.1294  0.1428 -0.0142
17676W        W33810  12.753   1.457  15.266  0.1084 -0.1850 -0.2886
17677W        W33811  14.368   4.487  11.895 -0.0544 -0.3346  0.0365
17678W        W33812  13.154  12.787  16.437  0.0001 -0.2385  0.1552
17679W        W33813  15.651   5.516  14.545  0.2528 -0.2029 -0.1705
17680W        W33814   4.676  10.492  15.237  0.3739 -0.0162  0.2000
17681W        W33815  13.992   7.870  16.275 -0.1456  0.1550  0.0620
17682W        W33816   5.194   3.272   2.527 -0.0586 -0.3877  0.0912
17683W        W33817  15.180   4.529  16.643 -0.1345 -0.0021  0.1058
17684W        W33818   4.655  14.767   1.793  0.1081 -0.0105 -0.0742
17685W        W33819  14.857   4.428  11.742  0.1553 -0.0745 -0.0134
17686W        W33820  12.010  13.332  16.206  0.0561  0.0940  0.1098
17687W        W33821  12.570   3.875   1.753  0.2616 -0.0668  0.0800
17688W        W33822   6.428  17.299  12.590 -0.1312  0.3527  0.3069
17689W        W33823  17.748   4.517   3.542  0.2070  0.0215 -0.1327
17690W        W33824  15.884  13.863  11.779  0.2578 -0.0032 -0.2370
17691W        W33825  15.773   0.293  11.864  0.0599 -0.0711  0.0967
17692W        W33826   1.926  12.109  13.857  0.0746 -0.0459  0.2820
17693W        W33827   0.960  17.287   2.195 -0.2138  0.0247 -0.0275
17694W        W33828   3.947  17.407  16.710  0.0620  0.1295 -0.1372
17695W        W33829  15.487  15.178   2.969 -0.0946 -0.1054  0.0537
17696W        W33830  16.775   1.982   1.051 -0.1019  0.0729 -0.4474
17697W        W33831  12.429   8.730  12.517  0.0368  0.0581 -0.0809
17698W        W33832  10.815   3.042   2.786 -0.2201 -0.0050  0.0620
17699W        W33833   9.789   1.411   2.467 -0.0255  0.1968 -0.3103
17700W        W33834   7.538  10.460   0.519  0.1478  0.2872  0.0166
17701W        W33835  14.127   9.342  12.303 -0.2383  0.3569 -0.3294
17702W        W33836   0.288  16.840   1.177  0.2616 -0.1298 -0.0375
17703W        W33837   9.192   4.195  14.896  0.1339  0.0049  0.0109
17704W        W33838   5.966   9.613  11.418 -0.1869  0.2175 -0.3056
17705W        W33839   2.941   2.580   5.011 -0.0946  0.0976 -0.0939
17706W        W33840  10.175  14.257  16.306  0.1401 -0.0122  0.0392
17707W        W33841   6.595   1.012  15.063  0.0258 -0.2470 -0.0022
17708W        W33842  12.764   2.485   4.358 -0.2111  0.2046 -0.3171
17709W        W33843   0.888   1.182  11.713  0.2484  0.2355  0.0385
17710W        W33844  12.244   6.134  12.823  0.1252 -0.0589  0.0159
17711W        W33845   1.765  11.370  14.470  0.0777 -0.1258  0.2323
17712W        W33846   4.737  16.166   0.300  0.2974  0.0165  0.0174
17713W        W33847   3.442  15.198  14.276 -0.0454  0.1754  0.0180
17714W        W33848  13.938   7.661   5.338 -0.0013 -0.0897  0.0900
17715W        W33849  16.267   1.173   0.045 -0.1320  0.0954 -0.2959
17716W        W33850   4.106  10.309   0.323 -0.0103 -0.2673 -0.2074
17717W        W33851   9.803   8.740   3.492 -0.0230  0.1873 -0.0682
17718W        W33852  12.492   5.241  12.101  0.2147 -0.4023 -0.0781
17719W        W33853   0.471   7.401  15.230  0.1543 -0.2014  0.0938
17720W        W33854   7.744  10.197  15.122 -0.2656 -0.0779 -0.0827
17721W        W33855   1.582  10.665  16.577  0.0986  0.1193 -0.2098
17722W        W33856   5.052  13.440  14.946  0.1122 -0.1484  0.0803
17723W        W33857  17.104   8.518   2.928  0.2363  0.1386 -0.1591
17724W        W33858  15.277   9.224  16.468  0.0970 -0.0710 -0.1430
17725W        W33859   2.857   0.950  14.408 -0.1741  0.1425  0.0279
17726W        W33860   9.706   1.617   1.954 -0.0880  0.3142 -0.2416
17727W        W33861   8.855   1.481  14.159 -0.2133 -0.2841 -0.0546
17728W        W33862   7.800  10.639  15.916 -0.0810  0.2910 -0.2521
17729W        W33863   3.707  11.048  15.431  0.0066  0.0940  0.1782
17730W        W33864  12.340   2.934  11.844  0.2200 -0.0661  0.0909
17731W        W33865   5.864  13.606   5.119  0.1067  0.0823  0.0860
17732W        W33866  13.977   1.415   2.573  0.0050 -0.2376  0.1122
17733W        W33867   2.228  11.599   2.974 -0.0327 -0.3447 -0.2498
17734W        W33868  13.645  17.171  13.438  0.0293  0.3639  0.0454
17735W        W33869  17.665  15.677  14.868 -0.1163 -0.1358  0.3093
17736W        W33870  11.845   6.755  14.508 -0.1819  0.0724 -0.3735
17737W        W33871  14.962   5.292  13.028 -0.4351 -0.0009  0.1370
17738W        W33872  12.638   9.574   2.377 -0.0904  0.3123  0.0762
17739W        W33873  12.644  11.192   4.836 -0.1096 -0.1404  0.0956
17740W        W33874   6.534  16.366   4.289 -0.3303 -0.0717 -0.0956
17741W        W33875   4.970  16.536  15.707 -0.2893  0.1158  0.3357
17742W        W33876   6.286  13.865   5.298  0.1511 -0.0783 -0.0089
17743W        W33877  11.802   2.612   3.925 -0.2514 -0.0289  0.2436
17744W        W33878  10.302  16.098  15.586 -0.0036 -0.0961 -0.2485
17745W        W33879  12.033   7.104  11.302 -0.0848  0.0238 -0.0886
17746W        W33880   4.793  16.777  11.951 -0.2047 -0.0133 -0.0224
17747W        W33881   5.231  13.458   3.998  0.4467  0.5139  0.1067
17748W        W33882  13.382   0.760  14.744  0.2019  0.5976 -0.2666
17749W        W33883   0.943  17.937  14.093  0.2077  0.0330  0.1866
17750W        W33884   6.750  17.550  11.690  0.0000 -0.0578 -0.1920
17751W        W33885  10.328   3.394   4.786 -0.0417 -0.0769  0.1461
17752W        W33886   4.561  10.331   3.252 -0.0126 -0.5160  0.0172
17753W        W33887   4.862  15.429   4.703  0.2097 -0.1995 -0.1738
17754W        W33888   6.241   4.691  13.233  0.1082 -0.1171  0.1088
17755W        W33889   2.214   4.566  15.368  0.1877  0.1811 -0.0446
17756W        W33890   1.414   0.032  13.866  0.2101 -0.0493 -0.0325
17757W        W33891  15.565  17.694   5.969  0.2210 -0.2851 -0.0794
17758W        W33892  14.779  10.590  12.585 -0.1795  0.2418 -0.1273
17759W        W33893  14.427  11.240   2.377 -0.0157 -0.0129 -0.2411
17760W        W33894   8.187   3.822   1.218  0.7585  0.1347 -0.1226
17761W        W33895   7.277  10.513   5.541 -0.0301  0.0777 -0.0696
17762W        W33896   2.015   8.384   5.771 -0.4981  0.1268 -0.1555
17763W        W33897   8.886   5.544  13.074 -0.1331 -0.1695  0.2043
17764W        W33898  10.803  12.311   0.600 -0.4336  0.0262 -0.0746
17765W        W33899  16.249  12.561   4.246  0.1968 -0.1606 -0.0988
17766W        W33900  11.306   8.449  13.277 -0.1439  0.0293  0.4295
17767W        W33901   5.089   4.130   6.408 -0.0409 -0.2765  0.0457
17768W        W33902   7.174   9.759   5.736  0.2667  0.2093 -0.1720
17769W        W33903  10.401   8.932   0.055 -0.1194  0.2837  0.0460
17770W        W33904  15.724  14.370   3.264  0.3819 -0.0378  0.1014
17771W        W33905   2.888   4.449   3.958 -0.4770  0.0893 -0.2161
17772W        W33906  13.373   5.062   1.971 -0.1648 -0.2109  0.0116
17773W        W33907   8.721  16.378   2.794 -0.2520 -0.1882  0.1198
17774W        W33908  16.788  11.854   3.622  0.0760 -0.1914  0.0103
17775W        W33909   1.055  11.178  16.666 -0.0349 -0.1897  0.3020
17776W        W33910   1.275   3.431  13.607 -0.1022 -0.0823  0.0388
17777W        W33911  11.369   9.992  11.338  0.2635  0.0957 -0.1199
17778W        W33912  10.447  15.022   4.621 -0.0309 -0.1344 -0.2861
17779W        W33913   7.145  10.113  15.393  0.0245 -0.2715 -0.0451
17780W        W33914  13.139   7.771   1.649 -0.1309  0.1636 -0.2958
17781W        W33915  11.786   2.003   3.898  0.2725 -0.0087 -0.1907
17782W        W33916  14.741   0.906   2.467 -0.4917  0.0175  0.1868
17783W        W33917   1.375   3.699   3.369  0.0828  0.0135  0.0158
17784W        W33918  11.567  10.646  15.170  0.2038 -0.2355  0.0105
17785W        W33919  11.531  13.536   2.199 -0.1281 -0.3792 -0.0066
17786W        W33920   4.899  17.788   3.758 -0.2007  0.2042 -0.0380
17787W        W33921   2.348   8.270   4.962  0.0680 -0.1158  0.2281
17788W        W33922  10.330  13.955  15.901  0.0477  0.1002 -0.1032
17789W        W33923   2.466  11.889  11.916  0.5037 -0.0986 -0.0003
17790W        W33924   2.570   1.246   0.375  0.1333 -0.2704 -0.0267
17791W        W33925  13.008   9.159  16.299 -0.2001 -0.2670  0.2276
17792W        W33926  14.887  17.351  14.448 -0.1009 -0.0247  0.0426
17793W        W33927   5.771  17.001  13.234  0.0882  0.1281 -0.0356
17794W        W33928   7.902   3.677  14.171  0.4416 -0.1651 -0.3802
17795W        W33929  14.298  14.186   5.455 -0.0722 -0.0265  0.2179
17796W        W33930   2.265   5.323  14.228 -0.1760 -0.0748  0.1708
17797W        W33931  11.303   0.847  12.855  0.3153  0.0944  0.1451
17798W        W33932   1.278   4.971   3.185  0.0877 -0.1348 -0.0076
17799W        W33933  11.944   2.040  12.175  0.1432  0.1824  0.3411
17800W        W33934  14.124   6.484  12.594  0.1141 -0.0047 -0.1914
17801W        W33935  12.874  10.005   2.270  0.0824 -0.4009 -0.0889
17802W        W33936  10.844   9.500   1.538 -0.1986  0.0767 -0.0341
17803W        W33937   0.649  16.411   0.484 -0.0814  0.1755  0.1335
17804W        W33938  10.842   2.091   2.630 -0.0543  0.1142 -0.1612
17805W        W33939  12.829  17.629   3.778  0.3459 -0.2128 -0.0208
17806W        W33940   3.337   1.317  13.420  0.0069  0.0944 -0.4525
17807W        W33941   8.538  10.647   0.986 -0.1795  0.0967 -0.2871
17808W        W33942  17.741   9.697  14.839 -0.1235 -0.2729  0.0735
17809W        W33943   3.696  17.440  14.797 -0.2857 -0.2714 -0.0004
17810W        W33944  10.357  16.847  11.406  0.2512  0.0302 -0.0152
17811W        W33945  14.238   8.189   5.694  0.1906  0.0796  0.2033
17812W        W33946  10.403   8.550  11.675 -0.2886  0.1434 -0.0939
17813W        W33947   4.024   1.965  13.130 -0.3164 -0.1686  0.4220
17814W        W33948  17.147   0.068   6.178 -0.0865  0.2971  0.0142
17815W        W33949  12.473  17.498  13.725  0.0192 -0.1594  0.2506
17816W        W33950  10.790   5.557   5.457  0.2204 -0.2291 -0.2144
17817W        W33951   4.049   6.193   4.949 -0.1615  0.4428  0.2068
17818W        W33952  13.312   8.523  16.516  0.1764 -0.0320 -0.0000
17819W        W33953  17.322  10.525  16.414 -0.0310  0.1790  0.1319
17820W        W33954   1.639  15.514  12.289  0.3867  0.5953 -0.0573
17821W        W33955   8.664   6.836   0.117 -0.0184 -0.0415  0.1793
17822W        W33956   5.405  10.960  16.326 -0.0574 -0.0996 -0.1718
17823W        W33957  16.867   0.662  11.968  0.2840  0.0378 -0.1154
17824W        W33958  16.534   1.198  13.932 -0.0617 -0.3162  0.0544
17825W        W33959   0.389   2.856  15.890  0.1670  0.3362 -0.3785
17826W        W33960  13.598  10.108  13.927  0.1176  0.1552  0.1728
17827W        W33961   8.868  10.467   5.062 -0.0752  0.0933 -0.2138
17828W        W33962  12.786  10.810   1.973  0.0511 -0.0294 -0.0369
17829W        W33963  16.400  16.207   4.685 -0.0111 -0.1082  0.0197
17830W        W33964  10.763  11.316  14.664 -0.0144  0.1079  0.3074
17831W        W33965   7.387   0.810   4.269  0.0037  0.1212  0.0564
17832W        W33966   5.610  15.081  11.454  0.4781 -0.1132 -0.2370
17833W        W33967   8.515   3.984   4.609 -0.0621 -0.2395 -0.0912
17834W        W33968   7.222  11.218  12.483  0.1172 -0.0627 -0.3693
17835W        W33969   8.409  10.644  12.411  0.1221  0.1591 -0.0991
17836W        W33970   7.416  11.860  13.328 -0.2570  0.1147 -0.1913
17837W        W33971  15.420  11.261  13.103  0.1935 -0.0023  0.0865
17838W        W33972  17.202  10.824  13.554  0.1020  0.0717 -0.0201
17839W        W33973   1.793   2.089  14.936  0.0733  0.4387 -0.3459
17840W        W33974   1.965   9.683   0.829 -0.0245  0.2802 -0.2064
17841W        W33975  10.177  12.713  12.061  0.1392  0.1368  0.2940
17842W        W33976   8.287   6.257   1.671  0.3334 -0.0988 -0.3095
17843W        W33977   8.988   4.298  13.858  0.0205  0.0574  0.2825
17844W        W33978  16.477  17.847   1.656 -0.0602 -0.2795  0.0873
17845W        W33979  10.009  12.724  11.031  0.2552 -0.0834  0.0980
17846W        W33980  13.516   4.657  12.561  0.2651 -0.0022 -0.2060
17847W        W33981  17.506  10.290   0.585  0.1052 -0.3711  0.2407
17848W        W33982  10.997   1.992   4.067  0.0515 -0.0081  0.0188
17849W        W33983   1.838  16.419   1.798  0.2655 -0.0074  0.2512
17850W        W33984   2.882   2.405   3.825 -0.4621 -0.0455 -0.0624
17851W        W33985  13.748   0.055  11.301 -0.2000 -0.0656  0.1623
17852W        W33986   7.716  13.802  11.341 -0.1013 -0.1485 -0.1282
17853W        W33987  12.680  15.474   0.730 -0.1953  0.1354  0.1616
17854W        W33988   9.205   0.282  16.485  0.1260 -0.0679 -0.2325
17855W        W33989  15.172   1.962  13.120  0.3302 -0.2564 -0.0590
17856W        W33990   2.225   5.786   3.604  0.0583 -0.0059  0.0507
17857W        W33991   8.472   3.210  15.776 -0.2244 -0.0677 -0.0912
17858W        W33992   5.284   1.164   3.508  0.0785  0.0436  0.2075
17859W        W33993  11.389   0.987   3.758 -0.0294 -0.3225 -0.3448
17860W        W33994   2.992  15.020  14.252 -0.0847  0.2147 -0.0347
17861W        W33995  15.680   2.504   0.149  0.2519 -0.3608  0.0649
17862W        W33996   4.476   5.596  15.426 -0.1019 -0.1267 -0.0464
17863W        W33997  10.680  12.626  12.197 -0.2621  0.0254 -0.0531
17864W        W33998  10.148   6.585   2.499  0.0250  0.0144 -0.0358
17865W        W33999   9.529   8.224   3.554 -0.3211 -0.3293  0.2539
17866W        W34000   6.481   5.696   2.861  0.0571  0.2961 -0.0817
17867W        W34001   1.563  16.290  11.382  0.2419 -0.0968 -0.0841
17868W        W34002  14.710  17.298  11.818 -0.0269  0.3440 -0.2021
17869W        W34003  10.762   1.453  11.789 -0.2046 -0.1044 -0.1046
17870W        W34004  15.341   0.381  15.001  0.1952  0.0801 -0.1687
17871W        W34005   4.516   4.020   0.886 -0.0431 -0.0691 -0.1806
17872W        W34006  17.244  13.565  13.732 -0.2894  0.1137 -0.1447
17873W        W34007  13.260  13.245  13.722 -0.0222 -0.1216  0.0069
17874W        W34008   8.074   4.541  14.102 -0.1210  0.2019 -0.1643
17875W        W34009  17.574   8.158  13.825  0.1350 -0.0537  0.1686
17876W        W34010  17.386  17.771   1.341 -0.2066  0.0977  0.1795
17877W        W34011   9.260   8.437  13.799  0.2344  0.0064 -0.1953
17878W        W34012   8.556  15.596  13.931  0.0259 -0.1409 -0.2409
17879W        W34013  17.670   3.414  12.562  0.1837 -0.0695 -0.0792
17880W        W34014  17.148   2.774  13.071  0.0284  0.0356  0.4614
17881W        W34015   9.115   7.010   0.169 -0.4636  0.0506  0.2806
17882W        W34016  10.408  17.101  15.743  0.1086  0.4182  0.1051
17883W        W34017   9.416   6.775   2.048 -0.0383 -0.3291 -0.1270
17884W        W34018   8.531   2.656  11.762 -0.0773 -0.1814 -0.2458
17885W        W34019  10.991  13.488   0.573  0.0319  0.2851  0.0301
17886W        W34020   2.147  14.516   0.490 -0.0449  0.1437  0.2284
17887W        W34021  16.886   9.350  14.841 -0.0113  0.0414 -0.1755
17888W        W34022  15.418  10.128  11.847  0.2124  0.3809 -0.0503
17889W        W34023  10.131   9.342   4.194  0.0485  0.0747 -0.1009
17890W        W34024   8.676  13.706   1.332  0.2731  0.0113  0.1555
17891W        W34025   6.203  11.575   3.738  0.1655  0.0603 -0.0329
17892W        W34026  13.662   4.222   4.103 -0.2688  0.2461 -0.1712
17893W        W34027  14.652   0.544   0.853  0.3460  0.1359 -0.2245
17894W        W34028  14.493  11.679  16.388 -0.3931 -0.0835 -0.1889
17895W        W34029   6.057  11.558   4.634  0.1746  0.0102 -0.1333
17896W        W34030   9.747  13.374  10.003 -0.1563 -0.0151  0.0905
17897W        W34031   2.996  12.497   6.050  0.0834 -0.0708 -0.1735
17898W        W34032   1.972   8.037   1.757 -0.1200  0.1286  0.2166
17899W        W34033  12.385   0.795   4.992  0.0557  0.0220  0.1133
17900W        W34034   5.933  11.772   1.132 -0.0009  0.0857  0.2353
17901W        W34035  12.991  17.216  12.314  0.1757 -0.3614  0.0160
17902W        W34036  13.614  13.917   1.039 -0.1031 -0.3177  0.2842
17903W        W34037  11.528   0.446   5.252 -0.1268  0.1117  0.0356
17904W        W34038  16.930   7.377  11.230 -0.1999  0.1247  0.1517
17905W        W34039   1.478   3.136  15.003 -0.2227 -0.0902 -0.0084
17906W        W34040   9.859   5.390   2.342 -0.2202 -0.1150  0.1115
17907W        W34041   1.314   5.324   0.046  0.1271  0.0700  0.2086
17908W        W34042   4.819  13.162  12.269  0.0043  0.0466 -0.1038
17909W        W34043  11.418  15.648   1.258  0.2196 -0.0761 -0.1139
17910W        W34044   0.865   2.863  14.457 -0.1119  0.0672  0.0229
17911W        W34045   3.636   6.542   2.988  0.2508  0.1235  0.1524
17912W        W34046   4.000  13.571   5.435 -0.1015  0.1701  0.0539
17913W        W34047   4.752   7.263  15.007 -0.0729 -0.2320  0.1613
17914W        W34048   5.454  12.997   0.622 -0.3843 -0.0188  0.2412
17915W        W34049  14.062   7.492   3.165  0.0107  0.0063  0.1475
17916W        W34050   1.585   4.772   1.277  0.0208 -0.0918  0.2036
17917W        W34051   0.160   4.735  15.576  0.2559  0.2907 -0.1450
17918W        W34052   9.536  17.722   5.344  0.0421 -0.4109  0.1818
17919W        W34053  16.268   4.209  11.816 -0.2702 -0.0216  0.0470
17920W        W34054   2.495  11.346  12.695 -0.2122  0.1903 -0.0202
17921W        W34055   8.406   2.293   1.636  0.1875  0.0559  0.1409
17922W        W34056  13.145   4.184  13.358  0.1983  0.2829  0.3362
17923W        W34057  16.023   4.078   1.029 -0.1996  0.1075 -0.3129
17924W        W34058   6.504   7.661   3.936  0.2079 -0.0036  0.1575
17925W        W34059  13.877  15.860  13.572  0.3245  0.2871  0.0083
17926W        W34060   6.352   2.900   0.309 -0.4860 -0.2435 -0.1951
17927W        W34061  13.752   5.879  12.513 -0.3536 -0.1584 -0.1243
17928W        W34062   9.978   2.315   1.217 -0.0151 -0.0939  0.3974
17929W        W34063  16.322   2.769  13.009 -0.0098 -0.0428 -0.3194
17930W        W34064   3.209   8.619   1.618  0.1097 -0.2117 -0.2593
17931W        W34065   0.995   1.354  12.164  0.3745 -0.2714 -0.0936
17932W        W34066  17.825   1.778   6.118  0.1806 -0.0377 -0.4333
17933W        W34067   5.385  15.113   0.836 -0.1813 -0.2428 -0.0146
17934W        W34068   5.103   4.014   0.767  0.0262  0.0054  0.2065
17935W        W34069   8.758  13.745   3.277 -0.0911  0.0398 -0.0358
17936W        W34070   5.858  13.995   4.302  0.1625 -0.1748  0.0924
17937W        W34071   6.336   1.725   5.497 -0.2805 -0.1291 -0.1116
17938W        W34072  17.429   9.247   0.032  0.0261 -0.1625  0.2965
17939W        W34073   2.845   9.361  12.708 -0.2735 -0.3810  0.1362
17940W        W34074   8.730   9.900  12.138 -0.1422 -0.2099  0.1034
17941W        W34075  16.851  10.369   3.903  0.0634  0.0734 -0.1454
17942W        W34076  15.966   4.832   0.364 -0.0510 -0.1056  0.2559
17943W        W34077   6.520  16.528   4.791  0.1176  0.1103  0.0217
17944W        W34078  15.459   8.650   5.143  0.1848 -0.2998 -0.0554
17945W        W34079   5.725  11.366  15.004 -0.0578  0.0127  0.0210
17946W        W34080   0.775   8.798  12.360 -0.0093  0.1949  0.1970
17947W        W34081   8.876  14.326  15.505  0.3107 -0.0256  0.1002
17948W        W34082  14.435  11.023   0.480  0.2308 -0.1295  0.1721
17949W        W34083  17.058   8.013  13.327 -0.1363 -0.0835  0.0341
17950W        W34084   5.034  14.950  16.338 -0.0631  0.0807 -0.6612
17951W        W34085   7.369  13.592   5.281 -0.0372  0.0957 -0.0467
17952W        W34086  17.247  11.530   1.702  0.1766  0.3047 -0.1193
17953W        W34087   1.184  12.156  13.765 -0.1169  0.1858  0.1625
17954W        W34088  17.960   2.094  15.646 -0.3264  0.2476  0.1891
17955W        W34089  11.962   6.822  14.003 -0.0385 -0.0030  0.2804
17956W        W34090  11.112   2.501  12.699 -0.1177  0.1774  0.0344
17957W        W34091  15.107   7.989  14.410 -0.5796  0.1126 -0.2297
17958W        W34092  15.938  12.494   2.324 -0.0973  0.3090  0.1186
17959W        W34093  12.654   7.639  12.121 -0.0239  0.0889  0.0480
17960W        W34094  17.871   9.094   0.186 -0.1185 -0.1025  0.0723
17961W        W34095   1.691   6.546   2.845 -0.3331  0.0381 -0.3667
17962W        W34096  12.318   4.667   3.790  0.0624 -0.1009  0.0107
17963W        W34097   5.753  15.214   1.809  0.3235 -0.1664  0.1509
17964W        W34098   7.462  12.032   3.422  0.1653  0.1177  0.0655
17965W        W34099   8.200   6.548  12.917  0.0509 -0.0582 -0.1332
17966W        W34100  15.974   1.713  16.648  0.1162  0.0759  0.1509
17967W        W34101  16.144   2.258   5.171  0.0005 -0.1906  0.4975
17968W        W34102   6.928  16.884   0.871 -0.1849 -0.1117 -0.0007
17969W        W34103  12.460   0.228   2.067  0.1484 -0.1293  0.1900
17970W        W34104   9.298  11.978  13.860 -0.1138 -0.1374  0.1809
17971W        W34105   1.414  16.374  15.505 -0.1161 -0.0183 -0.2542
17972W        W34106  17.095  16.261   5.917 -0.1487  0.2577 -0.0310
17973W        W34107   3.019   2.557  12.551 -0.0795  0.0907 -0.0091
17974W        W34108  17.486  16.868   4.003  0.2088 -0.2099  0.2285
17975W        W34109   4.178   2.404  13.403 -0.2737 -0.1406 -0.0894
17976W        W34110  10.201   2.982   4.502  0.0457  0.0376 -0.4028
17977W        W34111   9.309  13.230  11.300  0.0892  0.1566 -0.2393
17978W        W34112   8.510   3.738   5.346  0.3449 -0.0996 -0.1507
17979W        W34113  13.643  10.538  12.993 -0.0396  0.1563  0.0340
17980W        W34114  17.477  14.232  13.007  0.1739  0.3579  0.1733
17981W        W34115   2.128   9.371   2.630 -0.1559  0.1250  0.0831
17982W        W34116  10.409  16.565  14.272  0.1017 -0.3371  0.2145
17983W        W34117   1.640  11.396   0.534  0.2027  0.1582 -0.1903
17984W        W34118   3.183   1.138   4.907 -0.2137  0.1265 -0.1027
17985W        W34119  17.562  14.890   2.184  0.0035  0.1179  0.1325
17986W        W34120  16.175   1.223   0.558 -0.0149 -0.1304  0.1039
17987W        W34121  17.147  12.520  15.606 -0.0426 -0.0791  0.0719
17988W        W34122   3.719  11.693   5.413  0.0559  0.0477  0.2085
17989W        W34123  10.509   4.860  16.640 -0.2795 -0.1455  0.1509
17990W        W34124   8.296  14.959  11.846  0.0336 -0.3130  0.1074
17991W        W34125   7.198  12.892  14.756 -0.1432  0.0794  0.1432
17992W        W34126  10.314   3.241   1.013  0.0304 -0.0575 -0.3380
17993W        W34127  17.425   1.440  15.164 -0.2201 -0.0732  0.2961
17994W        W34128  10.429   8.178  16.253 -0.0289 -0.0891  0.2808
17995W        W34129   2.198  17.710  13.261  0.0486  0.0283  0.1155
17996W        W34130  15.743  11.702   4.350  0.0135 -0.1859  0.2525
17997W        W34131  17.532   8.564   0.733 -0.0212  0.0854 -0.1388
17998W        W34132   9.453  15.191  15.655 -0.0518  0.2443  0.1443
17999W        W34133  15.710   0.872  12.291 -0.0342 -0.0046  0.1864
18000W        W34134   3.205   1.065  11.416  0.0208 -0.3171 -0.0045
18001W        W34135   5.403  12.413   4.123  0.0401  0.4268  0.1580
18002W        W34136   7.450   5.799   3.496 -0.1318  0.0175 -0.1565
18003W        W34137  13.365   3.093  11.518 -0.2306  0.0375 -0.1042
18004W        W34138  13.839   1.509  11.622  0.1603 -0.3254  0.0589
18005W        W34139   2.687  12.101  13.361  0.1890  0.0069 -0.0180
18006W        W34140  16.622   3.989   3.808 -0.2459  0.4275  0.0084
18007W        W34141   6.516  10.708   2.592 -0.0893  0.2610  0.0865
18008W        W34142   4.374  17.513   2.670  0.1877 -0.0997  0.0327
18009W        W34143   1.365   0.579   3.981 -0.0102 -0.0130  0.1592
18010W        W34144  16.184  10.643  13.179 -0.0852 -0.1181 -0.1507
18011W        W34145   4.312   8.810  14.620 -0.0195  0.3403  0.1784
18012W        W34146   9.937   5.461   5.106 -0.2316  0.0935  0.2323
18013W        W34147  13.717   3.239  14.184 -0.1228  0.0824  0.0497
18014W        W34148   8.355   3.967  11.860  0.3066 -0.0535 -0.0203
18015W        W34149   2.476  15.382   1.815  0.2172  0.1088 -0.1557
18016W        W34150  15.334  11.028   2.600  0.2475  0.2247  0.1061
18017W        W34151  11.319  13.426   0.955  0.1668  0.5403 -0.0771
18018W        W34152   3.214   9.222   3.964 -0.2401 -0.4973 -0.2433
18019W        W34153  16.868  15.237   2.258  0.1135  0.1611 -0.1857
18020W        W34154   5.492   9.651   0.724  0.1826 -0.0932  0.3450
18021W        W34155   5.529   2.306   3.713  0.2079 -0.2231 -0.4554
18022W        W34156   1.628  13.751   3.137 -0.0465  0.0634 -0.0351
18023W        W34157   8.064   3.424   3.209  0.0765  0.3517 -0.3644
18024W        W34158   3.910   0.735  13.287  0.0462  0.1254  0.0604
18025W        W34159   8.222   3.570  12.192 -0.1903 -0.0271  0.3261
18026W        W34160  14.942   5.455   4.363 -0.3229 -0.0515 -0.0946
18027W        W34161   1.821   4.114  11.403  0.0665  0.2340 -0.0852
18028W        W34162   1.988   3.795   0.164  0.0983  0.5090 -0.3338
18029W        W34163   5.333  11.211  13.869  0.0788  0.4529  0.0310
18030W        W34164  10.705  16.839  15.308  0.2170  0.1847  0.0161
18031W        W34165   2.151   1.249  11.855  0.3189  0.0718 -0.0660
18032W        W34166  16.810   5.260   0.851 -0.0848  0.1448 -0.3055
18033W        W34167   0.475  11.455  14.798  0.0474  0.0529  0.0073
18034W        W34168  14.017  16.342  13.555 -0.1603 -0.3399 -0.0826
18035W        W34169   3.146   1.025   4.369 -0.0319  0.3729  0.0453
18036W        W34170   3.959  13.952   4.446 -0.0607 -0.1309  0.1681
18037W        W34171   2.348   5.905   4.568 -0.0061 -0.1699 -0.1686
18038W        W34172   7.699  14.604   2.194 -0.3001 -0.2480  0.3551
18039W        W34173  16.451  16.987   4.360  0.0978 -0.1667 -0.1132
18040W        W34174  17.284   3.249   4.064  0.0897  0.1129 -0.0950
18041W        W34175   8.613  15.844   4.561 -0.1207 -0.0783 -0.0840
18042W        W34176  17.168   8.241   0.898  0.2499 -0.0628 -0.1278
18043W        W34177  13.204   8.789   5.199 -0.0478  0.0695 -0.1048
18044W        W34178   6.350  16.792  15.306  0.0934  0.2756 -0.0102
18045W        W34179   9.663   7.509   2.675  0.1334  0.0994 -0.1481
18046W        W34180   2.703  12.839   2.955  0.0392 -0.1887  0.2499
18047W        W34181   2.999  11.054   5.483  0.1406  0.0438 -0.1877
18048W        W34182   0.688   1.098   4.154 -0.0470  0.0124 -0.0864
18049W        W34183   7.453  14.085   0.976  0.1600 -0.1593 -0.0116
18050W        W34184  11.604   5.966   1.857  0.1129  0.1184  0.0136
18051W        W34185  14.915   9.193  14.882 -0.0550 -0.1004 -0.2430
18052W        W34186   8.193  15.811   0.189  0.0812  0.0375  0.2266
18053W        W34187  14.540   6.558  16.564 -0.3331  0.0667 -0.1850
18054W        W34188   1.594   9.722   5.610  0.0881 -0.1698 -0.0194
18055W        W34189  10.457  11.351   0.652 -0.4029  0.1680 -0.0725
18056W        W34190  11.934   3.123  13.271 -0.2792 -0.0554 -0.1225
18057W        W34191  13.618  14.848  14.416  0.2632  0.1584  0.0849
18058W        W34192   8.974   1.967  11.548  0.2537  0.0244  0.3399
18059W        W34193   2.085  16.867   1.693  0.0879 -0.1102  0.0944
18060W        W34194   7.275  17.936   0.375 -0.1598  0.3021  0.0851
18061W        W34195  17.553   7.812   5.308  0.1899  0.2184  0.2009
18062W        W34196  16.088  11.515   2.470  0.1727  0.0074  0.2868
18063W        W34197   6.041  13.006  16.711  0.0745 -0.2939  0.0856
18064W        W34198   7.275   6.838  15.322 -0.1986 -0.3062  0.3347
18065W        W34199   5.429  17.919  11.446  0.0698 -0.2650 -0.0169
18066W        W34200   3.402  15.506  11.987  0.1404 -0.0465  0.1903
18067W        W34201   9.055  12.813   5.370 -0.0674 -0.0991 -0.0696
18068W        W34202   0.349   4.373   4.301  0.1149 -0.1052  0.0503
18069W        W34203   7.204   3.170   5.055  0.1280  0.2160  0.1812
18070W        W34204   7.791   2.727  16.195  0.0065  0.1509 -0.2291
18071W        W34205  13.165   2.864  13.596 -0.3548  0.1429  0.0433
18072W        W34206   9.764   9.216   2.469  0.2614  0.3681 -0.0550
18073W        W34207  11.944  14.294  15.151  0.0607 -0.0308  0.4085
18074W        W34208  17.945  13.943   4.746  0.0783 -0.2326 -0.2334
18075W        W34209   0.195   7.184  12.855  0.3366  0.0250  0.1136
18076W        W34210  15.133  10.266  12.853  0.2519 -0.0769  0.2433
18077W        W34211   3.471  10.433  13.198  0.0184 -0.0777  0.0550
18078W        W34212  11.546   4.124  13.200 -0.0085  0.1244 -0.0012
18079W        W34213   4.137  13.800   1.368 -0.1338  0.4121  0.1568
18080W        W34214   9.279   1.712   0.809 -0.2970 -0.0206  0.1999
18081W        W34215  11.914   8.592  11.827 -0.2251 -0.2103 -0.0108
18082W        W34216  16.322  15.253   5.388 -0.0826  0.3691  0.0736
18083W        W34217  12.858   8.938  13.309 -0.0029  0.2714 -0.0740
18084W        W34218  14.718   6.675   5.989  0.1298 -0.0526 -0.2476
18085W        W34219  13.384   1.405  15.918 -0.1102 -0.0545 -0.1693
18086W        W34220   6.392  17.058   5.629 -0.0578  0.1762 -0.3376
18087W        W34221  14.752  16.312  15.308  0.1252 -0.2980  0.0444
18088W        W34222  16.083   4.883   3.185 -0.0641  0.0358 -0.0018
18089W        W34223  16.696   6.729  15.190 -0.1967  0.2008 -0.2735
18090W        W34224  14.733  17.749   1.979 -0.0090 -0.0392 -0.3800
18091W        W34225  16.727  17.141   3.607 -0.0158  0.1235  0.1835
18092W        W34226   8.560  14.622  13.664 -0.0100  0.2598  0.0679
18093W        W34227   9.934  11.045  15.575 -0.0433 -0.0444  0.0259
18094W        W34228  10.569   3.911   0.380  0.0800 -0.0668  0.1056
18095W        W34229   7.602  15.849  13.469 -0.0402  0.1972 -0.1045
18096W        W34230  13.112  13.023  13.279  0.1482 -0.1631 -0.0682
18097W        W34231   7.518   3.573  13.276  0.2398  0.0663  0.0856
18098W        W34232   2.187  14.952  13.432 -0.1474  0.0565 -0.2069
18099W        W34233   4.156   6.112   4.379  0.1464 -0.2053 -0.0595
18100W        W34234  11.154   5.446   3.866 -0.2825  0.2218  0.0597
18101W        W34235  10.146  17.939   4.664 -0.0532 -0.1715 -0.0304
18102W        W34236  13.859  12.387   4.215 -0.0909 -0.0759 -0.0538
18103W        W34237   0.454  15.077   1.775 -0.0216  0.0647 -0.2290
18104W        W34238   5.576   7.329  14.004 -0.0922  0.2503 -0.0653
18105W        W34239   1.282  11.784  15.118 -0.1266  0.2360 -0.1524
18106W        W34240   7.118   7.182   3.811  0.0807  0.2347 -0.0133
18107W        W34241   9.618   3.971  14.672  0.2616 -0.1297  0.0536
18108W        W34242   0.768  13.790   5.454  0.1951  0.0661  0.3294
18109W        W34243   1.108   7.503  10.546  0.3933 -0.4188 -0.4087
18110W        W34244   8.653   5.515  14.544  0.1463  0.0884 -0.0462
18111W        W34245   1.981   1.191  13.800  0.1511  0.2820  0.2431
18112W        W34246   4.819  12.782   5.060 -0.0594 -0.1985  0.3497
18113W        W34247   3.244   0.176  14.955 -0.2815  0.1027 -0.0497
18114W        W34248  11.522   1.501   1.984 -0.1465  0.2521 -0.1574
18115W        W34249  15.919  11.162   5.471 -0.1488  0.0655 -0.1510
18116W        W34250  11.463   5.473  11.881  0.0196  0.2408 -0.0560
18117W        W34251  16.842  14.594   2.527  0.0662 -0.3252  0.2516
18118W        W34252   4.409   0.222  13.589 -0.1582 -0.3309 -0.0772
18119W        W34253   5.313  12.991  13.879 -0.3203 -0.2564 -0.2827
18120W        W34254   1.787   0.807  15.498 -0.5137 -0.0983 -0.0297
18121W        W34255   6.617   8.692   5.696 -0.2151  0.0552 -0.1953
18122W        W34256   9.270   1.992   3.538 -0.2503 -0.0849  0.3921
18123W        W34257   6.164  12.883  12.905  0.3576  0.2077 -0.4524
18124W        W34258   2.997   8.743  13.294 -0.0080  0.3327  0.1618
18125W        W34259  10.498  10.641   4.035  0.3014 -0.0515  0.2976
18126W        W34260   5.139   0.565   6.344  0.2892 -0.1218 -0.0110
18127W        W34261  17.074   9.388  13.113  0.0372  0.0126 -0.0618
18128W        W34262   7.435  13.220  11.284  0.0142 -0.3831  0.1966
18129W        W34263  14.158   2.748   2.173  0.3093  0.2348  0.1739
18130W        W34264   2.135  11.459   1.831  0.1388  0.2140 -0.1699
18131W        W34265  10.416  15.307  11.721  0.2483  0.1290  0.0441
18132W        W34266  16.187  17.016  14.584  0.3859  0.1474 -0.0755
18133W        W34267  16.789   0.695  13.772  0.0594  0.1921 -0.2283
18134W        W34268   9.361   6.598   0.386 -0.0259 -0.1053  0.1465
18135W        W34269   1.371  12.874  13.509  0.2524  0.3546  0.0089
18136W        W34270  13.622   7.790   2.297  0.0764 -0.1167  0.1667
18137W        W34271   8.829   1.288  13.709 -0.1408  0.3872  0.2439
18138W        W34272   4.597  12.969  13.929 -0.0067 -0.1645 -0.3799
18139W        W34273   0.526  10.773  10.908 -0.0002  0.0353 -0.2141
18140W        W34274  16.878   6.377   5.351  0.0842  0.3492  0.0739
18141W        W34275   2.187  16.968  13.623 -0.1999  0.0742 -0.3677
18142W        W34276   7.426   5.830  14.117  0.2559 -0.2156 -0.3927
18143W        W34277   7.488  14.845  15.682  0.1546 -0.2348 -0.1505
18144W        W34278  13.763  13.307  13.552  0.1623 -0.2622 -0.1323
18145W        W34279   3.261  14.700  16.265 -0.1063 -0.0455  0.1813
18146W        W34280   3.336  16.258   5.596 -0.0398  0.5196 -0.0657
18147W        W34281  12.446   9.973  11.293  0.0882 -0.2378  0.0958
18148W        W34282  11.508  12.417   4.072  0.2209  0.1346  0.3162
18149W        W34283   3.868   5.226   5.521 -0.2620 -0.2991  0.2648
18150W        W34284  16.678  17.667  13.619 -0.0690  0.2200  0.3001
18151W        W34285  10.621   9.693  12.764 -0.0121 -0.1359  0.0699
18152W        W34286  16.580  15.960  12.998 -0.1153 -0.1357 -0.0636
18153W        W34287   1.802  10.178  15.111 -0.1334  0.1936 -0.0123
18154W        W34288  15.084  11.754  11.764 -0.0865 -0.0077 -0.0466
18155W        W34289   9.398  12.358   1.661  0.2154  0.1497  0.0221
18156W        W34290   0.538   9.887  16.605  0.3034 -0.0011 -0.0618
18157W        W34291  12.058  10.540  13.642 -0.1292  0.0484  0.0914
18158W        W34292   7.292  14.330   0.202  0.1374  0.1696  0.2921
18159W        W34293  15.075  16.390  11.500  0.1030 -0.0160 -0.2286
18160W        W34294   1.671  15.534   0.193  0.1454 -0.0808 -0.0670
18161W        W34295  12.773  16.909   3.576  0.0354 -0.0154 -0.0168
18162W        W34296  16.218  14.040   5.812  0.0821  0.2179  0.3423
18163W        W34297  10.148  15.788   2.590  0.1687  0.1587 -0.2847
18164W        W34298  12.454   2.855   0.410 -0.0768  0.0846 -0.3350
18165W        W34299  16.236   2.536   3.763  0.2525  0.0777 -0.1812
18166W        W34300   9.617   2.103   1.600  0.1578  0.0271  0.0526
18167W        W34301   2.912   7.610   0.984 -0.0287  0.0662 -0.1077
18168W        W34302  11.076   9.017   3.751 -0.0752  0.0008 -0.2429
18169W        W34303   5.558   2.587   4.112 -0.0737  0.3316  0.3337
18170W        W34304   2.870   7.751   1.495 -0.1202  0.1500 -0.0692
18171W        W34305  10.469   5.394   4.823 -0.2020 -0.2738 -0.0698
18172W        W34306  14.871  15.087  16.382 -0.0396 -0.2154  0.1005
18173W        W34307  15.368  10.033  15.005  0.0853 -0.3618 -0.2271
18174W        W34308  10.235   9.334   4.682 -0.1289 -0.3368 -0.1510
18175W        W34309  11.913  10.585   1.458 -0.0045  0.5183  0.1158
18176W        W34310   4.135  10.542   3.810  0.0727  0.1618  0.1563
18177W        W34311  13.884  12.873  16.576 -0.0656  0.1741  0.1044
18178W        W34312   3.031   1.320   0.729  0.1553 -0.0579  0.2049
18179W        W34313   4.685   3.364   2.413  0.0716  0.0042 -0.1206
18180W        W34314  12.325  14.431  14.722  0.1224  0.0388 -0.0747
18181W        W34315  15.201  12.296   4.770  0.1780  0.0755  0.4360
18182W        W34316   2.087  16.187  11.385 -0.0476  0.0514  0.0818
18183W        W34317   2.854   0.437  15.217 -0.2188 -0.0181  0.2601
18184W        W34318   4.865   8.319   1.238  0.0628  0.2292  0.3270
18185W        W34319   1.152  10.716  12.953 -0.0978  0.0649  0.0673
18186W        W34320   0.032   7.283  15.070  0.1098  0.2363 -0.0340
18187W        W34321  12.331   3.647  13.263 -0.2304 -0.2656 -0.0187
18188W        W34322   2.064  17.651  15.541 -0.3166 -0.1347 -0.0982
18189W        W34323  13.857   7.065   0.546 -0.0483  0.3459  0.0235
18190W        W34324   3.351   5.383   5.732 -0.0622 -0.0334  0.0471
18191W        W34325   7.443  15.932   2.011  0.1209  0.2237  0.2257
18192W        W34326   6.056   8.533   3.881  0.0681 -0.1408 -0.1331
18193W        W34327   9.991   5.978   5.182  0.3247  0.2005 -0.2962
18194W        W34328  10.631   9.042   4.441 -0.1568  0.1040 -0.0291
18195W        W34329   1.969   8.949  16.020 -0.1735 -0.0913  0.2827
18196W        W34330   8.314   0.677   5.319 -0.1434  0.0921  0.3005
18197W        W34331   7.737  16.588  15.893 -0.1869 -0.1753  0.2724
18198W        W34332  16.363   0.531  13.514  0.0205  0.1402  0.1450
18199W        W34333  15.214  13.003  11.709  0.0618 -0.2539  0.1898
18200W        W34334  15.174   6.745  11.476 -0.0319 -0.0281 -0.1244
18201W        W34335   2.109   1.281   0.529  0.1138  0.1618 -0.0689
18202W        W34336   0.852   5.567  12.541  0.2147  0.2068 -0.1208
18203W        W34337   2.364   3.492  16.301 -0.2307  0.0435  0.0853
18204W        W34338  13.549  17.944   4.714  0.2861  0.1616 -0.0193
18205W        W34339  12.806  10.083  16.507 -0.1017 -0.1456  0.2005
18206W        W34340   6.965   3.285   2.758  0.2059  0.1119  0.0041
18207W        W34341   3.164   0.571   1.131 -0.1473  0.0503 -0.4100
18208W        W34342  10.814   6.763   2.575  0.1263  0.2222  0.0926
18209W        W34343  13.879  11.548   0.121 -0.1029  0.0614  0.0592
18210W        W34344   6.185   0.981   2.731 -0.0145  0.0285 -0.0249
18211W        W34345   3.391  14.641  11.535  0.2087  0.1563  0.0133
18212W        W34346  12.023  12.636  15.068 -0.1782 -0.0619  0.2481
18213W        W34347   4.643  13.224  12.909 -0.0536 -0.0691 -0.0617
18214W        W34348   2.722   4.272   5.705  0.0207  0.0913  0.2505
18215W        W34349  13.803  16.710  14.918  0.1362  0.3536 -0.0430
18216W        W34350   3.827  16.543   1.785 -0.2683 -0.2237 -0.3688
18217W        W34351   7.870  15.018  12.152 -0.0163  0.2157  0.4331
18218W        W34352  12.736  10.883   0.330  0.0108  0.2669  0.1056
18219W        W34353  11.436  11.234   6.302 -0.1299  0.1482 -0.2773
18220W        W34354   3.341   8.344   0.807 -0.3018  0.2306 -0.0010
18221W        W34355  14.146  16.813   2.857  0.2478 -0.2181  0.0228
18222W        W34356   2.370   4.989   0.133  0.2766 -0.1176 -0.0526
18223W        W34357   2.370  11.858   1.976 -0.0001  0.3859 -0.0876
18224W        W34358  14.491   7.801  15.983  0.1094  0.0848  0.1785
18225W        W34359  10.120   3.514   2.766  0.1559  0.1482  0.0759
18226W        W34360   6.722  12.749   5.538 -0.2552 -0.1667  0.0698
18227W        W34361  12.198  12.568   5.781  0.0731  0.0746 -0.3473
18228W        W34362   5.343  13.265   4.926 -0.0056  0.0657 -0.1637
18229W        W34363   1.149   8.766  10.932  0.1710 -0.1027 -0.4868
18230W        W34364   9.264  11.002  12.623  0.0945 -0.1358  0.1039
18231W        W34365   2.887  14.791   5.003  0.0093  0.2134 -0.1651
18232W        W34366   3.146   6.326   0.527 -0.0286  0.0139 -0.1884
18233W        W34367  13.391  13.657   5.116  0.1824 -0.2516 -0.1345
18234W        W34368  15.683  10.262  14.143 -0.1716  0.1679 -0.1045
18235W        W34369   7.631   6.084  11.651 -0.2040  0.2369 -0.0938
18236W        W34370  10.313   6.288  16.122  0.3168  0.1461 -0.0085
18237W        W34371  10.408   6.914   2.097 -0.1543  0.0681  0.1048
18238W        W34372   8.327  15.198   1.437 -0.1187 -0.0853 -0.0821
18239W        W34373  11.091   8.104   2.529  0.0582  0.1417 -0.2962
18240W        W34374   0.583  14.901   2.589 -0.1804  0.0068  0.2806
18241W        W34375   1.776  17.321   1.839 -0.0286  0.2753  0.0331
18242W        W34376  15.540  16.157  15.533  0.0447 -0.3021 -0.0450
18243W        W34377  10.205   3.763  11.781 -0.1708 -0.1216  0.0424
18244W        W34378   5.153   3.213   4.357  0.0881 -0.2162 -0.0141
18245W        W34379   4.490   3.254  11.639  0.1685  0.1613  0.1171
18246W        W34380  15.653   5.875   4.033 -0.0467  0.1452 -0.2685
18247W        W34381  15.975  16.116  15.714  0.1403  0.1242 -0.0639
18248W        W34382  12.117   6.948   4.293 -0.0324 -0.0071 -0.0800
18249W        W34383   0.932   4.519   2.177  0.0963  0.1126 -0.0281
18250W        W34384  15.219   8.197   4.330  0.0822 -0.2691  0.2775
18251W        W34385  15.140   4.373  12.125  0.0036 -0.1621  0.1498
18252W        W34386  16.804   3.096   2.094 -0.0162  0.0362  0.0324
18253W        W34387  10.604  14.005  15.088  0.0998 -0.0531 -0.2175
18254W        W34388   2.030   5.341  16.519  0.1608  0.1152 -0.1070
18255W        W34389   3.291   5.771  13.399 -0.0396 -0.2256 -0.5047
18256W        W34390   9.279  10.796  11.950 -0.1920  0.0898  0.2879
18257W        W34391  10.934   6.261   3.905  0.3496 -0.2903 -0.0401
18258W        W34392  16.477   6.298   0.124 -0.2046  0.2490 -0.0250
18259W        W34393   2.575  17.917  13.626  0.1844  0.2448  0.0070
18260W        W34394  17.813   8.876  15.999  0.3182 -0.0215  0.1198
18261W        W34395  15.417   9.022   2.254  0.0390 -0.0483  0.1418
18262W        W34396   3.025  12.316   2.114 -0.3911 -0.1377 -0.1208
18263W        W34397   2.981  13.641   4.058 -0.2485 -0.0039 -0.1861
18264W        W34398  15.624   7.133   0.787 -0.1338 -0.0196 -0.2025
18265W        W34399  10.476   3.793   3.543  0.1770 -0.2815 -0.0107
18266W        W34400  13.096   6.452  11.602  0.1317 -0.1303 -0.0623
18267W        W34401   9.884  10.312   3.617 -0.2998  0.0055 -0.0323
18268W        W34402   7.162   5.027  12.694  0.0074 -0.0518  0.3730
18269W        W34403   4.044   7.159   3.676 -0.0833  0.2540  0.2923
18270W        W34404  13.875   9.669  13.902 -0.1918  0.0680  0.0287
18271W        W34405   0.295   7.077   3.281  0.1673 -0.0058 -0.2425
18272W        W34406  12.986  17.925   4.990  0.0288 -0.2151 -0.0160
18273W        W34407  15.123  14.239  14.603  0.1663  0.3132  0.1298
18274W        W34408  16.050  10.908   0.925 -0.2948  0.0754 -0.0117
18275W        W34409  11.513   1.925  11.961  0.0377 -0.3839  0.0247
18276W        W34410   2.430   8.890  13.067  0.1956  0.1837 -0.1445
18277W        W34411   6.467   1.564  13.757  0.0266 -0.0687 -0.2836
18278W        W34412  12.620   4.133  14.702 -0.1877  0.1099 -0.1294
18279W        W34413   3.036  14.661   3.640  0.0270 -0.0886 -0.3390
18280W        W34414  17.437  16.872   1.304  0.2836 -0.3178 -0.4332
18281W        W34415   8.902   9.936   1.760  0.1382  0.1944  0.4955
18282W        W34416  13.823  10.785   2.874  0.0690  0.3443  0.2124
18283W        W34417  13.346   9.825   1.928 -0.1438  0.0794  0.3714
18284W        W34418  14.216  17.281  11.643  0.0591 -0.2490 -0.0057
18285W        W34419   1.087  14.680   2.976  0.0233 -0.0610 -0.0951
18286W        W34420   4.905   3.801   2.244 -0.0975  0.0457  0.0811
18287W        W34421   9.289   8.110  12.637 -0.0074 -0.3513  0.1999
18288W        W34422  16.500  15.413  13.890 -0.1629 -0.1200  0.0249
18289W        W34423   4.498   4.919  16.722 -0.1727  0.1692 -0.0683
18290W        W34424   6.544   4.299   3.408  0.1986  0.0433 -0.0385
18291W        W34425   9.820  11.104  12.861  0.0878  0.0073 -0.0315
18292W        W34426  10.260  17.362  12.706  0.1077 -0.1635 -0.1596
18293W        W34427  15.809   2.600   5.129 -0.0658 -0.2918  0.5486
18294W        W34428   4.044   1.754   0.709 -0.0691  0.0374  0.0491
18295W        W34429  16.469  11.963  15.802 -0.3957  0.0106  0.2834
18296W        W34430   1.042   1.224   5.867 -0.2092  0.1252  0.1031
18297W        W34431   6.328  13.667  11.570  0.2524  0.2459 -0.3529
18298W        W34432  13.868   8.876  16.403 -0.1618 -0.2489  0.4139
18299W        W34433  12.732   7.285   4.302  0.0684 -0.2609  0.0888
18300W        W34434   9.844  14.258  12.281 -0.0450  0.0696 -0.1221
18301W        W34435  14.235   0.151   5.547 -0.0056 -0.2740  0.3533
18302W        W34436  10.354   7.407  11.413  0.0663  0.1229  0.2024
18303W        W34437  11.116  12.625   0.342  0.4391 -0.0182 -0.1573
18304W        W34438  14.190  13.663  13.901  0.0127  0.0820 -0.2238
18305W        W34439  10.132  15.625   4.506 -0.1044  0.0561 -0.0462
18306W        W34440  11.974  13.434   4.758  0.1376 -0.0611 -0.1410
18307W        W34441   6.834  12.855  16.532  0.1978 -0.3552 -0.2079
18308W        W34442   0.204   8.610   4.429  0.0609 -0.0295 -0.2101
18309W        W34443  10.587  12.414  16.511  0.0192  0.1960 -0.4648
18310W        W34444   6.626  14.844  16.155 -0.3246  0.1851 -0.2619
18311W        W34445   7.050  13.132   5.421  0.0518 -0.2579  0.3671
18312W        W34446  13.278   6.260   2.612 -0.0786 -0.1801 -0.2227
18313W        W34447   0.452   4.839   4.714 -0.0135 -0.2483 -0.1972
18314W        W34448  10.474  11.187   3.212 -0.0896  0.1519  0.2236
18315W        W34449   8.671   9.200  14.478  0.1588  0.1141  0.1447
18316W        W34450   6.712   8.115   3.626 -0.3603  0.1735  0.1873
18317W        W34451   8.124   2.129  15.955 -0.0064  0.1285  0.2735
18318W        W34452  12.482  12.714   3.923  0.0213 -0.4154 -0.2978
18319W        W34453   0.730  10.986   5.572 -0.0193 -0.0510  0.3824
18320W        W34454   3.644   8.210   4.745  0.0246 -0.2516  0.2151
18321W        W34455   7.798  11.108   4.458  0.0003  0.0140  0.0805
18322W        W34456   2.919   5.252  15.434 -0.1045  0.0897  0.0628
18323W        W34457  11.802   2.873   5.858 -0.1403  0.4196  0.0054
18324W        W34458   6.011  15.416  11.473  0.0710 -0.2892 -0.0597
18325W        W34459  10.797  15.047  14.231  0.1269 -0.2959 -0.3359
18326W        W34460   2.899  13.701  13.426  0.1521  0.0354 -0.2184
18327W        W34461   6.521   2.899  16.511  0.0135 -0.0392  0.1846
18328W        W34462  10.379  10.865   0.677  0.0112  0.0963 -0.0925
18329W        W34463   5.807   9.285   5.147  0.1012 -0.3929 -0.2506
18330W        W34464   6.481  13.518   4.855  0.1712  0.1220  0.2566
18331W        W34465  10.768  13.789  12.498  0.0367  0.1763  0.1146
18332W        W34466  16.156   8.144  16.489 -0.0243  0.0278 -0.3997
18333W        W34467   0.603   1.167   3.378  0.0913  0.1169 -0.0671
18334W        W34468  16.963  17.096  15.492 -0.2724 -0.1609 -0.0060
18335W        W34469  13.305  14.528  15.888 -0.1237  0.0156  0.1685
18336W        W34470   9.615   3.870   1.227  0.0439  0.1686  0.0438
18337W        W34471   2.876   6.644  13.753 -0.3618  0.0102 -0.2441
18338W        W34472   1.652   2.134   0.949 -0.3642 -0.1407 -0.1128
18339W        W34473  11.111   3.760  12.135 -0.2824  0.0538  0.0815
18340W        W34474  16.695  14.575  14.820 -0.1447 -0.0187 -0.0641
18341W        W34475  11.612   2.623  11.409 -0.1444 -0.0527 -0.0602
18342W        W34476  12.436  11.250   1.803 -0.0243  0.0637 -0.0578
18343W        W34477  13.998  10.238   2.888  0.3571  0.1596  0.1341
18344W        W34478  10.045  12.054   1.973  0.0912 -0.0150  0.0542
18345W        W34479   5.655  16.921  10.516 -0.2799 -0.1153  0.1697
18346W        W34480  15.330  13.411   2.125 -0.0291 -0.0837 -0.1308
18347W        W34481   4.884  14.776   3.981 -0.2157  0.1486 -0.1450
18348W        W34482   0.080   7.997   3.616 -0.1204 -0.2033  0.1817
18349W        W34483  15.250  16.664   4.043  0.0012  0.0154  0.1934
18350W        W34484  17.953  12.296   3.544 -0.0017  0.0654  0.2460
18351W        W34485   9.900  16.033   3.810 -0.3073 -0.0971  0.0180
18352W        W34486  13.133   5.031  14.516 -0.2352  0.2144 -0.0368
18353W        W34487  15.271   8.404   0.868 -0.2335  0.1485  0.3231
18354W        W34488   9.481   9.582   0.927 -0.0227  0.0541 -0.1687
18355W        W34489   2.431  15.419  13.280  0.0896  0.1381 -0.1006
18356W        W34490   6.619   9.860   5.009 -0.1660 -0.1798 -0.2634
18357W        W34491  14.283   4.595  10.582  0.0069 -0.2345 -0.2431
18358W        W34492  17.967   5.397   4.674  0.0995  0.0743 -0.3269
18359W        W34493   0.106  10.143   6.437  0.2371  0.0453  0.2004
18360W        W34494   5.586   7.566  13.225 -0.0412  0.1037  0.2049
18361W        W34495  12.770   9.843   3.729 -0.1641  0.1817 -0.0035
18362W        W34496   1.230  10.190  12.941 -0.0100 -0.0418  0.3488
18363W        W34497  12.576  11.993  13.921  0.2963 -0.3082 -0.1545
18364W        W34498  11.149   9.121   4.714  0.2011  0.0920 -0.2314
18365W        W34499  15.979  17.770  11.756  0.0084  0.2008 -0.0135
18366W        W34500   8.102   9.860   1.277 -0.0654  0.1101 -0.0362
18367W        W34501   0.423   0.121  16.325  0.0518  0.2191 -0.1682
18368W        W34502  16.258  11.090  16.409  0.0462  0.3318 -0.2918
18369W        W34503  11.517   9.574  15.272  0.0929 -0.2026  0.1652
18370W        W34504  15.178  12.450   3.922  0.0796  0.0785  0.0039
18371W        W34505   5.820   5.368  11.845 -0.0114  0.1570 -0.0154
18372W        W34506   9.750  13.240  16.212  0.1650  0.1306 -0.1446
18373W        W34507   3.098  14.144  16.235  0.2122 -0.0179  0.0555
18374W        W34508   4.029   5.213  14.903  0.3030 -0.1188 -0.1612
18375W        W34509  15.361   6.022  13.209  0.2173 -0.2720 -0.2440
18376W        W34510   3.373   2.311   4.738 -0.1416 -0.0519  0.0397
18377W        W34511   4.614   4.429   3.315 -0.1194  0.0953 -0.3114
18378W        W34512   4.690   0.869   6.419  0.1552  0.2068  0.0704
18379W        W34513  16.107   6.924   0.882 -0.0456 -0.1136  0.2594
18380W        W34514  11.887   1.589  14.624  0.1153  0.2648 -0.3035
18381W        W34515   8.227  15.915  15.419  0.0972 -0.1202  0.1018
18382W        W34516  11.811  15.697  14.607 -0.1043  0.0090 -0.0114
18383W        W34517   8.812  11.949   3.125  0.1148  0.1882 -0.1068
18384W        W34518   9.976  17.530   2.862  0.1543  0.0085 -0.4448
18385W        W34519  14.335   8.900   4.830  0.0203 -0.0741  0.0237
18386W        W34520   0.618   0.702  11.310  0.0791 -0.0471  0.2409
18387W        W34521   5.962  17.333   5.470  0.2353 -0.2627 -0.1764
18388W        W34522   8.748   0.905   5.642  0.1162  0.0934  0.0010
18389W        W34523   4.115   9.166   3.241  0.0707  0.0895 -0.2327
18390W        W34524   6.332   2.253   4.496  0.2392 -0.1230 -0.1167
18391W        W34525   9.303  17.072  13.670  0.1095  0.0746 -0.0733
18392W        W34526  14.808  12.540   1.739 -0.3232  0.1450  0.2251
18393W        W34527  12.311  14.010   3.382  0.1565 -0.1047  0.1696
18394W        W34528  12.989   4.455   5.467  0.1055 -0.0671  0.2995
18395W        W34529   6.408   2.563  12.737  0.0488  0.1082 -0.0823
18396W        W34530   6.090  11.395   0.864  0.2696 -0.0592  0.2966
18397W        W34531   3.939  14.203  11.976 -0.0349  0.1101 -0.1670
18398W        W34532   2.952  12.212   3.680 -0.2067 -0.3853  0.2346
18399W        W34533  15.793   8.673   2.335 -0.0047  0.2147  0.3325
18400W        W34534   1.528   8.026   3.160  0.3004  0.0047 -0.0953
18401W        W34535  16.824   5.954   0.382 -0.3491 -0.1247 -0.0563
18402W        W34536   8.862  16.998   1.347  0.0413 -0.0406  0.1277
18403W        W34537   2.981   9.931  14.016 -0.0748  0.1652  0.0497
18404W        W34538  14.084   0.438   1.601 -0.1477  0.0618 -0.0568
18405W        W34539  16.378   2.755  15.699  0.0771  0.0218 -0.2386
18406W        W34540  12.068   9.990  13.948  0.0609  0.0513  0.0102
18407W        W34541  11.541   0.643   3.003 -0.0347 -0.0960  0.0534
18408W        W34542   9.162  11.935  11.125 -0.0688  0.3495 -0.2999
18409W        W34543  16.304  10.863  14.921  0.1002 -0.1635  0.1916
18410W        W34544  12.391   0.523   0.958  0.1346 -0.3374  0.0158
18411W        W34545   1.383  16.318  14.234  0.0667  0.1048 -0.1828
18412W        W34546   1.278   1.490   0.248 -0.4542 -0.4147 -0.0567
18413W        W34547   2.405   6.480   4.013 -0.2497 -0.2263 -0.3513
18414W        W34548  17.600  12.824  13.359 -0.1910 -0.2086  0.3674
18415W        W34549  10.784  13.636  15.373  0.2113 -0.0933 -0.2742
18416W        W34550   9.781  14.553  12.703 -0.0650 -0.1166  0.0630
18417W        W34551  16.320  16.963   0.098 -0.0697 -0.0813  0.1573
18418W        W34552   9.724   3.125   1.638 -0.0347 -0.3318 -0.0516
18419W        W34553  12.006  10.344   4.145 -0.1885 -0.1823  0.1478
18420W        W34554  16.960   2.664   5.410  0.2894  0.1834 -0.1386
18421W        W34555  13.212   0.393   4.824 -0.3595 -0.0730  0.0610
18422W        W34556  10.157  10.081   5.068 -0.1031  0.0569  0.2392
18423W        W34557  11.619   4.050  15.608  0.1886 -0.2141  0.0231
18424W        W34558   4.901  15.684  15.928  0.0353 -0.2378  0.0117
18425W        W34559   6.176   3.771  12.264  0.0274 -0.0077 -0.1333
18426W        W34560   1.469   8.662   1.365 -0.1381 -0.0141  0.1574
18427W        W34561   2.931  16.619   3.480 -0.2344  0.1162  0.3069
18428W        W34562   9.946  10.184   0.295 -0.0889  0.1877 -0.0723
18429W        W34563  11.509   7.468   4.081 -0.0792 -0.4784  0.1998
18430W        W34564   0.662  10.341  16.353  0.4454  0.0182  0.3873
18431W        W34565   4.506   8.829   0.888 -0.1430  0.0912 -0.2469
18432W        W34566  12.462   7.880   1.611  0.1598 -0.2627 -0.1639
18433W        W34567   3.639   7.519  10.645 -0.2348 -0.1957 -0.3976
18434W        W34568  13.594   9.394  11.585  0.3514  0.0188 -0.3105
18435W        W34569   8.622   3.182   5.605  0.1168  0.1394 -0.0884
18436W        W34570   3.540   0.263   0.878 -0.1070  0.0374  0.1852
18437W        W34571  11.496  11.698   4.718  0.0678  0.2535  0.0282
18438W        W34572   4.673  14.851  14.998 -0.4261 -0.3558  0.0034
18439W        W34573  17.818  12.039  14.459  0.0733  0.1634 -0.1635
18440W        W34574   8.681  11.309  13.573  0.0408 -0.1338  0.1673
18441W        W34575   9.876   8.337   3.909 -0.2089 -0.1282  0.3282
18442W        W34576  10.726  16.537  11.451  0.1025 -0.0478  0.2802
18443W        W34577   1.930   9.982   1.863 -0.1910 -0.0607 -0.1605
18444W        W34578  14.402  10.127  16.208 -0.2189  0.0759  0.0956
18445W        W34579  15.627  12.455   2.757 -0.1483 -0.1218  0.3543
18446W        W34580   9.079   7.159  12.662 -0.2171  0.2531 -0.0329
18447W        W34581  15.426  11.027  14.769 -0.0913  0.0909  0.0633
18448W        W34582   6.787  14.669   2.831 -0.0783 -0.1433 -0.1664
18449W        W34583   5.569  14.668   0.475 -0.1651 -0.1822  0.3244
18450W        W34584   2.414   5.245   0.661 -0.0483 -0.1524 -0.4277
18451W        W34585   0.523   1.816  11.489  0.2008 -0.1055 -0.2687
18452W        W34586  17.402  14.774   1.365  0.1437 -0.1057  0.0246
18453W        W34587  13.181   9.874  13.652  0.0603  0.1609 -0.0086
18454W        W34588   0.383   5.238  14.321  0.2529 -0.1895  0.0172
18455W        W34589   0.165   0.050  13.936  0.3180 -0.0423 -0.3016
18456W        W34590  17.071   7.304   0.906 -0.1194  0.2915  0.2062
18457W        W34591  15.540  14.682  15.788 -0.2573 -0.0866 -0.1179
18458W        W34592   4.419   4.909   4.933 -0.1275  0.1861  0.1282
18459W        W34593  12.221  11.282  13.536  0.1954  0.0864 -0.2586
18460W        W34594  15.859  12.258  15.865 -0.1650  0.1828 -0.0092
18461W        W34595   9.567  12.501  10.896  0.0874 -0.0317 -0.0009
18462W        W34596   9.369  10.834   4.339 -0.1199  0.4391 -0.0280
18463W        W34597   6.973  17.508   4.738  0.0915  0.1960  0.0620
18464W        W34598   4.837  17.216   5.730 -0.2305 -0.0376  0.1830
18465W        W34599   2.418  14.550  12.355 -0.0835 -0.1490 -0.1413
18466W        W34600   0.353  15.483   0.331 -0.1727 -0.0996  0.0502
18467W        W34601  11.497   4.317   0.248  0.0806 -0.2696 -0.0347
18468W        W34602  12.146   6.382   2.980  0.1803  0.1448  0.2899
18469W        W34603   0.321   1.545   1.943  0.1030 -0.0674 -0.0557
18470W        W34604   3.357  13.686  16.344  0.1399  0.0839 -0.1707
18471W        W34605  17.836  12.455   0.058  0.3121 -0.2538 -0.3605
18472W        W34606   2.077   3.106   5.337  0.2255  0.0782 -0.3588
18473W        W34607  14.026  14.656  16.277 -0.0616  0.1133 -0.1148
18474W        W34608   2.722  17.681   2.285  0.2015 -0.0217 -0.0361
18475W        W34609   8.836  10.616   0.094  0.0595 -0.0082 -0.0628
18476W        W34610  12.005   5.278  14.896  0.1299  0.4138  0.0976
18477W        W34611  14.469   6.935  11.571 -0.0104 -0.1826 -0.1258
18478W        W34612   4.239   9.057   4.252 -0.0285 -0.2107 -0.0633
18479W        W34613   4.076  16.996   2.091  0.0506 -0.0181 -0.0366
18480W        W34614   0.209   9.603  16.225  0.0139 -0.0799 -0.0667
18481W        W34615   5.194  11.096   0.120  0.1027 -0.2676  0.1888
18482W        W34616   7.143   8.302   1.378  0.3521 -0.2636 -0.2328
18483W        W34617   8.425   4.934  14.249 -0.1087 -0.2067  0.1905
18484W        W34618   7.322  16.502   3.355 -0.5005  0.2148 -0.0441
18485W        W34619   8.723  14.172   1.659 -0.0401 -0.0098 -0.1977
18486W        W34620   7.567  17.515   0.313 -0.0345 -0.0487  0.2756
18487W        W34621   4.228   3.611  14.021 -0.0990 -0.0447  0.3152
18488W        W34622   9.121  12.376   2.913  0.0954  0.6076  0.1348
18489W        W34623  10.803  11.950   6.603 -0.0045 -0.2441 -0.1243
18490W        W34624   0.871   5.354  13.003 -0.3271  0.1396  0.0413
18491W        W34625  12.239   0.869   3.607 -0.1432  0.0738  0.1298
18492W        W34626   1.533  13.505   1.713  0.0167 -0.0921 -0.0481
18493W        W34627   0.236   8.688  16.261 -0.0687 -0.1324  0.1350
18494W        W34628  11.515  12.882   5.473  0.0667 -0.1951 -0.2868
18495W        W34629   6.312   3.274   2.460 -0.0222 -0.0723 -0.0930
18496W        W34630  11.193   7.039  13.148  0.1363 -0.0203  0.0199
18497W        W34631  12.146   5.070  15.612  0.0749 -0.2282  0.1552
18498W        W34632   6.759   9.599   5.393  0.1825  0.1427  0.1747
18499W        W34633  14.734  10.672  13.112 -0.3705  0.0966 -0.4075
18500W        W34634  13.356  11.874   3.065  0.1842  0.1051  0.0024
18501W        W34635  14.557   6.457  14.882  0.1235  0.0278  0.2371
18502W        W34636  13.344   1.933  13.116  0.1664 -0.0031  0.2641
18503W        W34637  17.039  16.759  12.164  0.2602 -0.1055 -0.0507
18504W        W34638  11.568  12.335  13.041 -0.0620  0.1385 -0.2317
18505W        W34639   1.040  11.269  15.109  0.1883  0.2299  0.1644
18506W        W34640  12.700  13.263  15.713 -0.2827  0.2499 -0.2290
18507W        W34641  17.332  11.943  14.591  0.2847  0.0751 -0.3629
18508W        W34642  17.526   0.945  14.503 -0.4106 -0.4571 -0.1219
18509W        W34643  14.066   6.216  16.246 -0.4065 -0.0657  0.0557
18510W        W34644   8.878  10.435   3.566  0.0911 -0.3178 -0.0315
18511W        W34645   5.979   2.625   4.383  0.3110  0.1050  0.5000
18512W        W34646   7.802  13.832   1.736  0.1243 -0.0241  0.0714
18513W        W34647  17.904   0.137  15.123 -0.1856 -0.1898  0.0955
18514W        W34648   0.531   8.048   3.275 -0.2200  0.2009 -0.2853
18515W        W34649  16.008   6.185   0.230  0.1443  0.1665 -0.0010
18516W        W34650   0.092   5.553  15.727 -0.0479  0.3612 -0.0766
18517W        W34651  16.303  14.771  14.578  0.1308  0.1661  0.0033
18518W        W34652   8.781  14.353   3.565 -0.2488  0.0287  0.1564
18519W        W34653   1.333   3.237   2.362  0.0333  0.0868  0.0358
18520W        W34654   7.131  10.850  11.163  0.0316  0.1415 -0.0387
18521W        W34655   6.610  17.472   1.394  0.1804 -0.3593  0.5864
18522W        W34656   0.562   2.589  12.405  0.3254  0.3032  0.2078
18523W        W34657   6.127   1.745  13.343  0.1501 -0.0173  0.0848
18524W        W34658   9.648  11.197   4.723  0.0127  0.4506 -0.0796
18525W        W34659   1.473   2.968   1.234 -0.0108  0.3064 -0.0155
18526W        W34660   1.426  11.832   0.434 -0.2448 -0.2387  0.0419
18527W        W34661  16.784  12.378   2.844 -0.0766  0.3415  0.0928
18528W        W34662   0.294   6.097  13.950  0.1000  0.0652 -0.0584
18529W        W34663   1.368   7.658  16.314  0.1198 -0.1889  0.2235
18530W        W34664   3.602   0.423  14.667 -0.0434 -0.0108 -0.0507
18531W        W34665  17.562   0.027  15.523 -0.1318 -0.1487 -0.1936
18532W        W34666  10.752  13.461   3.072  0.0472 -0.0176  0.3900
18533W        W34667   5.027   6.471  13.437  0.3845 -0.1446 -0.0304
18534W        W34668   0.867  11.976   5.740 -0.2002  0.1098  0.4017
18535W        W34669   6.833   3.021   2.259  0.1341 -0.0654  0.0996
18536W        W34670  12.066  13.255  12.041  0.0041 -0.2771  0.0089
18537W        W34671  14.086   2.640  15.882 -0.0698 -0.2085 -0.0240
18538W        W34672   8.913   9.159  12.450 -0.0683  0.0181 -0.0895
18539W        W34673   3.532   9.900  16.267 -0.0758 -0.3733  0.0185
18540W        W34674   5.370  15.206  11.951  0.0864 -0.5188  0.1592
18541W        W34675  15.433  16.527  14.551 -0.1695 -0.0712  0.0622
18542W        W34676   1.034  16.569   0.218 -0.3220  0.3197  0.0221
18543W        W34677   5.252  16.887   0.558 -0.0151 -0.1032 -0.1777
18544W        W34678  16.452  11.788   2.591  0.0421 -0.0861 -0.1274
18545W        W34679  16.102  17.399  15.709  0.1035 -0.1452  0.0530
18546W        W34680   6.505   2.223   3.351 -0.1984  0.0519  0.1781
18547W        W34681  17.532   1.433   1.351 -0.1857 -0.0062 -0.2858
18548W        W34682   7.191  16.335   2.856 -0.1511  0.2895 -0.1876
18549W        W34683   2.044  17.773   0.872  0.0487 -0.1520  0.0048
18550W        W34684   9.988   2.968   3.199  0.1119 -0.1960  0.1682
18551W        W34685   7.365  17.289  11.767  0.4381 -0.0128  0.1088
18552W        W34686   6.693   8.110   1.332  0.3910 -0.1240  0.3086
18553W        W34687  15.841   9.287  13.609  0.1825  0.0580  0.2057
18554W        W34688   7.978  14.244   1.943  0.2127  0.0774  0.0165
18555W        W34689  13.216  17.448   4.216 -0.0781 -0.1497  0.1069
18556W        W34690   5.401  15.466   1.581  0.1618  0.3902 -0.3853
18557W        W34691   1.477   1.228   2.109 -0.1692 -0.0951  0.1619
18558W        W34692  10.353   0.858   5.447  0.0637  0.0440 -0.1671
18559W        W34693   8.551  14.716  12.182  0.0838  0.1196 -0.0413
18560W        W34694   5.023   3.464   0.599  0.0526  0.2860  0.0390
18561W        W34695  15.292   8.590  13.616 -0.2220 -0.1216  0.0794
18562W        W34696  16.069   6.913   4.888  0.0013 -0.0755 -0.0364
18563W        W34697   0.723   2.739   6.151  0.1098  0.1932  0.1277
18564W        W34698   4.065  16.830  12.683 -0.2465 -0.2996  0.1026
18565W        W34699   6.949   7.642  14.689  0.0633  0.2149 -0.1161
18566W        W34700  10.458   5.699   0.901 -0.1949  0.1083 -0.3066
18567W        W34701   6.140   2.260   5.362  0.0538 -0.2737  0.0929
18568W        W34702  14.845  15.685  12.191  0.0286  0.3913  0.1176
18569W        W34703   2.987   4.229   3.038 -0.1012  0.2774 -0.0627
18570W        W34704  15.561   4.276   0.758  0.1822 -0.0744  0.1046
18571W        W34705  11.745   2.910   3.540  0.1147 -0.1884  0.0894
18572W        W34706  13.271   6.437  12.270 -0.0320 -0.4179 -0.0684
18573W        W34707   6.775   8.829   4.750 -0.1719  0.2517  0.2212
18574W        W34708   0.168  11.337   3.511  0.0904  0.1924  0.0309
18575W        W34709  10.901   1.867   3.555  0.0259 -0.1064  0.1587
18576W        W34710   8.098   2.519   3.922 -0.3515 -0.0818 -0.0453
18577W        W34711   9.596  15.189   2.964 -0.0113  0.2414 -0.0829
18578W        W34712  17.461  16.490   1.690 -0.0836  0.2516 -0.1010
18579W        W34713   6.936   1.591  16.263 -0.0366  0.1778 -0.0030
18580W        W34714  12.702   0.701  15.891 -0.1471  0.0831 -0.2138
18581W        W34715   4.257   9.215   3.775 -0.0264  0.2142 -0.0795
18582W        W34716   3.050  14.639  13.113 -0.0452  0.0276 -0.2216
18583W        W34717   9.454  12.657   6.203  0.1190 -0.0247  0.1205
18584W        W34718   0.981  15.069  12.858 -0.1967 -0.2034  0.1812
18585W        W34719  15.016   0.964   4.798  0.0246 -0.0413  0.0955
18586W        W34720   6.867   1.447   4.830 -0.0747  0.1456 -0.0990
18587W        W34721  17.019  15.933  13.256  0.1089 -0.3484 -0.0378
18588W        W34722   2.900   8.925   4.431 -0.0743 -0.1616  0.2107
18589W        W34723  11.706  14.940  11.965  0.1645  0.2492  0.0613
18590W        W34724   4.749  11.071  13.940 -0.1300  0.1365  0.0450
18591W        W34725  16.188   6.342  15.360 -0.0767  0.2564  0.2298
18592W        W34726   4.008  15.837  12.649  0.3066 -0.0435 -0.1603
18593W        W34727  10.445  10.907  12.938  0.1275  0.0321 -0.1205
18594W        W34728   1.208   6.708   2.532  0.0146 -0.0252  0.0336
18595W        W34729   5.758  16.199   4.295 -0.1554  0.0635  0.1821
18596W        W34730   2.189  13.122  13.584 -0.1469  0.2336 -0.3928
18597W        W34731   6.922  13.371   1.854 -0.0555 -0.0679 -0.0185
18598W        W34732   2.968   7.046   4.002  0.1561  0.0395 -0.3110
18599W        W34733   3.991   6.897   2.898 -0.0623  0.3279  0.0025
18600W        W34734   1.141   8.462   4.047 -0.2452 -0.4492 -0.0233
18601W        W34735   0.898  13.866   0.633 -0.0977  0.1953  0.1974
18602W        W34736   6.795  12.774   2.090  0.0450 -0.1278 -0.1892
18603W        W34737   4.216   8.299  16.220 -0.0151  0.2524 -0.1052
18604W        W34738   8.431   1.765  14.167  0.0599  0.1582 -0.1868
18605W        W34739   1.743  11.528  15.860  0.0978  0.0208 -0.1232
18606W        W34740   8.299   4.346  11.567  0.1063 -0.0621 -0.0963
18607W        W34741   2.743  10.856  14.079 -0.0749  0.2504  0.2505
18608W        W34742   1.258   1.766   3.797 -0.2187 -0.1240 -0.0783
18609W        W34743  15.401  14.867   2.095  0.0127 -0.1490  0.1320
18610W        W34744   5.809   5.962   4.315 -0.0048  0.2861  0.2632
18611W        W34745   0.764  13.022  14.862 -0.2537 -0.0126 -0.1670
18612W        W34746   4.326   7.171  13.052  0.1082  0.1700  0.3782
18613W        W34747   8.525   8.650   3.019  0.1830 -0.1520 -0.0480
18614W        W34748   3.269  15.786  16.699  0.0169  0.1348  0.0091
18615W        W34749   0.625   0.162  12.153  0.1884 -0.0148 -0.1770
18616W        W34750  15.403   1.239  16.078 -0.0458 -0.0885  0.2417
18617W        W34751  10.091   6.509  11.814 -0.0336  0.2456 -0.1389
18618W        W34752   8.544   6.617  14.214 -0.1534  0.2027 -0.2849
18619W        W34753  16.321  14.891  15.483  0.1781 -0.3204  0.0374
18620W        W34754   8.171   3.473  13.235  0.0729  0.2919  0.1738
18621W        W34755  12.975   6.462  12.709 -0.1427 -0.0603  0.0295
18622W        W34756  13.062   1.578   4.452  0.0784 -0.2248 -0.0415
18623W        W34757  13.747  17.492   4.496 -0.1487 -0.0837 -0.0767
18624W        W34758  16.645  11.666   6.123  0.0922  0.0266  0.0717
18625W        W34759  12.137   8.718  16.046 -0.3614 -0.2326  0.0646
18626W        W34760  14.494   2.820   0.833  0.3745  0.0716  0.1308
18627W        W34761  12.566   0.700  13.947 -0.1847 -0.0705  0.0113
18628W        W34762   9.665   4.543   0.987 -0.2529 -0.1028  0.0629
18629W        W34763   7.881  11.370  10.212  0.1310  0.2402  0.0720
18630W        W34764   1.220  13.772  14.764 -0.2570  0.0090 -0.1482
18631W        W34765   7.185  12.606   3.758  0.1127  0.2627 -0.3822
18632W        W34766   1.746   9.586   2.848  0.0836 -0.1342 -0.2197
18633W        W34767  13.484  12.026   1.551 -0.0761  0.2209 -0.0661
18634W        W34768   2.686   4.893   4.234 -0.0009  0.0877 -0.0262
18635W        W34769   7.825   8.728   1.959  0.1739  0.3205 -0.0290
18636W        W34770  16.191  15.511  14.285  0.0041 -0.2273 -0.0531
18637W        W34771   9.240  11.823   3.339  0.1778  0.1396 -0.0674
18638W        W34772  10.899   6.077  12.115 -0.4855  0.1946  0.3986
18639W        W34773   7.595   4.275   5.671 -0.0708 -0.1934  0.0060
18640W        W34774   6.862   9.951   3.978  0.1878 -0.1492  0.0554
18641W        W34775  16.213   0.290  15.844 -0.1394 -0.2361 -0.1109
18642W        W34776   8.313  11.126   4.483 -0.2544  0.0126  0.0387
18643W        W34777   5.945   9.925   5.455 -0.0865 -0.1889  0.1612
18644W        W34778   8.738   4.506  14.228  0.3594 -0.0923  0.1609
18645W        W34779  16.866   1.358   3.687 -0.0788  0.0604  0.0489
18646W        W34780  14.031   6.123  12.959  0.0896  0.1590  0.2193
18647W        W34781   9.370   9.015  16.015  0.2304  0.0301  0.0086
18648W        W34782   7.115  16.888  14.808 -0.2836 -0.3598  0.1599
18649W        W34783   7.485   9.884  15.886 -0.3486 -0.0132  0.1073
18650W        W34784   2.651  11.291  15.558 -0.0930  0.3398 -0.1579
18651W        W34785  15.085   4.867   3.422 -0.2127 -0.0644 -0.0025
18652W        W34786  16.007   8.092  12.696 -0.0272 -0.0218  0.0614
18653W        W34787  13.817   2.367   1.827  0.1068 -0.0057  0.1558
18654W        W34788   8.372   6.862   1.376 -0.2185  0.4635 -0.0331
18655W        W34789   3.063  11.532   1.482  0.2606  0.1458  0.2811
18656W        W34790   0.252   1.043  15.264 -0.4015 -0.0978  0.2495
18657W        W34791  13.011  12.720  14.178 -0.1286 -0.0145 -0.0835
18658W        W34792   4.097  15.008   5.462  0.1796 -0.0919  0.0170
18659W        W34793  12.234   6.926  12.996  0.0840  0.1514 -0.0688
18660W        W34794   5.836  10.451   0.776  0.3635  0.0121 -0.1075
18661W        W34795  17.821   5.308  11.875  0.2794  0.0257  0.0038
18662W        W34796  14.096   1.458  12.637  0.1517 -0.2750 -0.0630
18663W        W34797   3.792   4.285  14.452  0.2058  0.4438  0.1029
18664W        W34798   2.347  16.196  11.823  0.1022 -0.3780  0.2759
18665W        W34799  15.110  14.915   0.064 -0.0658  0.1217 -0.0557
18666W        W34800   6.435   1.158   3.664 -0.0795  0.0024  0.1135
18667W        W34801   3.081  12.587  13.239 -0.0487 -0.0926  0.0716
18668W        W34802  16.980  13.588   3.571  0.0622 -0.2065 -0.0306
18669W        W34803   8.464   2.190  13.713 -0.0310 -0.1084 -0.1415
18670W        W34804   9.298   4.437   3.023 -0.0448 -0.1264 -0.1736
18671W        W34805  17.240  15.109  12.090  0.5664 -0.1185 -0.0356
18672W        W34806   5.355  15.607   0.000  0.0928  0.1078 -0.3035
18673W        W34807  16.932  16.968   5.194 -0.0383  0.0484  0.1354
18674W        W34808   5.487   5.413  14.499 -0.2446  0.0055 -0.0834
18675W        W34809  10.852   1.471   5.285 -0.1834  0.0002  0.0505
18676W        W34810   5.557  14.774   4.664  0.4270  0.1275  0.0318
18677W        W34811   6.354   8.232  15.956 -0.2660  0.0493 -0.2598
18678W        W34812   2.331   0.315  15.008  0.0207 -0.0258  0.1207
18679W        W34813  16.232   9.794  12.017  0.0016 -0.2187  0.1555
18680W        W34814  11.282  12.946  14.567  0.1826 -0.0269  0.0332
18681W        W34815   3.862   3.781  11.864  0.3092 -0.1935  0.3202
18682W        W34816   1.327  15.751  14.326  0.0066 -0.2758  0.1274
18683W        W34817   6.055   0.923   6.152 -0.2635  0.1065  0.0562
18684W        W34818   8.720  15.059  16.159 -0.0774  0.1799  0.0067
18685W        W34819   5.421   5.960   3.937 -0.0544 -0.1559  0.0934
18686W        W34820   1.151  13.644  14.319  0.3006 -0.1168 -0.0309
18687W        W34821   6.873  11.178  15.439 -0.3262  0.0525 -0.0137
18688W        W34822   8.285   9.552  11.678  0.0993 -0.1078 -0.0532
18689W        W34823  17.115   0.697   2.894  0.2394  0.0910  0.4318
18690W        W34824   2.277   0.526  11.762 -0.2702  0.0037  0.1464
18691W        W34825  12.887   1.842  12.853  0.0300 -0.0927 -0.0309
18692W        W34826   4.620  13.612  11.992  0.0925 -0.0837 -0.1612
18693W        W34827   3.082   3.166   4.772  0.1712 -0.0394  0.0658
18694W        W34828   6.123  10.628  13.136 -0.0796  0.2012 -0.1038
18695W        W34829  13.658   9.712  15.004  0.0198  0.1607 -0.1267
18696W        W34830  16.326   7.041  13.243 -0.0565 -0.0086  0.1291
18697W        W34831   8.534   3.244  12.914 -0.0656 -0.2039  0.1014
18698W        W34832   5.697   8.633   5.595 -0.0203  0.1038 -0.0629
18699W        W34833  11.543  15.188  16.065  0.0266 -0.0734  0.0318
18700W        W34834   1.860   7.079  11.235 -0.1037 -0.2260 -0.3069
18701W        W34835   1.954  12.365   0.220  0.1209 -0.2029 -0.1200
18702W        W34836  10.303  15.185  16.401 -0.0303  0.0017 -0.0938
18703W        W34837  11.307   2.025   0.375 -0.1992  0.1484 -0.0156
18704W        W34838   2.528  10.578   2.864  0.0488  0.2636  0.0251
18705W        W34839   4.927   5.883   2.984 -0.0075 -0.0244 -0.0999
18706W        W34840   6.209  14.547   0.650 -0.2021 -0.1731  0.3241
18707W        W34841  13.207  15.858  11.737 -0.0731  0.0326  0.1051
18708W        W34842  16.449   3.991  13.698  0.1668 -0.0215  0.0792
18709W        W34843  12.366   1.028   1.025  0.1219 -0.1013 -0.0922
18710W        W34844   8.568  16.716  11.649  0.2512  0.2818 -0.0885
18711W        W34845  10.964  10.346  11.335 -0.3964  0.2506 -0.0275
18712W        W34846   5.382   7.749   4.175  0.1419  0.0311  0.0188
18713W        W34847   1.042  14.965   0.615 -0.0069  0.0407  0.0093
18714W        W34848  13.927  14.644   3.058 -0.1335  0.1882 -0.0256
18715W        W34849  12.788  14.042  11.596  0.1424  0.0050 -0.2098
18716W        W34850  17.114   4.073   2.217  0.4427 -0.0389  0.2841
18717W        W34851  14.312   3.785   4.989  0.0946 -0.1415  0.2573
18718W        W34852  16.111   7.354  14.523  0.1148 -0.0039 -0.1013
18719W        W34853  12.948   7.688  16.611 -0.2546  0.3588  0.1051
18720W        W34854   7.607   7.070  11.389 -0.0410  0.0085  0.0431
18721W        W34855   6.690   9.055  12.614  0.0838  0.1962 -0.3556
18722W        W34856  11.435  13.461   4.789  0.0723 -0.1495  0.0272
18723W        W34857   5.200  11.407  16.385 -0.0911  0.1443 -0.4565
18724W        W34858   1.549  16.569   2.262  0.0021  0.0904  0.0469
18725W        W34859  17.142   0.349   4.365  0.0026 -0.0318  0.2862
18726W        W34860  10.671  15.469  16.350 -0.1183 -0.0068  0.2958
18727W        W34861   2.586   6.306  12.385  0.0913 -0.3250  0.1218
18728W        W34862   9.972   0.280   3.267 -0.1138  0.0973 -0.0375
18729W        W34863   9.493   7.348  11.555  0.2075 -0.0551  0.3348
18730W        W34864  11.294   2.160   5.641 -0.2487 -0.0161 -0.2237
18731W        W34865   1.817  10.882  13.884 -0.2381  0.0870  0.0383
18732W        W34866   1.425   3.027  15.512  0.1375 -0.2304  0.1589
18733W        W34867  11.855  13.300   5.574  0.2450  0.1295  0.1333
18734W        W34868   7.293  11.885   0.424 -0.0324 -0.1814 -0.1962
18735W        W34869   2.257  12.391   4.866 -0.2266 -0.0151 -0.0388
18736W        W34870   6.749   5.928   4.114  0.1273 -0.4072  0.3920
18737W        W34871  14.458   2.012   0.025 -0.0594 -0.0418 -0.1228
18738W        W34872  12.854   6.001   1.501 -0.2046  0.1541 -0.0709
18739W        W34873  14.422   9.372   2.965  0.0056  0.0268  0.1804
18740W        W34874   8.191  13.825  15.237 -0.2309 -0.1977 -0.1276
18741W        W34875   5.275   9.839   3.851 -0.1626  0.0211 -0.2555
18742W        W34876   0.442   7.427  13.235 -0.0323 -0.1510 -0.0621
18743W        W34877  13.045   9.930  11.254 -0.2420  0.1467  0.2123
18744W        W34878   6.604   1.772  13.270 -0.2519 -0.0257  0.1643
18745W        W34879   3.013  13.627   0.411 -0.1280  0.1759  0.4062
18746W        W34880  10.132  10.582  16.298 -0.0956  0.4013 -0.0348
18747W        W34881   7.385  12.818   1.110  0.1875  0.0626 -0.1086
18748W        W34882   0.492  16.422   1.922  0.2101  0.3945 -0.0055
18749W        W34883  17.106  12.646  13.279 -0.0293  0.1913  0.0483
18750W        W34884  15.555  17.440   5.144 -0.0378  0.0546 -0.1594
18751W        W34885   4.697   8.860  16.069 -0.4992  0.1751  0.1064
18752W        W34886   8.813   8.873   3.363 -0.1343  0.0307 -0.1540
18753W        W34887  15.741  11.391   4.744  0.3746  0.2601  0.0142
18754W        W34888   4.228  15.000   0.122 -0.2143 -0.3106  0.0351
18755W        W34889  10.675   2.168   3.176 -0.1604  0.1994  0.2230
18756W        W34890   0.012   6.523   4.782  0.2381 -0.0651 -0.2556
18757W        W34891  13.684  15.938  14.453 -0.0482 -0.0990 -0.1484
18758W        W34892   0.430   7.597  15.715  0.3169  0.0797 -0.1518
18759W        W34893  15.934  15.515   5.080 -0.1110 -0.0447 -0.0763
18760W        W34894   7.771  10.179   0.909 -0.1283  0.0124  0.0790
18761W        W34895   8.856  16.972   3.404  0.2102  0.2033 -0.0235
18762W        W34896   6.348   8.971  15.385  0.3008 -0.3247 -0.0954
18763W        W34897   8.251  12.475  12.230  0.2461  0.1377 -0.0566
18764W        W34898   4.907  15.737  12.513  0.1695 -0.2840 -0.0607
18765W        W34899   9.205  16.257   1.348  0.0590  0.1153 -0.2504
18766W        W34900  14.614   2.217   3.253 -0.2196  0.0410 -0.1436
18767W        W34901  16.477   4.992  15.519  0.0039 -0.0672 -0.2482
18768W        W34902   8.175  15.753  12.589 -0.2628 -0.1527 -0.2927
18769W        W34903  11.375  11.578  14.555 -0.4895  0.2653 -0.1603
18770W        W34904  12.705   2.688  13.389  0.0332  0.1349 -0.2784
18771W        W34905  15.735   6.760   1.178 -0.1003  0.1369 -0.0290
18772W        W34906  11.432   4.522  14.449 -0.0100 -0.0663 -0.0249
18773W        W34907   3.193  11.573   2.905  0.1380  0.1258  0.0891
18774W        W34908  17.690  15.213   6.491 -0.0724 -0.0215 -0.0229
18775W        W34909  12.283  15.942   1.589 -0.3944  0.1609  0.1600
18776W        W34910   5.177   9.036  16.153 -0.0324  0.3470  0.1344
18777W        W34911   4.011   6.691  12.157 -0.2671 -0.0246  0.0502
18778W        W34912   4.957  13.410   1.826  0.0417  0.0993 -0.1143
18779W        W34913   1.776  13.282  14.727 -0.3609  0.1422 -0.1992
18780W        W34914  11.078  10.484   2.106  0.1122  0.0092 -0.0019
18781W        W34915   7.567  12.339   1.163 -0.2360 -0.1269  0.2236
18782W        W34916   5.693   0.806  12.278  0.1637 -0.3565 -0.0744
18783W        W34917   9.802  16.081  12.358  0.1113 -0.0267 -0.0261
18784W        W34918   5.669   1.596   1.521 -0.0091 -0.2291 -0.1107
18785W        W34919   8.278   4.834  13.673  0.2048  0.3873 -0.1952
18786W        W34920   8.138   4.165   5.648 -0.0242  0.0825 -0.0213
18787W        W34921   1.766   4.718   3.231  0.1295 -0.0886  0.0656
18788W        W34922  15.406   2.068  13.538 -0.0735 -0.3112  0.0783
18789W        W34923  15.305   3.904  13.782  0.2559  0.1212  0.0401
18790W        W34924   3.741   5.599  14.599 -0.2837  0.0862 -0.6420
18791W        W34925   4.535   5.911  15.004  0.1755 -0.0635  0.0859
18792W        W34926  17.460   3.596   4.836 -0.0843 -0.2896  0.1210
18793W        W34927   2.808   3.634  14.589  0.1334 -0.0738  0.3392
18794W        W34928  15.757   5.331  12.352  0.0411 -0.2643  0.0929
18795W        W34929  12.770   6.478  15.022  0.0492  0.2997  0.2886
18796W        W34930   5.358   5.508   3.668  0.0438 -0.2153 -0.2996
18797W        W34931  15.308  11.884   1.982  0.0610 -0.1462 -0.0352
18798W        W34932   6.774   7.548  15.211  0.0587  0.1248  0.0586
18799W        W34933  16.912   1.340  13.237 -0.2039 -0.2344 -0.0884
18800W        W34934  16.801   4.614  11.477  0.0142 -0.0011 -0.0539
18801W        W34935   6.954   9.405  12.317  0.0485  0.0549 -0.0315
18802W        W34936   2.319  16.762  16.563 -0.1836  0.0540 -0.2686
18803W        W34937   3.363   8.702   0.211 -0.0799 -0.1711 -0.2588
18804W        W34938   5.980  17.486   4.774  0.1399 -0.2345  0.1207
18805W        W34939   9.526  12.776   5.670  0.1635  0.3067  0.2319
18806W        W34940  12.683   8.942   0.990 -0.1334 -0.1463  0.3041
18807W        W34941   7.001  17.941   4.987 -0.1073  0.0667 -0.1862
18808W        W34942  13.298   5.265   3.441  0.1730 -0.1814  0.1314
18809W        W34943  15.681   4.755  16.667  0.0281  0.0286 -0.5184
18810W        W34944  11.207  16.679  15.212 -0.0713 -0.3096 -0.0115
18811W        W34945   6.993  11.419   2.780 -0.0959 -0.2726  0.0614
18812W        W34946   3.133   2.506   2.982  0.0325  0.2802  0.1761
18813W        W34947  11.198   3.992   3.912  0.0436  0.0733  0.0807
18814W        W34948  11.143  17.780  14.663  0.0014  0.0443  0.1679
18815W        W34949  17.928  12.521   4.871  0.4438 -0.1509  0.2441
18816W        W34950   8.181   7.999   3.829 -0.0677  0.1189  0.1053
18817W        W34951  14.236  15.840   4.590  0.0164 -0.0248 -0.3457
18818W        W34952  11.647  16.256  11.648  0.1910 -0.0381 -0.2173
18819W        W34953   3.547   1.184  15.978  0.1498 -0.1214 -0.0907
18820W        W34954  11.886   7.925   2.591 -0.0207 -0.0285 -0.0970
18821W        W34955  14.668   5.510  12.629 -0.2873  0.2566 -0.0558
18822W        W34956   1.959   5.136   0.887 -0.0606  0.1608  0.0958
18823W        W34957  17.577  13.097   4.476  0.0962 -0.1001 -0.0727
18824W        W34958  12.133   4.126   1.044 -0.4456 -0.1361  0.1458
18825W        W34959  15.948   0.723   5.077  0.0676 -0.0861 -0.2227
18826W        W34960   1.361  15.568   5.651 -0.3225 -0.0749  0.2630
18827W        W34961   2.439   9.602  15.834 -0.1050 -0.4730  0.1844
18828W        W34962  11.303   7.315  14.748 -0.1890 -0.0819  0.0785
18829W        W34963   7.954  17.498  12.418 -0.1249 -0.2133  0.1195
18830W        W34964   5.545  15.908  13.717 -0.0871  0.0695 -0.0942
18831W        W34965   1.927  15.031  16.653 -0.1274  0.2481  0.0483
18832W        W34966   1.226   8.373  12.981  0.0557  0.1288  0.1990
18833W        W34967   5.004   9.884   5.729  0.1650  0.1621 -0.2747
18834W        W34968  12.874  14.015  16.426  0.0775 -0.1559 -0.0415
18835W        W34969   9.275   2.528   0.517  0.1790 -0.1623  0.0527
18836W        W34970   1.215  11.597   0.828  0.1151 -0.1991  0.2735
18837W        W34971  11.785  17.740   3.385 -0.0785 -0.3150  0.2086
18838W        W34972  14.392   3.596   1.947  0.1028 -0.1591 -0.0373
18839W        W34973  13.211   6.560  15.992  0.4488  0.0819  0.0924
18840W        W34974  16.326   2.239  12.911 -0.0292  0.0778 -0.0947
18841W        W34975  14.431  13.293  13.651 -0.0257  0.2019  0.0979
18842W        W34976  14.503   2.130  14.451  0.2399  0.2885 -0.0091
18843W        W34977   8.242   3.927   4.214  0.4086  0.0476 -0.0006
18844W        W34978   5.990   1.913  14.767  0.2254 -0.0156  0.1236
18845W        W34979   4.986   3.294  13.557 -0.0059 -0.1524 -0.0854
18846W        W34980   6.966  15.658  16.073  0.0236 -0.3403  0.0040
18847W        W34981  15.200  11.415  12.648 -0.4075  0.0257 -0.3983
18848W        W34982   7.127  16.055   0.634 -0.2178  0.0591 -0.0361
18849W        W34983   1.186  11.643   3.657 -0.1742  0.0307 -0.2232
18850W        W34984  17.773   9.282   1.453 -0.1420  0.1998  0.0684
18851W        W34985   1.380  10.551   0.833 -0.0057 -0.3217 -0.3153
18852W        W34986  11.010   6.426  14.823  0.0552  0.1095  0.1165
18853W        W34987  12.257   6.082  14.315  0.2149 -0.3268  0.0270
18854W        W34988  11.273   5.269  13.987 -0.1026 -0.0055  0.0997
18855W        W34989  11.302  15.355  11.846 -0.1571 -0.1641  0.2717
18856W        W34990  14.939  17.323   4.689  0.0328 -0.4754  0.1954
18857W        W34991  11.948   7.273   6.029  0.0326  0.0037  0.0707
18858W        W34992  16.913  14.778   4.088  0.1782  0.1492  0.0936
18859W        W34993   3.100   0.754  11.887 -0.1709 -0.0453  0.0906
18860W        W34994   6.537  17.704   4.900 -0.0058 -0.2339 -0.1247
18861W        W34995   7.672   1.762  13.058 -0.2836 -0.3170  0.1660
18862W        W34996  15.978   8.016  14.149 -0.1570 -0.1429  0.0041
18863W        W34997   0.442   3.698   2.024  0.1744  0.1857  0.0920
18864W        W34998  15.907  11.975   0.683  0.2305 -0.3122 -0.1233
18865W        W34999  10.893  12.061  16.286 -0.2168 -0.2791 -0.0253
18866W        W35000   8.592  16.282  15.822 -0.1090  0.1382  0.3238
18867W        W35001   1.679   9.381   0.164  0.0112  0.1631  0.0865
18868W        W35002  15.539  12.257  11.781  0.0337 -0.1206 -0.0088
18869W        W35003  16.329  12.471  12.035 -0.1900  0.2495 -0.1026
18870W        W35004  14.627   3.599   0.811  0.5562 -0.1055  0.0283
18871W        W35005   6.361  11.050  14.194  0.0999 -0.1412 -0.2421
18872W        W35006  10.272   9.420  15.852  0.3581  0.1073  0.2585
18873W        W35007  14.671   3.645   4.190 -0.2879 -0.1107 -0.1509
18874W        W35008   5.504  14.522   1.519  0.2450 -0.0550  0.1543
18875W        W35009  11.533  11.248  11.755  0.0771 -0.1324 -0.2871
18876W        W35010   0.590   9.408  16.545 -0.2310 -0.1377 -0.2734
18877W        W35011   5.400   4.841   5.476  0.3125 -0.0416  0.1260
18878W        W35012  16.749  10.783   5.672 -0.1014 -0.0461  0.2672
18879W        W35013   1.250   3.290   5.034  0.0537 -0.2382 -0.0744
18880W        W35014   0.417  16.908  11.615  0.1245  0.0067  0.0504
18881W        W35015  16.412  15.314   1.490  0.1995  0.1421  0.3544
18882W        W35016   4.124   9.104  13.868  0.1942  0.1039  0.0363
18883W        W35017  12.059  13.966  13.015  0.2527  0.0695 -0.1807
18884W        W35018   8.963   0.984  15.434 -0.1010  0.0147 -0.2176
18885W        W35019   6.965  15.806   4.418 -0.0527  0.3612 -0.0978
18886W        W35020   6.159  17.071  12.179 -0.3116  0.2636  0.0076
18887W        W35021   8.943   0.851  14.942  0.3049 -0.0360 -0.1311
18888W        W35022  10.366   4.914  13.243  0.2294  0.1038  0.1104
18889W        W35023  16.728  16.773   0.570 -0.1852  0.2390 -0.2440
18890W        W35024   1.649   5.379   1.846 -0.1541  0.1047  0.1635
18891W        W35025   2.727  14.622   0.177 -0.1831  0.2699 -0.0954
18892W        W35026  13.518   6.399   4.936  0.1486  0.3462  0.0557
18893W        W35027  11.283   5.905   2.727  0.0562  0.1630 -0.2659
18894W        W35028   7.853  15.837   4.033 -0.1781 -0.2445  0.4822
18895W        W35029   2.958   0.638  13.161 -0.0966 -0.0193 -0.0488
18896W        W35030  12.002   3.667  16.341  0.0729  0.1697  0.1718
18897W        W35031   1.832   2.222   4.298 -0.0710  0.1757  0.5584
18898W        W35032   0.841   6.070  15.971 -0.1010 -0.1761 -0.2244
18899W        W35033   4.164  11.391  12.101 -0.2645  0.1936 -0.1826
18900W        W35034  13.202   8.724  12.525  0.0025  0.0083 -0.1283
18901W        W35035   0.514  13.369   3.966 -0.1914  0.0205  0.0339
18902W        W35036  13.643  13.528   3.731 -0.0907 -0.0088  0.0108
18903W        W35037  15.707   1.333   2.984  0.2710 -0.4258  0.0739
18904W        W35038   4.246  12.832   2.084 -0.0815 -0.1341 -0.1017
18905W        W35039   7.975   8.224  14.779  0.0620 -0.1428  0.0005
18906W        W35040  13.170   9.148  11.689  0.2749 -0.1240 -0.2972
18907W        W35041  14.777   5.599   1.950  0.0289 -0.1014 -0.0362
18908W        W35042   7.305  17.861   1.344 -0.1093  0.0344  0.1227
18909W        W35043  15.433   9.610  11.873  0.0715  0.1086 -0.2398
18910W        W35044  13.415   2.254  15.244 -0.1597  0.0485 -0.0712
18911W        W35045   5.879   7.110  14.922 -0.2508  0.0703  0.0610
18912W        W35046   0.427  14.393   4.103  0.2674 -0.1620 -0.0913
18913W        W35047   8.724  13.564  11.641  0.2271  0.0697  0.2775
18914W        W35048  14.370  11.396  15.985  0.1532  0.2694  0.2351
18915W        W35049   3.457   2.126  11.160  0.0136 -0.1948  0.1236
18916W        W35050  17.276   4.870   1.163  0.0485 -0.2230 -0.1422
18917W        W35051  16.142  16.207   3.098  0.0821 -0.1379 -0.2928
18918W        W35052  12.812  14.621  16.564 -0.1901 -0.1412 -0.2228
18919W        W35053   3.731   9.964   0.087  0.1077  0.0016 -0.0594
18920W        W35054   0.064   5.679  15.232 -0.1959  0.2663 -0.0439
18921W        W35055   9.890   9.970   2.704 -0.2542  0.1547 -0.0359
18922W        W35056  14.609   6.328   2.929 -0.1352  0.0483  0.1019
18923W        W35057  13.169  17.226   3.712 -0.1514  0.0966 -0.2175
18924W        W35058   5.929  14.849   1.506 -0.2520  0.0035 -0.1338
18925W        W35059   6.327   2.275  11.793  0.0901 -0.0680  0.3003
18926W        W35060  15.022   9.758  15.748 -0.0760 -0.0878  0.4838
18927W        W35061   9.023   8.923   5.410  0.0529  0.2019 -0.1020
18928W        W35062  13.501   3.909   4.459  0.2085  0.0565 -0.1858
18929W        W35063  11.789  16.649   2.029 -0.2607 -0.3081 -0.1209
18930W        W35064   0.926  15.007  15.915 -0.2751 -0.0634 -0.0514
18931W        W35065   9.467  10.306  15.461  0.1530 -0.3416  0.4265
18932W        W35066  16.383  14.995  13.009  0.1957  0.0282 -0.0862
18933W        W35067  15.083  13.460   4.043 -0.0307  0.2604  0.2777
18934W        W35068   7.273   7.660   3.993  0.4482 -0.2445 -0.3369
18935W        W35069  14.671  13.090   4.350 -0.3132  0.3628 -0.1647
18936W        W35070  16.324   9.478  13.909  0.1638  0.2576  0.1084
18937W        W35071  14.101   3.372  12.736 -0.1841 -0.2377  0.4906
18938W        W35072  12.213   6.430   5.571  0.1405 -0.0499 -0.0640
18939W        W35073  14.453   1.036  13.129  0.3022 -0.1041  0.1030
18940W        W35074   7.759   7.852  15.162  0.0179 -0.0695  0.3457
18941W        W35075  17.463  16.174   3.412  0.0343  0.0503 -0.1140
18942W        W35076   0.125   0.750  15.666 -0.1285  0.0158 -0.2354
18943W        W35077  17.718   9.527   0.362 -0.4792 -0.1342 -0.0276
18944W        W35078  16.852   2.415   0.864  0.1330 -0.0727  0.1490
18945W        W35079   8.177   6.607  15.062  0.3788  0.0347 -0.0579
18946W        W35080  13.849   9.701   2.577  0.0992  0.0393  0.2594
18947W        W35081   5.024  13.422  15.480  0.0325  0.0585  0.1297
18948W        W35082  13.615   2.079  15.707 -0.1028  0.0033  0.1921
18949W        W35083   4.873   3.507  16.638  0.3004  0.0005 -0.2323
18950W        W35084  17.935  16.757  11.835 -0.0614  0.2447  0.2615
18951W        W35085   9.824  11.859  15.497  0.0666 -0.1666  0.2589
18952W        W35086  14.458   3.933   1.230  0.1576 -0.0913  0.3335
18953W        W35087  14.511   2.631  13.236 -0.0186 -0.2001 -0.0698
18954W        W35088   2.687   5.682   0.520 -0.0145 -0.3182 -0.0735
18955W        W35089   9.541   9.893   3.135  0.0238  0.0730  0.2174
18956W        W35090   0.877  16.819   1.820  0.1805  0.1850  0.2385
18957W        W35091   7.200  13.969   4.379  0.0725 -0.0536 -0.1174
18958W        W35092   5.814  11.693   2.283  0.1590  0.0741  0.2246
18959W        W35093   0.781   9.358  12.588 -0.3418  0.0912  0.1823
18960W        W35094   6.650  15.301  16.342 -0.0775  0.5030 -0.0489
18961W        W35095   0.429   4.536  13.397  0.3668 -0.1363 -0.1874
18962W        W35096  14.310   5.746  12.232 -0.3007  0.3115 -0.1048
18963W        W35097  15.607   3.286   1.573  0.0850 -0.1692 -0.0506
18964W        W35098   8.978  12.105  12.577 -0.2449  0.0372  0.2593
18965W        W35099  14.537   8.791  13.156  0.2510  0.0722  0.1412
18966W        W35100   2.372   1.054   3.519  0.0771  0.2125  0.0754
18967W        W35101  14.849  14.037   2.977 -0.2758  0.1743  0.0210
18968W        W35102   8.740  15.565   5.053 -0.0848 -0.1996 -0.5426
18969W        W35103   5.179  17.560   4.591 -0.0162  0.1633  0.1062
18970W        W35104   6.527  17.360   4.036  0.2691 -0.3123 -0.0695
18971W        W35105  12.292   1.475  14.338 -0.0523 -0.0760 -0.0392
18972W        W35106  13.874  10.256   0.199  0.2284 -0.3177  0.1982
18973W        W35107   7.755  11.362   3.241 -0.0932 -0.0817 -0.0711
18974W        W35108   2.710  10.033   1.985  0.5195  0.1547  0.0252
18975W        W35109   1.757   9.198   1.235  0.1732  0.1868  0.1538
18976W        W35110   9.811   3.019   1.087 -0.0916 -0.1673  0.0052
18977W        W35111   9.129  12.821   3.742  0.1267 -0.2846 -0.1774
18978W        W35112   4.868  17.503   2.817  0.0891  0.2887  0.1850
18979W        W35113  10.281   5.452   5.988 -0.5615  0.0760 -0.0894
18980W        W35114  16.950   7.786  12.930  0.0550 -0.0899  0.0871
18981W        W35115   6.021   2.391  15.004  0.0053  0.0132 -0.1911
18982W        W35116  10.574  15.543   1.181  0.0723  0.1650 -0.3497
18983W        W35117  17.925   1.333  11.938  0.0117  0.2205  0.1203
18984W        W35118  16.152  13.072   4.158 -0.0058 -0.3296 -0.4010
18985W        W35119  12.452   9.562   2.846 -0.0210 -0.0460  0.1195
18986W        W35120  16.306  17.302   4.710  0.0460 -0.2112  0.1038
18987W        W35121   8.598  15.590   1.581 -0.0100  0.4355 -0.2592
18988W        W35122   7.231   2.561  11.935 -0.1884 -0.0056  0.0797
18989W        W35123   9.727   2.487   5.441 -0.0638 -0.0059 -0.0002
18990W        W35124   5.518   7.594  14.909 -0.0447 -0.0827 -0.0545
18991W        W35125   8.050  16.473  12.327 -0.2178 -0.1401  0.1750
18992W        W35126   0.729   0.591  12.988 -0.1271 -0.0478  0.2018
18993W        W35127   2.807   3.806   0.660 -0.2004  0.2441  0.0139
18994W        W35128   7.786  16.660   3.479  0.0826  0.4503 -0.1779
18995W        W35129   9.972   3.567   2.166  0.1057  0.0196 -0.0094
18996W        W35130   5.171   2.270   2.936  0.1368  0.0097  0.1571
18997W        W35131   2.588  12.570  13.429  0.0921 -0.2893  0.2358
18998W        W35132   4.593   0.176   5.158  0.0980 -0.2207  0.1277
18999W        W35133  13.104   1.366   1.481  0.1541  0.0680 -0.3510
19000W        W35134  14.165  13.542   3.727  0.1330 -0.1535  0.4124
19001W        W35135  12.845  14.325  16.058 -0.0454 -0.1315  0.0229
19002W        W35136  16.071  13.927   0.261 -0.0307  0.3979  0.1670
19003W        W35137  10.989  15.612   0.953  0.1235 -0.1322  0.0822
19004W        W35138  12.044   5.248   3.613  0.0903  0.1670 -0.0841
19005W        W35139  14.576   5.751  14.303 -0.4938  0.0432  0.1240
19006W        W35140  11.781   8.438  14.014  0.2543 -0.1978 -0.0414
19007W        W35141  15.555  10.468  16.037 -0.0849 -0.0747  0.3804
19008W        W35142   6.403   5.347   2.507  0.0936  0.0278 -0.0491
19009W        W35143  14.395   7.560   4.017 -0.1062  0.1621 -0.0776
19010W        W35144   7.870   5.993   0.645  0.2074  0.0416  0.1261
19011W        W35145  16.495   4.275  12.308 -0.0364  0.2215  0.0466
19012W        W35146   0.431  14.914   4.953 -0.2413  0.1269 -0.1467
19013W        W35147  12.365  12.946  15.241  0.3046  0.0125 -0.3772
19014W        W35148   6.887   4.192  12.960  0.1716  0.0523 -0.2099
19015W        W35149   0.496   0.487   2.554 -0.0380  0.0823 -0.1973
19016W        W35150  16.025  14.400   5.464  0.0293 -0.1305 -0.1307
19017W        W35151  14.077  13.814  14.876 -0.1801 -0.0436 -0.0794
19018W        W35152  11.877   5.473   1.080  0.0448  0.0513 -0.0907
19019W        W35153   4.736   1.995  16.239 -0.5222 -0.4214  0.0743
19020W        W35154  17.519   7.856  15.512  0.4034  0.0230  0.2406
19021W        W35155  11.331  13.869   5.427  0.1383 -0.0266 -0.0977
19022W        W35156   7.977   7.346   5.310 -0.0540 -0.0088  0.2324
19023W        W35157   8.878   7.402  16.662  0.0613 -0.0069  0.1049
19024W        W35158   1.375   0.532   3.142  0.1147  0.0086  0.0604
19025W        W35159  17.534   4.084   1.403  0.1464 -0.2193  0.1462
19026W        W35160   4.347   6.213   3.601  0.2491  0.3156 -0.2544
19027W        W35161   6.950  12.396   4.214  0.1195  0.4011 -0.0067
19028W        W35162   1.209   5.710  12.866 -0.1168 -0.3026 -0.0773
19029W        W35163  15.670   2.553  12.544 -0.0968 -0.0492 -0.0136
19030W        W35164   4.966   2.250  12.088 -0.1297 -0.3474  0.2571
19031W        W35165   6.981  17.251  15.225 -0.1942 -0.0504  0.0394
19032W        W35166  12.405  17.276   3.863  0.1356  0.0513 -0.2828
19033W        W35167  12.177   5.396   5.576 -0.2056 -0.1036  0.0177
19034W        W35168  17.587  17.369   1.681  0.0081 -0.2025  0.0364
19035W        W35169  15.755  16.741  12.450 -0.0147 -0.2805 -0.0293
19036W        W35170  13.415  16.302   5.580  0.2098  0.1365 -0.3888
19037W        W35171  11.521   1.681  12.371  0.1262 -0.1966 -0.2846
19038W        W35172  17.224   1.365   4.525  0.1152 -0.4439 -0.2156
19039W        W35173  15.985   4.615   4.450 -0.2675 -0.1392 -0.1062
19040W        W35174  17.317   2.739  12.162 -0.0743 -0.1915  0.1687
19041W        W35175   9.616  14.883   3.359  0.0747  0.2524  0.0002
19042W        W35176  11.669   5.651   2.911 -0.1732 -0.1977  0.0710
19043W        W35177   7.790   9.487  11.663  0.0153  0.0285 -0.2126
19044W        W35178   6.509  13.494  15.178 -0.3129  0.3920  0.1968
19045W        W35179   4.453  17.604  15.475 -0.0335 -0.1596  0.4076
19046W        W35180   7.928  15.302   0.447 -0.1049  0.2038 -0.2730
19047W        W35181   2.194   3.884   2.784 -0.1688 -0.0677  0.4039
19048W        W35182   9.062  12.723  12.644  0.1195  0.1487  0.4075
19049W        W35183   5.217  10.797   2.991  0.1440  0.1786  0.1338
19050W        W35184   0.710   1.627   1.010 -0.1515 -0.1077 -0.0837
19051W        W35185  13.673   5.614  14.477 -0.0445  0.1762  0.0711
19052W        W35186   8.510  10.777  15.165  0.0959  0.0948  0.0074
19053W        W35187  10.090  14.959   5.117 -0.1425 -0.1834  0.1172
19054W        W35188   9.907  10.798  12.030  0.1916  0.0995 -0.0652
19055W        W35189  13.824   2.433   2.294 -0.1662  0.1185  0.1508
19056W        W35190   1.654   2.704   3.734 -0.0267 -0.0221 -0.0144
19057W        W35191  14.485  11.255   3.218  0.0592 -0.0946  0.2002
19058W        W35192   9.705   0.883   4.017  0.0199 -0.2776 -0.1174
19059W        W35193  11.793   2.550  14.654 -0.0797  0.1793  0.1014
19060W        W35194  13.164   9.836  16.200 -0.3652  0.1778 -0.1928
19061W        W35195  10.680   2.794   3.830  0.0712  0.3351  0.0820
19062W        W35196   9.209  17.248   4.718 -0.1695  0.2911 -0.2260
19063W        W35197   8.324  10.925  11.407  0.1258  0.0436  0.0135
19064W        W35198   3.972   7.897  13.303 -0.1696  0.0450 -0.4962
19065W        W35199  13.403  14.805  10.892  0.1496  0.0192  0.2097
19066W        W35200  10.817   7.605  11.673 -0.0178 -0.1513  0.2869
19067W        W35201   0.458   2.250  11.325  0.0105  0.0031 -0.4079
19068W        W35202  12.618   5.527   4.112  0.1743 -0.0167 -0.0743
19069W        W35203  11.958   0.103   5.190 -0.2009 -0.1527  0.1840
19070W        W35204  15.624  12.811  11.587 -0.1271  0.0087  0.2066
19071W        W35205   7.722  13.930  15.076  0.0145 -0.0052  0.0535
19072W        W35206   9.301   3.117   2.555 -0.1101  0.3972  0.2930
19073W        W35207  13.102  10.703   1.151  0.1289 -0.0092 -0.0038
19074W        W35208  16.442  14.228   2.388 -0.1441 -0.1571  0.1778
19075W        W35209   4.559   2.652   4.090  0.0493  0.1102 -0.2466
19076W        W35210   3.103  17.903  13.609 -0.2347  0.1272 -0.0651
19077W        W35211  16.971  10.691  14.186  0.1090 -0.1626 -0.0249
19078W        W35212   1.020   7.887  15.348  0.3107 -0.0791 -0.2118
19079W        W35213   1.828  10.288   4.892 -0.0324  0.4808  0.2338
19080W        W35214   5.231   0.493   0.804 -0.0014 -0.1810  0.1365
19081W        W35215  16.384  11.897  11.943 -0.0272 -0.1286  0.0631
19082W        W35216   2.637   5.869  16.138  0.0543  0.3064 -0.0300
19083W        W35217   3.697  11.711  12.119  0.0306 -0.1901 -0.1036
19084W        W35218  16.711   5.470   0.294  0.3902  0.1392  0.0714
19085W        W35219  17.462   8.687  13.811 -0.3175 -0.0768 -0.0677
19086W        W35220   1.591  14.219  12.605  0.1783  0.0665  0.1465
19087W        W35221  14.127   4.227   0.419  0.0994  0.1980  0.3540
19088W        W35222   8.906   8.130   5.222  0.2163 -0.2219 -0.1133
19089W        W35223   6.889  14.977  15.720 -0.2500 -0.0273 -0.0452
19090W        W35224  16.993   4.648   3.435  0.0440  0.2153 -0.1039
19091W        W35225   1.036   1.448  11.152  0.1960 -0.0559  0.5001
19092W        W35226   4.774   0.470   4.707 -0.0415  0.1614  0.3341
19093W        W35227   1.424  10.789  12.551 -0.1684  0.2174  0.1992
19094W        W35228   5.043   6.692  12.838 -0.3243 -0.0926 -0.0171
19095W        W35229   9.177  10.057  13.348 -0.0305 -0.0830 -0.0958
19096W        W35230  16.369   0.358  12.757  0.2659 -0.0587 -0.2329
19097W        W35231   6.235   8.480  14.046  0.0096  0.0628  0.1274
19098W        W35232   1.617  11.793  14.139 -0.0795 -0.0984 -0.0002
19099W        W35233   3.375  14.485  13.549 -0.1819  0.3753  0.2929
19100W        W35234   3.411  12.473   3.315  0.0535 -0.1630  0.1180
19101W        W35235  13.273   6.363  15.108 -0.1224  0.0312 -0.0503
19102W        W35236  10.213   6.310   2.068  0.1317 -0.1398  0.3499
19103W        W35237   5.422  10.913   3.754  0.1572  0.0055  0.1958
19104W        W35238   5.937  12.851   4.287 -0.0061  0.2486 -0.3730
19105W        W35239  17.185   3.283   0.528  0.3130 -0.0019 -0.3521
19106W        W35240   7.703   1.959  12.582 -0.1594  0.1508 -0.0555
19107W        W35241  17.580  13.256  13.102 -0.4190  0.0418  0.1827
19108W        W35242   1.185   7.997   5.476 -0.0602  0.0259  0.1583
19109W        W35243   2.543  14.622  13.025  0.3250 -0.2048  0.2667
19110W        W35244   6.988   2.607   2.535  0.2704  0.0036  0.0821
19111W        W35245  17.009  16.554   5.526 -0.1068 -0.3108  0.1412
19112W        W35246  15.934  13.366  15.913  0.0594  0.1736 -0.1256
19113W        W35247  16.434   2.295  15.793 -0.2206  0.1476 -0.0430
19114W        W35248   3.764  13.768  13.173  0.0427  0.0393  0.0940
19115W        W35249   7.725   3.954   4.351 -0.1908 -0.1528  0.0817
19116W        W35250   4.187  17.935  12.320 -0.0403  0.1363  0.0252
19117W        W35251  12.955   4.047   5.202  0.0288  0.2996 -0.2128
19118W        W35252   9.367   9.398  13.259 -0.0276  0.0460  0.2022
19119W        W35253   3.473   5.753   1.679 -0.2153 -0.0710  0.3624
19120W        W35254  15.304  17.563  13.517 -0.0830  0.2382  0.0593
19121W        W35255  11.855   2.338  15.608  0.0769 -0.1111 -0.1529
19122W        W35256  17.969  15.072  15.625  0.0920  0.1025  0.1447
19123W        W35257   4.693   8.751  14.964  0.0832  0.2402  0.2468
19124W        W35258   0.366  12.525  11.879  0.1584 -0.0098 -0.4153
19125W        W35259  14.700   9.120  15.747  0.2221 -0.2630  0.0627
19126W        W35260   2.578  10.399  16.488 -0.1282 -0.1689 -0.1423
19127W        W35261  15.033   3.842  11.759  0.0172 -0.3657 -0.1352
19128W        W35262  11.357  12.740   2.029  0.0088  0.0087 -0.1047
19129W        W35263  17.941   7.635  13.196  0.1656 -0.3195 -0.4137
19130W        W35264   9.231  13.111  14.949  0.1356 -0.0739 -0.0953
19131W        W35265   5.861  13.045  14.965  0.0250  0.1105  0.1651
19132W        W35266   8.087  12.881  13.772  0.3627  0.1674 -0.1270
19133W        W35267   7.616  11.816   3.996  0.3716 -0.3652  0.0707
19134W        W35268  16.715   5.613  11.506 -0.0885  0.1598  0.0864
19135W        W35269   8.747   0.985   0.201 -0.0835 -0.1881  0.3084
19136W        W35270  16.310   2.763  11.943 -0.1182  0.1055 -0.0956
19137W        W35271   4.324   2.149  14.424 -0.1685  0.3141  0.0534
19138W        W35272   9.816   6.047  14.538 -0.3104  0.3429 -0.2367
19139W        W35273   5.301   9.594  12.081  0.0075  0.3237 -0.2279
19140W        W35274  15.753  16.284   3.389  0.0462 -0.1256 -0.0954
19141W        W35275   2.514  15.325  14.246  0.0534 -0.1901  0.4388
19142W        W35276   5.053  14.643  14.684  0.1566  0.2407  0.2612
19143W        W35277  12.180   3.634  11.266 -0.1230 -0.0248  0.1503
19144W        W35278   3.541   0.186   1.374  0.0394  0.3393 -0.1671
19145W        W35279   5.205   7.544   4.577  0.2437 -0.0697  0.0499
19146W        W35280   2.887  10.730   2.592  0.0345  0.0587 -0.2532
19147W        W35281  12.442   0.538   0.351  0.5108  0.0610 -0.1426
19148W        W35282  15.708  16.522   2.924 -0.1763 -0.0308  0.0466
19149W        W35283   9.644   8.113  13.888 -0.1359  0.5243 -0.0342
19150W        W35284   8.527  12.354  14.517 -0.2722  0.1541  0.3874
19151W        W35285  16.449  17.584   3.549 -0.0426 -0.1095  0.5751
19152W        W35286  16.371   7.796   0.910  0.0237  0.1555  0.0299
19153W        W35287   9.408   8.064  15.122  0.0846 -0.0567  0.0138
19154W        W35288  15.557  10.531   0.954  0.0415  0.0372  0.0735
19155W        W35289   5.787  11.364  11.591 -0.0165 -0.1486  0.2594
19156W        W35290   7.139   0.046   2.209  0.1111  0.2588 -0.0267
19157W        W35291   6.571   7.291   3.416 -0.0161  0.1714 -0.1107
19158W        W35292  15.234  14.243  15.095  0.1743 -0.2200 -0.1010
19159W        W35293  13.953   8.398  14.798  0.1209  0.0826  0.3604
19160W        W35294   4.099  15.494  15.226  0.0207 -0.0768 -0.0594
19161W        W35295  17.640   4.490   1.075 -0.2706  0.0068  0.1876
19162W        W35296   6.120  14.302   3.986  0.2755 -0.1614  0.0346
19163W        W35297  16.215   5.854  15.167  0.1695 -0.0330  0.3445
19164W        W35298  13.002   4.125   2.683 -0.1313  0.1105 -0.0456
19165W        W35299   9.337   5.767  12.965 -0.2614 -0.1251 -0.0050
19166W        W35300  16.694   9.056  11.766  0.3613  0.2110  0.2347
19167W        W35301  13.937   9.811  12.249  0.1228 -0.2670  0.1653
19168W        W35302  16.604  15.173   0.152  0.4122 -0.0419  0.1825
19169W        W35303  11.963  13.820  16.248 -0.2953  0.0494  0.0294
19170W        W35304  17.547  15.937  12.553 -0.1157 -0.2387 -0.1067
19171W        W35305   5.516  16.100  12.048  0.0258  0.3005 -0.2233
19172W        W35306   9.326   4.791   5.284  0.0494 -0.0163  0.1923
19173W        W35307   3.277   2.590  13.419 -0.0977  0.0941  0.0680
19174W        W35308  15.925  12.922  16.559 -0.2389 -0.1948 -0.2752
19175W        W35309   9.205  17.084   3.092  0.3849  0.0753  0.2772
19176W        W35310   5.600   1.980   5.952  0.2297  0.4333 -0.0661
19177W        W35311  11.878  12.648   3.199  0.2748 -0.2050 -0.0567
19178W        W35312   8.369   2.248  16.671  0.2395  0.0832  0.0013
19179W        W35313  14.212   6.614   2.798  0.1751  0.3272  0.1347
19180W        W35314   3.998   6.409  14.218 -0.0817  0.0195  0.2950
19181W        W35315  10.196   4.363   0.987 -0.4277 -0.0425  0.1808
19182W        W35316   5.389   6.799   3.406  0.0275  0.1886  0.0817
19183W        W35317   5.334   0.369  13.182 -0.2945  0.2585 -0.0730
19184W        W35318  17.036   6.113   1.763  0.4323 -0.1826  0.1291
19185W        W35319   9.577  14.584   1.310 -0.0935 -0.2217 -0.2182
19186W        W35320   7.430  12.720  16.661 -0.0967 -0.2886  0.0397
19187W        W35321  13.351   3.566  14.083 -0.0508 -0.0566  0.0966
19188W        W35322  10.326   6.840  14.356  0.2395  0.1864  0.0077
19189W        W35323  17.435  15.696   0.581  0.1239  0.3319 -0.1146
19190W        W35324   2.422   6.968  14.169 -0.1243  0.2049 -0.1645
19191W        W35325  17.953   4.813   2.050  0.1975  0.1233 -0.2172
19192W        W35326  16.118   1.708  12.797 -0.3645 -0.2584 -0.0078
19193W        W35327   2.267   7.088   1.772  0.2683  0.1488 -0.3853
19194W        W35328   8.166  17.122  13.507 -0.0795 -0.0391 -0.1188
19195W        W35329   7.890   5.422  13.283  0.1942 -0.1274  0.1909
19196W        W35330  12.790  13.453  13.013 -0.1304  0.0958 -0.0668
19197W        W35331  17.952   9.621   4.317  0.0114  0.0991  0.1018
19198W        W35332  14.963   4.083  14.902  0.0119 -0.1232 -0.3298
19199W        W35333   7.839  13.803   3.667 -0.3681 -0.0850  0.1556
19200W        W35334   7.263   7.786  14.245  0.2016 -0.1916  0.0302
19201W        W35335  10.747   7.275   3.851  0.2200 -0.0030  0.0972
19202W        W35336   3.092   1.983   5.459 -0.1045 -0.0249  0.0478
19203W        W35337   2.229   5.757  15.303 -0.3928 -0.2401  0.2048
19204W        W35338  15.416  17.157   4.782  0.0355  0.1037  0.0334
19205W        W35339   7.470   9.394  15.760 -0.0213 -0.1347 -0.0159
19206W        W35340  14.733   4.752  12.147  0.1637  0.2011  0.3181
19207W        W35341  16.830  15.737   3.626 -0.0297  0.0085 -0.0566
19208W        W35342   9.419  15.158   2.486 -0.0525 -0.3290 -0.1625
19209W        W35343   8.272   4.570   5.345 -0.1251 -0.1129  0.1649
19210W        W35344   3.956  14.727  14.272  0.0649 -0.0121 -0.0893
19211W        W35345  14.406   8.060  16.573 -0.0478  0.0617 -0.1731
19212W        W35346  16.685   6.304   2.340 -0.1426 -0.0488  0.1730
19213W        W35347  15.864   9.445  11.691  0.1160  0.1286  0.1867
19214W        W35348   9.987   2.860  12.150 -0.0123  0.3668  0.1173
19215W        W35349   1.250   8.146   2.789 -0.3444  0.1857 -0.1934
19216W        W35350   9.460   8.534   3.070  0.2261 -0.4643  0.0634
19217W        W35351  10.355   0.401   4.668 -0.1335 -0.0698 -0.0545
19218W        W35352   6.022  12.499  14.511 -0.2445  0.1028  0.0888
19219W        W35353  12.013  12.627   0.871 -0.3463  0.2939  0.3115
19220W        W35354  11.548  17.929   0.463 -0.1882 -0.1780  0.1240
19221W        W35355   6.859  15.351   4.658 -0.1732  0.1642  0.1938
19222W        W35356   0.755  16.981   1.359 -0.0021  0.1303  0.0858
19223W        W35357  17.947   0.189   0.033  0.0903 -0.2116  0.1645
19224W        W35358   7.972  12.076  15.368  0.1717  0.0139 -0.0926
19225W        W35359   5.360   2.179   1.043 -0.0119 -0.1173 -0.0535
19226W        W35360   2.958  12.166  12.931 -0.2399  0.0667  0.1270
19227W        W35361  12.470   9.208  16.689  0.1202  0.0335  0.0170
19228W        W35362  13.525  11.621   5.188  0.0020  0.0168 -0.3807
19229W        W35363   6.272   1.264  15.379  0.3319 -0.2450 -0.0305
19230W        W35364  12.716   0.691  16.513  0.0169  0.2301 -0.0453
19231W        W35365  11.699  12.079   5.042 -0.0031  0.0534  0.1678
19232W        W35366  13.758   7.073  15.027 -0.4603  0.2453  0.0157
19233W        W35367   6.448  16.108   3.570  0.0368 -0.0565 -0.1621
19234W        W35368   8.389   8.531   1.703 -0.2326  0.0541  0.0726
19235W        W35369  12.018  14.419   2.248  0.0184  0.0139 -0.1585
19236W        W35370   8.639   9.643   2.989  0.0099 -0.2093  0.3258
19237W        W35371   7.415   2.291   5.043 -0.0291  0.2522 -0.0035
19238W        W35372  13.695   2.195  16.188  0.0964 -0.1779 -0.2593
19239W        W35373   7.459   3.850  12.215  0.0128 -0.0174 -0.1458
19240W        W35374  15.357  13.705  13.341 -0.2053 -0.1047 -0.1260
19241W        W35375   7.538  15.976  11.702  0.4047 -0.0311  0.0752
19242W        W35376  14.074  10.514  11.097 -0.0771 -0.2963 -0.1085
19243W        W35377  10.334  15.664  15.945  0.1141 -0.0468 -0.2658
19244W        W35378   0.749   2.311   3.181  0.2807  0.4801 -0.0538
19245W        W35379  16.410   9.306  12.959  0.3287  0.1326  0.1538
19246W        W35380  12.326   0.411   5.433  0.1819  0.1505  0.4089
19247W        W35381  10.289  16.507  15.233 -0.1951 -0.0339 -0.4247
19248W        W35382   1.370  16.024   1.011 -0.0412  0.1468  0.0730
19249W        W35383   9.538  10.657  14.428 -0.1194 -0.2155 -0.1667
19250W        W35384   9.080   1.218  16.616 -0.1114 -0.3107 -0.0962
19251W        W35385   0.366   2.259  11.862 -0.0314 -0.2147  0.3016
19252W        W35386  14.367  14.045  13.042 -0.3397  0.1848 -0.0305
19253W        W35387   2.444   1.085  12.988  0.2723  0.0946  0.0872
19254W        W35388   8.077   7.819   5.531 -0.1361 -0.0283  0.1672
19255W        W35389  16.938   6.936  11.029 -0.0362 -0.1142  0.3041
19256W        W35390  14.601   9.809  13.340 -0.1511 -0.0598 -0.0061
19257W        W35391  16.628   1.024   0.968  0.0442  0.0977 -0.0213
19258W        W35392   2.290  13.966  15.689 -0.0536  0.2003  0.0969
19259W        W35393  10.385   3.365   2.357  0.1592  0.0925  0.0527
19260W        W35394  14.713  14.947   4.837  0.1277  0.1862  0.1422
19261W        W35395  17.339  14.204  12.540  0.0862  0.0762  0.0540
19262W        W35396  10.777  16.024   0.722 -0.0147  0.4777  0.2137
19263W        W35397  15.739   6.001  12.743 -0.4562  0.0915  0.0292
19264W        W35398   1.467   6.219   4.294  0.2155 -0.4791 -0.1451
19265W        W35399   4.972   4.850  12.530 -0.1506 -0.1713  0.2050
19266W        W35400  17.862   8.372  11.943 -0.0218 -0.0151 -0.2064
19267W        W35401   2.722   7.290   3.563 -0.0976  0.1521  0.1175
19268W        W35402  10.628   4.536  15.903  0.3873 -0.0982 -0.0667
19269W        W35403   8.572   4.244   0.189  0.3460 -0.0002  0.1483
19270W        W35404   5.114   8.546  16.209 -0.0843 -0.0075  0.1096
19271W        W35405   1.989   5.876  14.370  0.2105  0.5255  0.0033
19272W        W35406  10.917   4.561   4.500  0.0435  0.2051  0.0350
19273W        W35407   7.687   3.304   2.380  0.4418  0.1608 -0.1884
19274W        W35408   6.858  14.932  16.616 -0.3259 -0.1935 -0.2154
19275W        W35409  16.904   2.177  15.726 -0.2226  0.1681 -0.4046
19276W        W35410  11.179  17.903   3.497 -0.1094 -0.3250 -0.0976
19277W        W35411  11.802  17.184   5.743  0.4521  0.1279 -0.2440
19278W        W35412  17.192  12.276   3.007 -0.2564  0.1161 -0.1350
19279W        W35413   8.123  14.400  14.521  0.0828 -0.0768  0.3476
19280W        W35414  12.510   8.457   0.966 -0.0478 -0.2324 -0.1246
19281W        W35415   4.996   8.962  13.707  0.0391  0.0133  0.2703
19282W        W35416   2.293   7.309  11.117  0.2718  0.2257  0.0801
19283W        W35417  17.152   4.313  16.310 -0.0738 -0.0209 -0.1945
19284W        W35418   0.826  16.042   2.590  0.0129 -0.1474  0.1826
19285W        W35419   2.157   0.198   2.564  0.4675 -0.1624  0.3300
19286W        W35420  15.162  13.908   5.555  0.0162  0.1650 -0.0832
19287W        W35421   0.583   7.009  13.662 -0.0161 -0.3324  0.1598
19288W        W35422  10.689  11.033   1.562  0.1275 -0.2011 -0.0492
19289W        W35423  17.844  11.436  12.019 -0.1199  0.1022 -0.0494
19290W        W35424   5.861   9.454   2.635 -0.2582 -0.1066  0.0204
19291W        W35425   4.425   8.766  16.489 -0.2965 -0.2036  0.2375
19292W        W35426   3.844   0.888  14.939  0.1146  0.0752  0.1087
19293W        W35427  13.233  13.039   3.079 -0.1115 -0.0154 -0.0056
19294W        W35428   6.014  12.373   1.846  0.0356 -0.0064 -0.0786
19295W        W35429   3.987   0.592   2.215  0.4703  0.2109  0.0989
19296W        W35430   8.428   4.000   1.677 -0.0121  0.0382  0.0130
19297W        W35431   7.691  10.849   3.226  0.1573  0.0378  0.2368
19298W        W35432  17.607   2.928  13.308 -0.0041  0.0419  0.0335
19299W        W35433   7.801  16.919   4.434 -0.2840  0.1861 -0.1318
19300W        W35434   6.043   7.198  14.007  0.0392 -0.1558 -0.2458
19301W        W35435  16.694  14.530   3.285 -0.1866  0.0670 -0.1043
19302W        W35436  15.380  12.094  14.971  0.1493  0.1146 -0.2177
19303W        W35437  10.130  17.134  11.108 -0.1734 -0.1137  0.1595
19304W        W35438   4.103  11.822  14.616 -0.1322  0.1447  0.0060
19305W        W35439   4.068  10.209   0.897  0.1397 -0.1973  0.0610
19306W        W35440   4.178   9.302  11.831 -0.2737  0.1250 -0.1653
19307W        W35441   1.819   4.475   4.309 -0.2392 -0.0891  0.0522
19308W        W35442   3.491  12.092  15.518 -0.0651  0.3866  0.1820
19309W        W35443   0.689  17.009   3.072 -0.0487  0.3426  0.1837
19310W        W35444   1.488  15.033   1.466  0.2449 -0.1325  0.1456
19311W        W35445   3.879   9.291   0.638  0.0113 -0.1288 -0.1814
19312W        W35446  17.122   5.825  12.343 -0.0756 -0.2906  0.0359
19313W        W35447  16.030   6.852   5.506  0.3047 -0.0488 -0.1286
19314W        W35448  15.231   8.532   3.505 -0.1759 -0.0770  0.1479
19315W        W35449   6.020   9.813   3.231  0.1011 -0.0582  0.2194
19316W        W35450  13.488   4.533   0.293  0.0994 -0.0614 -0.1712
19317W        W35451  14.250   3.977   4.043 -0.1551  0.1756  0.0159
19318W        W35452  12.781   4.093  16.520  0.0040 -0.3020 -0.1906
19319W        W35453   6.583   5.200  15.371  0.1450 -0.4251 -0.4005
19320W        W35454   9.092  13.617   4.731 -0.1092  0.2091  0.0282
19321W        W35455  13.195   8.160  15.346 -0.1051  0.2192 -0.1388
19322W        W35456  14.230   1.112   4.233 -0.0204  0.0021 -0.2573
19323W        W35457   2.564   2.404   3.398  0.1749 -0.0450 -0.0875
19324W        W35458   8.827  13.791  14.351  0.1708  0.0877 -0.0639
19325W        W35459   1.663  16.162   2.621 -0.1349  0.0969 -0.0138
19326W        W35460   2.738   6.184   3.705  0.1057 -0.3324 -0.0547
19327W        W35461  10.046  11.060  10.540 -0.1851  0.1677 -0.0513
19328W        W35462  17.486  14.088  13.997 -0.0667 -0.0691  0.0281
19329W        W35463  11.101  11.436   0.671  0.1282 -0.1067 -0.0363
19330W        W35464  11.312  10.263  11.792  0.1037 -0.2811 -0.2612
19331W        W35465  17.777   1.446  13.764 -0.0843 -0.3198 -0.2446
19332W        W35466   3.121  13.949   0.009 -0.1001 -0.0589 -0.0630
19333W        W35467   5.664  13.668   3.035  0.0422 -0.1244 -0.1224
19334W        W35468   2.611  16.943   4.480  0.5177  0.3717 -0.0965
19335W        W35469  10.406   1.377   3.662 -0.1510 -0.2175 -0.0063
19336W        W35470   0.336   3.088   0.010 -0.0751 -0.0327  0.0651
19337W        W35471   0.023   4.278  10.869 -0.0814 -0.0226 -0.1263
19338W        W35472  14.926   6.703   0.178 -0.1104  0.0014  0.1740
19339W        W35473  14.961   9.485  13.482 -0.1207 -0.1131  0.0020
19340W        W35474  14.213   9.811   4.418  0.3441 -0.3805 -0.1133
19341W        W35475   8.282  14.725  14.857 -0.2557 -0.0218 -0.1832
19342W        W35476  11.435   5.521   5.752 -0.1213  0.1824 -0.1001
19343W        W35477  17.144  14.130   4.109 -0.2532  0.0302  0.2861
19344W        W35478  10.023   3.179  13.563 -0.1658  0.0058 -0.0183
19345W        W35479   0.571  16.060  11.535  0.1059  0.1469 -0.1781
19346W        W35480  14.936  11.641   4.732  0.2821  0.2013 -0.0127
19347W        W35481   5.073  13.117   0.242  0.2924  0.1677  0.0311
19348W        W35482   3.771  13.473   1.663 -0.0637  0.0728 -0.2291
19349W        W35483   0.969  16.697  15.835  0.0379 -0.0133 -0.3234
19350W        W35484   0.545   9.535  15.740  0.0382 -0.0652 -0.0697
19351W        W35485   9.897  11.798   2.775  0.1106 -0.1807 -0.0196
19352W        W35486   4.912  16.407  12.214  0.0754  0.1342 -0.1431
19353W        W35487   4.173  15.022  11.483 -0.0114 -0.0093 -0.0483
19354W        W35488  12.494  17.881  14.085  0.0189 -0.1778 -0.2611
19355W        W35489   0.543   1.953  12.691  0.1853 -0.2711 -0.0721
19356W        W35490  17.708  13.988   4.241 -0.1439 -0.1079  0.3709
19357W        W35491  13.543  17.172  12.774  0.0151 -0.2957  0.2305
19358W        W35492   2.249   7.554  15.907 -0.0215  0.2306  0.4513
19359W        W35493  13.619  15.167  14.773  0.0319  0.1252 -0.1418
19360W        W35494  11.525   2.288   4.277 -0.2423  0.0045 -0.0878
19361W        W35495  16.438  11.267  12.023 -0.5379  0.1673 -0.0393
19362W        W35496   1.798   5.077  13.221 -0.0718  0.0492  0.0224
19363W        W35497   5.618   8.408  14.872 -0.1381  0.1052  0.1573
19364W        W35498  15.023   6.650  12.300  0.1404 -0.3102  0.2176
19365W        W35499   8.636   6.689  12.185  0.0540  0.0252  0.1760
19366W        W35500  10.981   5.662   3.175  0.2152 -0.1734  0.2918
19367W        W35501   9.070  17.754  16.575 -0.1755  0.2083  0.3140
19368W        W35502   6.282   2.718  13.639  0.1012 -0.0677  0.0167
19369W        W35503  11.849  16.159   5.217 -0.2162 -0.1965  0.4141
19370W        W35504   6.576  13.343   4.008 -0.1069 -0.1907  0.3256
19371W        W35505   3.629  11.353   3.247 -0.1814 -0.2180  0.4007
19372W        W35506   7.177  11.149  16.664  0.0013  0.1886  0.2673
19373W        W35507   5.291   8.835   5.913  0.0654 -0.2413 -0.1657
19374W        W35508   2.085   1.538  12.187  0.1174  0.0140  0.1690
19375W        W35509  17.971  12.820  13.672  0.0036 -0.2012 -0.1149
19376W        W35510   6.179   6.486   3.161  0.0055 -0.1181 -0.1729
19377W        W35511   8.657   1.987   3.276 -0.0389  0.1140  0.2192
19378W        W35512   6.457   4.547  14.264  0.0783  0.1673  0.0040
19379W        W35513   1.621   9.939  13.377  0.0592  0.2444  0.0777
19380W        W35514   9.053   5.175   0.069 -0.0332  0.1619 -0.0593
19381W        W35515  13.146  14.610   0.248  0.3193 -0.0531 -0.4019
19382W        W35516  17.368  17.132  13.120  0.2021 -0.1168  0.0176
19383W        W35517   8.417   9.101  13.185  0.0361 -0.3470 -0.0646
19384W        W35518  12.728  16.242  13.424  0.0023  0.2005  0.1733
19385W        W35519   1.425   8.827  11.984 -0.1274  0.0109  0.1084
19386W        W35520   1.862  11.151   1.531 -0.1845  0.0412 -0.1532
19387W        W35521   3.407  12.069   3.603 -0.2594  0.1934 -0.2739
19388W        W35522  17.797   5.192  10.088  0.0149  0.0363  0.1534
19389W        W35523  13.958   0.321   5.128 -0.2167 -0.1922  0.0629
19390W        W35524   9.269   8.195   1.056  0.2268  0.0462  0.0445
19391W        W35525   0.199  14.484   3.271  0.1763 -0.0591 -0.0443
19392W        W35526  11.739   8.870   0.666  0.1991 -0.1113  0.2328
19393W        W35527   1.618  12.342  12.473  0.0401  0.1329 -0.2381
19394W        W35528  17.924  12.086   4.548 -0.1996  0.0912 -0.1796
19395W        W35529  15.969   1.978  15.243 -0.2984 -0.2213  0.0464
19396W        W35530  10.844   5.808   3.631 -0.1054 -0.0462  0.0466
19397W        W35531  13.281  17.758   1.783 -0.1697 -0.1749 -0.1773
19398W        W35532  13.623   0.112   0.038 -0.0853 -0.0745 -0.1795
19399W        W35533  10.205   3.058  15.978  0.2055 -0.0094 -0.1515
19400W        W35534   1.705   4.720  10.926  0.1447 -0.0143  0.2440
19401W        W35535   2.983   1.560  11.248  0.1759  0.0924  0.3205
19402W        W35536   6.539   9.279  14.436  0.0779  0.3116  0.0020
19403W        W35537   2.351  12.119   5.291  0.1094 -0.2934  0.0833
19404W        W35538   0.629   1.097   1.872 -0.0923 -0.0024 -0.2746
19405W        W35539  17.088   0.781  12.845 -0.2306 -0.2960  0.0233
19406W        W35540   8.597   5.175  12.091 -0.5124  0.1497 -0.0382
19407W        W35541   5.220   8.394   2.461  0.0198 -0.0352 -0.1824
19408W        W35542   5.627  16.369   3.117 -0.0368 -0.0136  0.2009
19409W        W35543  12.294   8.200  13.426  0.1230 -0.3156 -0.3769
19410W        W35544   6.375   6.723   4.046 -0.0829 -0.2459  0.1829
19411W        W35545  14.102   5.723   4.121  0.2175  0.1176 -0.2971
19412W        W35546   7.030   6.627   2.675 -0.1137  0.0633 -0.0327
19413W        W35547   4.056   5.306   2.872  0.1099  0.1265 -0.0098
19414W        W35548   1.342   0.224  14.322 -0.2357 -0.0489  0.4794
19415W        W35549   4.628  16.587  16.190  0.1600 -0.1779  0.1446
19416W        W35550   8.293  15.557   0.656  0.1109 -0.0973  0.1326
19417W        W35551   8.210   8.729  12.294  0.0274  0.1602  0.2355
19418W        W35552  15.647   0.450   5.422  0.3852 -0.1167  0.0522
19419W        W35553   9.097   8.936  15.552 -0.1578 -0.2057  0.3008
19420W        W35554  13.391   5.187   4.401  0.1758  0.3025 -0.2911
19421W        W35555   7.485   4.610  14.418  0.3378 -0.0203  0.0628
19422W        W35556  15.159   2.082  14.038 -0.0694 -0.0405 -0.0306
19423W        W35557  16.512   2.155   3.546 -0.0724 -0.5345  0.0712
19424W        W35558   4.512  11.678   3.254  0.1370 -0.2455 -0.0142
19425W        W35559  11.083  14.528  14.856  0.0854  0.2630  0.1066
19426W        W35560   3.531   1.605   3.961 -0.0598  0.0580 -0.1650
19427W        W35561  15.195  16.029   1.592  0.2133 -0.1632 -0.0702
19428W        W35562   9.552  13.653   0.249  0.2910 -0.0290 -0.1792
19429W        W35563   5.433   3.826   2.430  0.2038  0.1371 -0.2586
19430W        W35564   1.233   5.302  11.508  0.0307 -0.1324  0.1380
19431W        W35565   0.777   6.294  14.249  0.3016 -0.0431  0.0652
19432W        W35566   2.413   9.482  12.455  0.0547 -0.3706  0.0312
19433W        W35567   6.358   0.206  15.391  0.1817 -0.2523 -0.2649
19434W        W35568  15.508   3.016  15.590  0.1762 -0.1971  0.2252
19435W        W35569   5.889   8.584  12.131  0.2654  0.1774 -0.1188
19436W        W35570   3.876   7.708  14.103  0.0463  0.1001 -0.1996
19437W        W35571  16.492  12.831   4.719 -0.1296 -0.0279 -0.0268
19438W        W35572   4.465  14.587  14.053 -0.0410 -0.0847  0.1173
19439W        W35573   1.552   8.602   4.620 -0.0115  0.0990 -0.0820
19440W        W35574   8.316   9.257   2.732  0.2536 -0.1401 -0.1305
19441W        W35575   9.628   4.527   2.023  0.0793  0.4125 -0.2326
19442W        W35576   4.005  13.843   3.901  0.2270  0.2606 -0.0333
19443W        W35577  11.155  11.671   2.363  0.0926 -0.1817  0.0749
19444W        W35578   4.286  13.722   0.515  0.2312  0.0302 -0.0408
19445W        W35579  16.304   5.382  11.593  0.0281  0.0202 -0.0356
19446W        W35580   2.241  13.657   6.088 -0.0003  0.1530 -0.1323
19447W        W35581   0.721   5.157   1.472 -0.0837 -0.0711  0.2061
19448W        W35582   3.705  14.954  11.270  0.0822  0.3656  0.1262
19449W        W35583   0.295   1.502   4.202 -0.3032  0.0555 -0.0628
19450W        W35584  12.325  14.001  13.497 -0.2638 -0.2453  0.2212
19451W        W35585   6.383   6.196  13.799 -0.0346 -0.0486 -0.0366
19452W        W35586   5.735   6.947  15.492  0.2421  0.1510 -0.0844
19453W        W35587   3.346  10.378  11.886 -0.0908 -0.1829 -0.2633
19454W        W35588   9.136  15.861   4.350 -0.0297  0.0896 -0.1449
19455W        W35589  11.882   5.274   4.973 -0.1209  0.1838  0.0392
19456W        W35590   1.004   6.752   4.976  0.5234  0.3026 -0.1292
19457W        W35591   1.132   7.151  13.871  0.1049 -0.2116  0.1763
19458W        W35592  15.109   9.379   4.399  0.0203 -0.1059 -0.1013
19459W        W35593  14.622  13.202   0.166 -0.0482  0.3158 -0.0576
19460W        W35594  17.191  12.716   3.173 -0.0568  0.4128 -0.0295
19461W        W35595  10.863   7.050   5.145 -0.3310 -0.2921 -0.1279
19462W        W35596   7.976  17.747   3.517  0.0668  0.0213 -0.0464
19463W        W35597   7.994   4.888  13.318 -0.1339 -0.1562 -0.0938
19464W        W35598  11.736   5.982   0.525  0.2126 -0.0246  0.0683
19465W        W35599  11.711  16.595  14.878  0.2353  0.0539  0.2692
19466W        W35600  15.114  17.205  11.485 -0.0003  0.2632  0.0602
19467W        W35601   8.544   5.452  15.034 -0.2282  0.0882 -0.0131
19468W        W35602  17.496  13.690  16.150 -0.1757 -0.2505 -0.0656
19469W        W35603  10.055   4.054   2.083  0.1010 -0.2608 -0.0085
19470W        W35604   8.513  14.413   4.424 -0.1633 -0.0289 -0.1870
19471W        W35605  10.392   9.069  14.555 -0.4598  0.0389  0.0191
19472W        W35606   6.141  11.133   3.365 -0.3233 -0.1083  0.1923
19473W        W35607   7.417   6.006   2.082 -0.1450  0.1843 -0.3761
19474W        W35608   5.340   4.408  15.638  0.1747 -0.1047 -0.0139
19475W        W35609   2.639  13.391  12.311  0.2663  0.1636  0.2189
19476W        W35610   5.014  12.753   4.126 -0.0842  0.1309  0.0989
19477W        W35611   3.339  11.688   2.413 -0.1947 -0.1530  0.0834
19478W        W35612   3.516   7.788   3.060  0.2588  0.1250 -0.0055
19479W        W35613  16.511   3.568   0.192  0.0861 -0.2230 -0.1343
19480W        W35614   6.941  10.920   2.769  0.2954 -0.0252 -0.1383
19481W        W35615   1.357  11.031  14.435 -0.0908 -0.0832 -0.2376
19482W        W35616  16.435   4.642   1.248  0.1015  0.1596  0.4341
19483W        W35617   5.099  17.513  11.690  0.0693 -0.0367  0.0504
19484W        W35618  15.995   5.256  12.934  0.0227  0.1651 -0.1527
19485W        W35619  11.919   1.058   6.459  0.1409  0.2561  0.2110
19486W        W35620   7.491  10.896  16.189  0.0235  0.2519 -0.1010
19487W        W35621   3.348   5.221  11.456  0.1201  0.1310  0.1489
19488W        W35622  10.766   0.238  15.933 -0.1029 -0.1239 -0.3405
19489W        W35623  10.414   1.044   2.205 -0.1221  0.1131 -0.0611
19490W        W35624   9.658   7.149   3.042  0.2787 -0.0315  0.0034
19491W        W35625   9.385   9.569   4.516  0.1181 -0.0056 -0.3932
19492W        W35626  13.239   4.440  16.593 -0.1802  0.1272 -0.0102
19493W        W35627   5.065   1.369  13.698  0.4916 -0.3797 -0.4552
19494W        W35628  16.515   9.522   5.461  0.1502 -0.1310 -0.3786
19495W        W35629  10.508  17.917   3.333  0.2545  0.0067 -0.0452
19496W        W35630  13.728  14.268   5.588  0.2869 -0.1283  0.0338
19497W        W35631   8.266  16.689   4.488  0.0904 -0.1366  0.0783
19498W        W35632  16.754  10.818   5.165  0.3253 -0.1130  0.0564
19499W        W35633   8.078   2.101  14.172 -0.0797  0.3919  0.0121
19500W        W35634   1.861   6.848   4.478  0.2004 -0.0826 -0.2564
19501W        W35635   4.979  10.152  14.388 -0.1091 -0.3885 -0.0202
19502W        W35636   6.006  16.732   0.895  0.1135  0.0128  0.0691
19503W        W35637  17.220   2.119  12.136  0.0244 -0.0974  0.1761
19504W        W35638  15.608  17.633   1.494 -0.0317 -0.0426 -0.2538
19505W        W35639   0.816   0.335   5.552 -0.0137  0.0628 -0.1419
19506W        W35640  17.018  17.874  14.538  0.3257 -0.0361  0.0765
19507W        W35641  17.772  14.462   1.426 -0.4913 -0.0241 -0.1277
19508W        W35642  17.199   0.272  11.889 -0.0493 -0.3377  0.0311
19509W        W35643   0.087   3.010   4.779 -0.3813 -0.1107 -0.2314
19510W        W35644  13.326   2.003   0.847 -0.1693  0.1761  0.0268
19511W        W35645   6.216   3.330  11.400  0.1342  0.1809 -0.0501
19512W        W35646   2.699  10.897   4.052 -0.0753 -0.0462 -0.3048
19513W        W35647  11.476   2.519   3.322  0.4092 -0.1577 -0.0801
19514W        W35648  12.928   6.986  12.923 -0.2204  0.3522  0.1550
19515W        W35649   0.986   0.060  13.529  0.0606 -0.0685  0.1260
19516W        W35650  10.886  11.904   5.548 -0.1347  0.2116  0.1897
19517W        W35651  15.891   6.427   4.915 -0.1556 -0.0517  0.1293
19518W        W35652  16.475  16.954   6.568  0.2158  0.0996  0.1092
19519W        W35653   1.132  13.244  11.998 -0.0218  0.0193 -0.1739
19520W        W35654  11.335  12.016  14.329 -0.2331  0.0635  0.2808
19521W        W35655  10.437  14.283   0.937 -0.0977 -0.1326 -0.1912
19522W        W35656   8.168  13.358  13.853  0.0653 -0.1123 -0.1434
19523W        W35657   1.962   6.902   6.063 -0.2370 -0.0521  0.0886
19524W        W35658   2.619   0.734   5.152 -0.0007  0.0405  0.1818
19525W        W35659   8.012  11.877   2.520 -0.1462 -0.0333 -0.1634
19526W        W35660  14.799   7.284  14.758 -0.2243  0.0565  0.2277
19527W        W35661  13.859  17.639  12.698  0.2399 -0.1050  0.0970
19528W        W35662   5.240   3.330   1.541 -0.0988  0.1250  0.2011
19529W        W35663   3.447  12.295   1.892  0.3566  0.3871 -0.3124
19530W        W35664  14.443   2.782   4.026  0.1651  0.0830 -0.1412
19531W        W35665   4.205  11.452   1.289 -0.0254  0.1104 -0.3584
19532W        W35666   6.558  12.774   0.454  0.0624 -0.0489  0.4623
19533W        W35667  16.696  10.651   6.295  0.1967  0.0102  0.1407
19534W        W35668  15.275   0.885  12.652 -0.2612  0.2034 -0.1293
19535W        W35669  11.948  11.372   2.681  0.0676 -0.2033  0.0787
19536W        W35670  10.454  10.220  11.335 -0.1862 -0.1478  0.0255
19537W        W35671  14.916   7.784  16.494  0.0857  0.1001 -0.2475
19538W        W35672  17.768   8.280  15.576  0.0622  0.0869 -0.1554
19539W        W35673   2.758   2.848  15.290  0.1196 -0.1090  0.0969
19540W        W35674  10.871   2.583  13.514  0.2633 -0.1723  0.0575
19541W        W35675   3.991   0.230  14.471 -0.0119 -0.0304 -0.2353
19542W        W35676   8.233   8.497  15.147  0.2716  0.0030 -0.1064
19543W        W35677   9.887  10.670  13.980 -0.0078 -0.0599  0.0178
19544W        W35678  12.112   0.657   1.968 -0.0132  0.0400  0.0685
19545W        W35679   3.901   5.582   0.209 -0.1094 -0.4293 -0.3585
19546W        W35680   8.717   8.249   1.176  0.1338 -0.3416  0.0804
19547W        W35681  12.917   7.506  14.790 -0.0805  0.0827  0.1073
19548W        W35682  15.105   1.371   5.094  0.0417  0.0144 -0.0525
19549W        W35683  12.967  15.477   3.501 -0.0271 -0.0563  0.1687
19550W        W35684  15.422  13.611   4.549  0.1675  0.0219  0.0523
19551W        W35685  17.054   8.130   2.113 -0.1876 -0.1485 -0.2658
19552W        W35686  13.203   7.566   4.224  0.1430 -0.0708 -0.2055
19553W        W35687   3.059   5.545  12.514  0.0829  0.0145 -0.0254
19554W        W35688  15.347   2.293   1.059  0.2411  0.1389 -0.0793
19555W        W35689  17.207   6.313  11.943  0.0396 -0.0352 -0.2705
19556W        W35690   0.532   7.915  16.673 -0.2584 -0.1379  0.3556
19557W        W35691   3.047  11.739   3.903  0.0713 -0.1940 -0.1703
19558W        W35692  12.158  17.116  12.495 -0.0742 -0.0968  0.0570
19559W        W35693   0.103   7.776   0.017 -0.2453  0.0523 -0.0848
19560W        W35694  17.014   7.460  13.419  0.2407  0.0691  0.0316
19561W        W35695   2.807   3.177  13.681 -0.1482 -0.0320 -0.3666
19562W        W35696   9.809   8.362  11.533  0.1475 -0.2845 -0.2000
19563W        W35697   5.864   7.282  14.449  0.0820 -0.1096 -0.0090
19564W        W35698   1.984   3.373  13.004 -0.1168  0.3209 -0.1456
19565W        W35699   8.701  16.543   0.615 -0.4038 -0.0179  0.0228
19566W        W35700   6.916  13.437   0.472  0.1763 -0.0028  0.3152
19567W        W35701  10.087   5.848  13.234  0.2492 -0.4078 -0.1904
19568W        W35702   2.999  10.221  13.206  0.3028  0.0808 -0.3219
19569W        W35703  15.155   1.479  13.937  0.0404 -0.5105  0.0860
19570W        W35704   3.662   0.054  14.073  0.1586 -0.0644 -0.1365
19571W        W35705   4.596  10.691  16.056  0.5302 -0.0885  0.2105
19572W        W35706   5.888  15.906  12.867  0.1992  0.0805  0.1915
19573W        W35707  17.189   1.214   0.432  0.2961  0.1198  0.0298
19574W        W35708  10.321   6.294  15.526  0.3115  0.0813  0.1258
19575W        W35709   4.524  10.537   1.058 -0.1885  0.2533  0.2567
19576W        W35710  15.237  15.035  15.675 -0.0738 -0.0063 -0.1112
19577W        W35711   1.774   8.014  13.167 -0.0211  0.1715 -0.3144
19578W        W35712   6.991   8.819   1.302  0.2986 -0.0312 -0.0751
19579W        W35713  14.700   3.570  11.473  0.0261  0.2480  0.2243
19580W        W35714   3.999   2.211  15.584 -0.0191  0.0691 -0.1061
19581W        W35715   1.898  12.047   4.171 -0.0820  0.0917  0.1976
19582W        W35716   0.624   9.301  15.052 -0.0043  0.1119  0.0602
19583W        W35717   7.053  15.520   3.971 -0.0166  0.1416  0.0574
19584W        W35718   1.104  15.044   1.097 -0.2040  0.1131  0.3960
19585W        W35719   3.125   0.450  14.386 -0.3430  0.2305  0.0712
19586W        W35720   2.311  10.899   3.586 -0.3933  0.1242  0.2200
19587W        W35721   0.464   4.546  14.558 -0.1278  0.1103  0.1727
19588W        W35722   5.202   9.319   4.522  0.0183  0.0172  0.1199
19589W        W35723   6.858   5.303  11.696  0.0101 -0.1068  0.0262
19590W        W35724  11.651  12.260   0.783  0.0294 -0.0545  0.1597
19591W        W35725  13.768   2.418   2.864  0.3792 -0.0097 -0.0701
19592W        W35726   8.258  14.056   1.484 -0.3444  0.1745 -0.1576
19593W        W35727   5.166  12.129  13.807 -0.0804  0.0211 -0.2149
19594W        W35728   2.854  17.942  15.882 -0.2046  0.1179 -0.1933
19595W        W35729  11.518   0.993   4.410 -0.2705  0.0945  0.2545
19596W        W35730   4.857   3.268   4.766 -0.0111 -0.0278 -0.2114
19597W        W35731  11.240  10.870   2.867 -0.2193 -0.2703  0.1583
19598W        W35732  16.095   7.737   3.202  0.0379  0.2279  0.1646
19599W        W35733  13.204   6.220   4.142  0.1901 -0.0345 -0.0413
19600W        W35734  14.064  14.243   3.578  0.2118  0.0417 -0.1971
19601W        W35735  11.566   7.108  16.053 -0.0748 -0.1742  0.4460
19602W        W35736   7.553  12.138   2.583  0.2115 -0.0984  0.1400
19603W        W35737   1.592   4.862  12.731  0.1111  0.0597  0.0446
19604W        W35738   0.985   5.992   1.966 -0.0368 -0.3186  0.3730
19605W        W35739   3.442  14.552   2.451 -0.0158  0.2097 -0.2453
19606W        W35740   0.960  12.913   3.343  0.2884  0.1017  0.0073
19607W        W35741   0.010   8.598   1.040  0.0814  0.2208 -0.1868
19608W        W35742   4.026  12.799   1.108  0.0589 -0.4781  0.0518
19609W        W35743   8.229  16.485  14.193  0.4944  0.1685  0.2298
19610W        W35744   7.233   7.431  15.460 -0.0082 -0.1681  0.1825
19611W        W35745   9.872  14.840   1.570 -0.1334 -0.0920 -0.0962
19612W        W35746  15.264   6.218  13.827  0.1694  0.4241  0.0244
19613W        W35747  14.915  16.179  10.602  0.2472 -0.2883 -0.2336
19614W        W35748   5.823   9.822   0.382 -0.1958 -0.3919 -0.0416
19615W        W35749   6.947  15.331  14.831 -0.1653  0.1329 -0.2904
19616W        W35750  13.792  10.612  15.681  0.1297  0.2127 -0.1464
19617W        W35751   3.257  11.643  13.678 -0.1771  0.0717  0.0541
19618W        W35752   8.561  10.191   3.911 -0.0617  0.0153 -0.2494
19619W        W35753   1.545   5.862  15.372  0.2547 -0.2957  0.1421
19620W        W35754   6.665   6.813  13.701  0.0124 -0.1935 -0.2523
19621W        W35755  17.820   4.904   0.603  0.0136  0.1261 -0.2773
19622W        W35756  14.589   4.845  15.964 -0.0276  0.0506 -0.0161
19623W        W35757   4.272   1.105   2.408 -0.3335 -0.2053  0.0951
19624W        W35758   0.011  15.684   5.262  0.1093  0.0235 -0.2698
19625W        W35759   1.147  11.269   5.305  0.1342 -0.1746  0.1163
19626W        W35760   2.598  10.107  14.892  0.1545 -0.1117 -0.1770
19627W        W35761   5.312  14.882   2.423 -0.0228 -0.4419  0.0831
19628W        W35762   2.331  10.013   0.965 -0.2437 -0.1665 -0.0667
19629W        W35763  11.728  12.190  14.096 -0.1425 -0.1468  0.0072
19630W        W35764  12.109  13.087  13.216 -0.0983 -0.2916  0.1300
19631W        W35765   7.898  10.742  12.301  0.2271 -0.0792  0.0934
19632W        W35766  15.759   2.619   3.412  0.3663 -0.2859 -0.1372
19633W        W35767   5.138   8.503  11.417  0.1081 -0.2773 -0.1555
19634W        W35768   6.033  10.675   1.828 -0.0255 -0.0294  0.0412
19635W        W35769  15.568  14.726  14.150  0.1734  0.0270 -0.0192
19636W        W35770   8.203  16.635  15.048  0.0204  0.2552 -0.1038
19637W        W35771   3.118  15.072   3.354  0.1855  0.0988 -0.2020
19638W        W35772   9.314   3.420  12.626 -0.3115  0.1517  0.2305
19639W        W35773   2.282   4.786   2.296  0.0588  0.0394  0.0058
19640W        W35774   5.758   9.368   4.651 -0.0804 -0.1645 -0.0623
19641W        W35775  13.470   5.829   5.736  0.1988  0.3591  0.0962
19642W        W35776   1.705  12.649   4.440 -0.0779 -0.0527 -0.1430
19643W        W35777  15.771  10.398   1.483 -0.0852  0.0687  0.0065
19644W        W35778   9.929  12.734   4.762  0.2238 -0.2635 -0.1794
19645W        W35779   8.055   8.464  13.714  0.2929 -0.0058  0.5041
19646W        W35780   7.358  10.966  14.342  0.1750 -0.2880  0.1353
19647W        W35781   5.914   3.122  14.332 -0.1410  0.1375 -0.1173
19648W        W35782  17.106  12.154   5.342  0.0735 -0.0577 -0.0440
19649W        W35783  14.941  12.575  13.418 -0.1334 -0.0039  0.1687
19650W        W35784   8.118  12.254  16.424 -0.1500  0.2260  0.2928
19651W        W35785   4.540   0.883   4.603  0.2635 -0.1272 -0.1818
19652W        W35786   3.921  10.673   5.550 -0.0302  0.1280 -0.1745
19653W        W35787  14.312   1.148  14.529 -0.0423  0.0827  0.0158
19654W        W35788   2.428  13.269   5.268 -0.0301  0.3524  0.1465
19655W        W35789  12.395   9.102  13.541 -0.1154 -0.2472 -0.1420
19656W        W35790  12.636  11.762   3.086 -0.1567 -0.0037 -0.2254
19657W        W35791   5.231   1.792   2.675  0.0722 -0.1963 -0.2551
19658W        W35792   2.356   1.111   4.810  0.3246 -0.1267 -0.1121
19659W        W35793  10.102  14.291   1.331 -0.0223 -0.1084  0.0425
19660W        W35794  12.386   0.310   1.553  0.1257 -0.0574 -0.1086
19661W        W35795   8.281   0.195   3.164  0.1859  0.1150 -0.1037
19662W        W35796   7.272   0.364   3.481  0.0792  0.0791 -0.1338
19663W        W35797   3.967  16.579   4.665  0.2189 -0.2885  0.0800
19664W        W35798   2.031   6.254   4.315  0.5314 -0.2903  0.0078
19665W        W35799   0.709  11.410   2.089  0.2038  0.1230  0.0222
19666W        W35800   8.195  11.365  14.365  0.1216  0.0644  0.1980
19667W        W35801  13.197   2.884   1.102  0.0111  0.3453  0.0636
19668W        W35802  17.720   0.933   2.259 -0.0959 -0.2396 -0.2520
19669W        W35803  12.219  15.369  12.415 -0.0319 -0.0174 -0.4362
19670W        W35804   6.094  16.786   3.893  0.0309 -0.2624  0.0103
19671W        W35805   3.103   0.110  16.599  0.0977 -0.0971  0.2391
19672W        W35806   6.003   3.230  16.511 -0.0400 -0.2967  0.2316
19673W        W35807   5.855  15.311   3.814 -0.1334 -0.1653  0.1205
19674W        W35808   7.168   6.701  16.122  0.2433 -0.1326 -0.2457
19675W        W35809  12.885  12.802   2.092  0.0153 -0.1575  0.4719
19676W        W35810  12.226  11.798   2.791 -0.0152  0.0841 -0.6358
19677W        W35811   8.995  16.490   3.199 -0.0989 -0.1081 -0.2360
19678W        W35812   2.859   0.996   2.946  0.1231 -0.0471  0.3535
19679W        W35813   9.810  13.281   4.981  0.2272  0.1974  0.1327
19680W        W35814  12.417   9.313  12.437 -0.0833 -0.1653  0.3247
19681W        W35815  11.746   3.282   1.337 -0.1341  0.0325 -0.0549
19682W        W35816   7.892   1.617  12.244  0.1429 -0.1544  0.0969
19683W        W35817   8.240  12.642   4.005  0.0019  0.0432  0.1818
19684W        W35818   3.304  10.973  11.904 -0.0419  0.1863  0.2180
19685W        W35819  10.675  10.371  10.907 -0.1911  0.1292 -0.1837
19686W        W35820   2.808   2.961   0.160  0.0730 -0.1810  0.1192
19687W        W35821   1.834   9.271  14.618 -0.1373 -0.1984 -0.3791
19688W        W35822  15.111  10.956  16.514  0.1550 -0.0228 -0.0099
19689W        W35823  12.654   7.579   1.154  0.0151 -0.0074  0.1142
19690W        W35824  16.829   1.895   5.896  0.0512 -0.2578 -0.3805
19691W        W35825  15.571  15.167   1.019 -0.0786 -0.2333 -0.0012
19692W        W35826   7.230  13.486   3.585 -0.0481  0.2573  0.0853
19693W        W35827   4.581   9.114  15.556 -0.1622 -0.2285 -0.3459
19694W        W35828   0.757  15.488  12.623 -0.2223  0.0063 -0.3144
19695W        W35829   5.889  12.690   3.809  0.1309 -0.1052 -0.1899
19696W        W35830  12.643   8.950   5.285 -0.1224  0.0180  0.0220
19697W        W35831  14.812   2.799  10.380 -0.2329  0.2725  0.0087
19698W        W35832   5.395  13.473  14.033  0.1382 -0.0380  0.0943
19699W        W35833   7.899  10.245  11.633  0.0044 -0.1481  0.0552
19700W        W35834   1.581  11.355   5.018 -0.1407 -0.0029 -0.1505
19701W        W35835  16.356  14.707   0.296 -0.0712  0.2138 -0.1665
19702W        W35836   1.574  17.042   1.476 -0.0593  0.1428  0.0349
19703W        W35837   8.442  10.976  13.287  0.2375  0.2887  0.2199
19704W        W35838  13.175   9.680   3.425  0.0361 -0.0504  0.1628
19705W        W35839   9.012  13.677  15.660 -0.1403 -0.1108 -0.0140
19706W        W35840   9.765   5.380   4.551  0.1001  0.3351 -0.0310
19707W        W35841  14.587  11.227   3.751  0.0322 -0.1136  0.1203
19708W        W35842   3.670  15.111  15.968 -0.1676  0.0367  0.0452
19709W        W35843   9.473   7.738   1.282  0.2543 -0.0507  0.0670
19710W        W35844   4.911   3.872  14.376 -0.1282 -0.1702 -0.2250
19711W        W35845  10.558   2.262   4.237  0.0810  0.1640 -0.4385
19712W        W35846  10.425  16.184  11.233  0.1572 -0.2840 -0.2893
19713W        W35847   2.650   1.635   6.053 -0.1545  0.1057 -0.1463
19714W        W35848   0.246  17.925   3.527  0.0309  0.0543 -0.1439
19715W        W35849   1.449   6.734   4.167  0.1027  0.1195  0.0174
19716W        W35850  15.177  10.472  16.388  0.1696  0.1952  0.1706
19717W        W35851  15.148  16.332   2.129 -0.2020  0.1076 -0.1216
19718W        W35852  14.837  13.354   0.745  0.1176 -0.1351  0.0407
19719W        W35853  12.274  12.552   4.369 -0.2063  0.1136  0.2001
19720W        W35854  13.302   2.891  16.569 -0.1329 -0.1188 -0.1092
19721W        W35855   4.264   1.779   2.190  0.1974 -0.0196 -0.1078
19722W        W35856   9.513  12.968  14.445  0.0425 -0.2952 -0.0208
19723W        W35857   1.159  14.432   0.716  0.1845 -0.1852 -0.1885
19724W        W35858   0.501   9.757  14.900  0.1339  0.0121  0.2087
19725W        W35859   7.275   5.854   5.364  0.3461  0.2678 -0.0710
19726W        W35860  17.476  15.071  16.366  0.1430  0.1421  0.0399
19727W        W35861  14.806   2.360  16.523  0.4334  0.0753 -0.0211
19728W        W35862   4.918  11.651   0.065 -0.0275 -0.0633 -0.1416
19729W        W35863  14.188  10.409  14.451 -0.1887  0.1418 -0.2810
19730W        W35864  15.432  17.048  15.519  0.2678  0.3172  0.0083
19731W        W35865   8.591   2.720   2.092 -0.1647  0.0830  0.3095
19732W        W35866  10.441   1.043  11.981  0.2107  0.0931  0.2412
19733W        W35867   6.385   0.430  11.964 -0.1252  0.1962  0.0019
19734W        W35868   5.411  13.671  11.699 -0.0173  0.2037  0.1238
19735W        W35869   9.387   2.292   0.059  0.1705 -0.1823 -0.0822
19736W        W35870  13.400  17.880  13.643  0.0580 -0.1316 -0.0027
19737W        W35871  13.887   6.091  10.666 -0.0055  0.2856  0.0643
19738W        W35872   9.904  12.068   4.501  0.2505 -0.2804 -0.1140
19739W        W35873  11.713  11.964  15.979  0.0421 -0.1181 -0.2281
19740W        W35874   0.365   2.219   2.722 -0.0746  0.0878 -0.0511
19741W        W35875   6.255  14.918   2.478 -0.1536  0.0825  0.4624
19742W        W35876   0.386  10.931   4.299 -0.0999 -0.1821  0.0195
19743W        W35877   6.598  10.618  12.961 -0.5373  0.0453 -0.0718
19744W        W35878   6.269  15.822  11.550  0.0694  0.0967  0.0260
19745W        W35879  16.711  16.125   2.143 -0.2007 -0.1867 -0.2966
19746W        W35880   5.774   7.638   2.802 -0.0862  0.3708  0.0584
19747W        W35881  16.172   7.281  12.238 -0.0493  0.4222 -0.2286
19748W        W35882   5.874   0.274   3.946 -0.0110  0.1919 -0.1851
19749W        W35883   8.219   4.710   3.313 -0.0097  0.0696 -0.1688
19750W        W35884   7.719   4.884   3.991  0.1812  0.3027  0.1112
19751W        W35885   6.400   6.009   3.588 -0.1585  0.0677 -0.0201
19752W        W35886   9.693   2.838  15.962  0.0216  0.0437 -0.3955
19753W        W35887  17.157   5.397   4.052  0.1782 -0.0200 -0.0971
19754W        W35888   4.524  15.851  11.134 -0.1045  0.0269 -0.2589
19755W        W35889   5.510  13.725  13.615  0.1648  0.1569  0.0808
19756W        W35890  17.132  13.059   4.278 -0.2140  0.3850 -0.0522
19757W        W35891  13.635  16.451  11.519  0.0375 -0.0056 -0.0283
19758W        W35892  15.401   6.148   0.052 -0.0598 -0.0545  0.1369
19759W        W35893   5.723  12.269  14.913 -0.4806  0.0723  0.0931
19760W        W35894  13.523   3.922   1.167 -0.0740 -0.0151  0.2479
19761W        W35895  17.698  13.050   5.817 -0.3151  0.2902 -0.0588
19762W        W35896   6.641   4.675   4.440  0.0755  0.1443  0.2196
19763W        W35897   7.122   8.536   3.719 -0.0404 -0.0951  0.3714
19764W        W35898   9.932  15.120   2.502 -0.2003 -0.0484 -0.0007
19765W        W35899  12.626  15.848  14.237  0.1517 -0.1585  0.0481
19766W        W35900   2.978  13.003  14.098 -0.1166  0.0600 -0.2967
19767W        W35901  13.212  17.972   0.888 -0.0970 -0.0647  0.1104
19768W        W35902  14.048  16.506  11.784  0.0814 -0.0971 -0.2791
19769W        W35903  10.486  10.998   3.703  0.0925  0.0037 -0.1800
19770W        W35904   8.445  13.372  12.488  0.0171 -0.2087  0.0293
19771W        W35905  15.188  14.609   0.445 -0.2420  0.0101  0.1060
19772W        W35906  11.339   3.799   4.408 -0.0911 -0.0718 -0.0197
19773W        W35907  13.938  16.515   3.628 -0.1624 -0.1009  0.0117
19774W        W35908   1.770  17.667   3.339  0.0819 -0.2427  0.3747
19775W        W35909  11.694   4.310  14.875  0.0738  0.0066 -0.3158
19776W        W35910  13.631   7.755   6.314  0.1825 -0.1453  0.0647
19777W        W35911  13.346   1.180   5.488  0.0148 -0.1315 -0.1376
19778W        W35912  11.998   0.007  15.736 -0.3132 -0.1642 -0.0116
19779W        W35913   5.195  10.917   2.421 -0.2283  0.1197  0.1113
19780W        W35914   6.481  15.989   0.764 -0.2014 -0.4075 -0.0331
19781W        W35915  15.818   4.299   2.258  0.1207  0.3509 -0.2593
19782W        W35916   2.810  10.759  11.793  0.0992 -0.1726  0.0714
19783W        W35917  14.389  17.262   5.829  0.0959 -0.2178 -0.1616
19784W        W35918   2.243   9.136   4.925  0.0188 -0.1369  0.0590
19785W        W35919   9.750  14.309  15.436 -0.0156 -0.1555 -0.0047
19786W        W35920  11.715   3.654  11.429  0.1388  0.1291  0.2673
19787W        W35921   6.410   1.557  12.300 -0.0863  0.0346 -0.0540
19788W        W35922  16.841   8.041  15.358 -0.0838  0.1568 -0.2135
19789W        W35923  16.918  10.165   3.392 -0.2315 -0.1359 -0.1767
19790W        W35924  12.848   8.281  16.616 -0.2436  0.3860 -0.1986
19791W        W35925   5.559   8.373  11.103 -0.1971  0.2848 -0.2016
19792W        W35926   2.078  14.600  15.305 -0.0692  0.1450  0.1504
19793W        W35927  17.262  15.732  13.785 -0.1320 -0.0548 -0.0908
19794W        W35928  17.182   2.589  10.288 -0.1296  0.1786 -0.1123
19795W        W35929   4.927  11.052   3.790  0.1106 -0.2080 -0.1882
19796W        W35930  14.664  12.445  12.142  0.0799 -0.1565 -0.0485
19797W        W35931   8.274  15.316   1.968 -0.0558  0.0481  0.0535
19798W        W35932   6.844   6.119  14.944 -0.1846 -0.1382  0.1402
19799W        W35933   1.258  16.731  11.192  0.0164 -0.1616  0.0264
19800W        W35934  14.756   2.664   4.458 -0.0527  0.0151 -0.1532
19801W        W35935  15.320   9.695  10.540  0.1472  0.1383  0.2947
19802W        W35936   8.620  14.206  14.579  0.1823  0.2703  0.3784
19803W        W35937   1.541   7.983  15.546 -0.1059 -0.0136  0.1675
19804W        W35938   3.632  12.994   0.929  0.0536 -0.0069  0.0169
19805W        W35939  16.968   2.397   3.556 -0.0900 -0.0027 -0.0196
19806W        W35940  14.207   3.037  15.022 -0.0263 -0.1911 -0.3101
19807W        W35941  14.125   4.935  15.643  0.0409 -0.2194 -0.1662
19808W        W35942  15.599   9.454   3.405  0.1833  0.1633  0.2793
19809W        W35943  15.702   5.848  12.187  0.0633  0.0014  0.3124
19810W        W35944   1.461   3.078  16.114 -0.2003 -0.1533  0.1769
19811W        W35945   2.957  14.500  15.866  0.0754  0.0248 -0.0125
19812W        W35946   8.931   0.714   3.460  0.0302 -0.1539  0.1888
19813W        W35947   3.539   9.537  15.535  0.2735  0.2272 -0.1376
19814W        W35948  11.121   4.328  15.797  0.1480 -0.0396 -0.0226
19815W        W35949  12.990   0.618  12.998  0.2023 -0.0652  0.1634
19816W        W35950  17.099   9.185  13.573 -0.3014  0.1045 -0.1331
19817W        W35951  11.898   9.987  12.869  0.5154 -0.1249 -0.0979
19818W        W35952   7.676  13.157   1.659  0.0864 -0.0565  0.1509
19819W        W35953   6.100  17.922   2.029  0.1943  0.3625 -0.0768
19820W        W35954   2.866   0.419  12.698  0.0843 -0.0013  0.3236
19821W        W35955   9.899  15.764  13.617  0.2043 -0.2390  0.1736
19822W        W35956   6.030  12.066  11.679  0.2929 -0.0125 -0.2180
19823W        W35957  16.965  14.900   3.033 -0.0894 -0.0352  0.0953
19824W        W35958   4.393   0.627   1.386 -0.2339 -0.2688 -0.1752
19825W        W35959   4.858   1.308   4.473  0.0623 -0.0231 -0.1286
19826W        W35960  15.351   7.561  12.867  0.0518 -0.1591 -0.3152
19827W        W35961   8.368   3.340   0.016 -0.0368 -0.0043  0.2194
19828W        W35962   6.550   8.992  14.912  0.1621 -0.1884  0.1742
19829W        W35963   0.932  16.323  12.941  0.0667  0.3373 -0.0359
19830W        W35964   4.577  13.857   4.748  0.2562  0.2154  0.1388
19831W        W35965  15.613  17.188  12.463  0.1153 -0.1796 -0.0395
19832W        W35966  11.339   6.828  11.757  0.2766  0.2994  0.2623
19833W        W35967   1.379  10.372   5.095 -0.4237 -0.0664 -0.0698
19834W        W35968   5.989  17.576   2.917  0.1227 -0.4181  0.1298
19835W        W35969  11.159   8.980  14.031  0.2408  0.0941  0.0312
19836W        W35970   3.687   0.728  12.586 -0.0871  0.1794 -0.1035
19837W        W35971   0.969  12.258  16.358 -0.0364 -0.1241 -0.2054
19838W        W35972   6.616   4.071  14.173 -0.2881  0.1628 -0.3623
19839W        W35973   5.656  13.845   0.597  0.0851  0.1277 -0.2677
19840W        W35974  14.639  10.009  11.625 -0.2528  0.0409 -0.1580
19841W        W35975  16.537  13.732   4.442 -0.0772  0.0655  0.0092
19842W        W35976  15.771   2.035  12.608  0.0266 -0.0873  0.0535
19843W        W35977   7.635  17.449  12.832  0.1324 -0.3852 -0.1602
19844W        W35978   3.226   2.525  16.029 -0.0152 -0.3450 -0.1145
19845W        W35979  13.197   6.950   4.372  0.1553 -0.1093  0.1929
19846W        W35980   5.325  13.897  15.046  0.3304 -0.0375  0.0168
19847W        W35981  10.580  14.683   4.980  0.1551 -0.1091 -0.1612
19848W        W35982   9.167   2.872   1.544  0.2721 -0.3058 -0.0846
19849W        W35983   0.484  10.160   0.844 -0.0599  0.3063  0.0851
19850W        W35984   3.203   6.576  15.572  0.1092 -0.1063 -0.0233
19851W        W35985   6.734  15.228   4.227 -0.2800  0.0584  0.3978
19852W        W35986   5.834   2.269   1.202  0.1060 -0.1997  0.1075
19853W        W35987  16.430   0.661  15.544  0.2087  0.0977 -0.1275
19854W        W35988  11.015   3.576  13.683  0.3855 -0.3690 -0.0689
19855W        W35989  17.304  15.314  13.027 -0.1594 -0.2356  0.1260
19856W        W35990   4.404  11.743  15.076  0.0501 -0.1086 -0.0026
19857W        W35991  10.146  11.846  15.085 -0.3279  0.1116  0.1238
19858W        W35992   0.224   0.915   2.076  0.1468  0.1455  0.3292
19859W        W35993   4.948   3.093  11.524  0.1257  0.0975 -0.1606
19860W        W35994  10.898   8.492  14.077  0.1256 -0.0096  0.0930
19861W        W35995   4.205   1.228   0.455 -0.1043  0.2274  0.1166
19862W        W35996   0.274   8.786   4.937  0.1528  0.2042  0.3339
19863W        W35997  14.613  10.406   1.244 -0.0263 -0.1917  0.0654
19864W        W35998   5.763   4.384   4.720 -0.0843 -0.2945  0.0873
19865W        W35999   9.577  11.440  15.496  0.2384  0.2337 -0.0677
19866W        W36000  11.527   8.588   5.713 -0.0186  0.2846 -0.1856
19867W        W36001   8.391  14.436   5.096 -0.2280 -0.0054 -0.1011
19868W        W36002   2.568   8.350  13.100 -0.2254 -0.0099 -0.1613
19869W        W36003   8.419   2.141  11.744  0.0928  0.0489  0.0905
19870W        W36004  10.940  12.406  15.033 -0.2065  0.0968  0.0489
19871W        W36005  14.762   8.536   1.663  0.2083  0.1499 -0.2845
19872W        W36006   6.627   6.002  16.026  0.0959 -0.2498  0.4891
19873W        W36007   2.852   3.257   4.274 -0.0314 -0.2252  0.1424
19874W        W36008   5.777  13.577   5.692 -0.2492  0.2977  0.0197
19875W        W36009   4.501  13.727  12.921  0.0239  0.1963 -0.1042
19876W        W36010   5.563   7.760  12.040 -0.2457  0.1078  0.1682
19877W        W36011  17.545   0.948  12.555 -0.0986  0.2065  0.0281
19878W        W36012  13.857   3.748  14.015 -0.5112 -0.0315  0.1171
19879W        W36013   1.749   2.283  15.886  0.0310  0.1786 -0.3779
19880W        W36014   7.594  14.350  12.979  0.5048  0.0926  0.1232
19881W        W36015  10.030  12.971  13.507 -0.2807 -0.2509  0.2967
19882W        W36016   0.406  10.643  13.272 -0.2295  0.1078  0.4164
19883W        W36017   4.573   0.897   1.790  0.1429  0.0286  0.2041
19884W        W36018   5.397   5.803  14.904 -0.1327  0.0759 -0.1084
19885W        W36019   1.826  14.947  13.091  0.0348 -0.3994  0.0568
19886W        W36020  15.340  16.690  15.864  0.0162  0.2257  0.0055
19887W        W36021   4.347   9.837   5.416 -0.1858 -0.0335 -0.0290
19888W        W36022   8.036  10.609   2.989 -0.2183 -0.0673 -0.2040
19889W        W36023   1.567  17.708   5.171  0.1508  0.0339  0.1605
19890W        W36024   0.674   5.970   2.727 -0.2896 -0.0708  0.0252
19891W        W36025  13.598   4.207  12.259 -0.3787 -0.0715  0.1690
19892W        W36026  15.740  13.854   3.450 -0.0158 -0.0294  0.2834
19893W        W36027   5.369  12.692   1.311 -0.0086 -0.0439  0.0465
19894W        W36028   4.548   5.124  12.390 -0.0736  0.0815 -0.1781
19895W        W36029   0.715  13.835   1.574  0.0134  0.1844  0.0512
19896W        W36030   1.552   5.387   4.210  0.0108 -0.1317 -0.2698
19897W        W36031  13.128   0.943  16.485  0.0101  0.0276 -0.1322
19898W        W36032  13.275   0.246  12.043 -0.2130  0.1061 -0.1907
19899W        W36033   9.378   1.988  14.708  0.2130  0.1775  0.2328
19900W        W36034   8.857   5.325  13.584  0.1860 -0.0757  0.2805
19901W        W36035   6.080   9.186  15.980  0.0683 -0.0043 -0.1829
19902W        W36036  11.161   1.437   2.724  0.1137 -0.0595  0.1096
19903W        W36037   7.187   7.275  11.175 -0.2204  0.1256  0.1073
19904W        W36038   3.780  12.896   3.993 -0.0808 -0.1503 -0.2320
19905W        W36039   8.829   4.592   3.181  0.0034  0.0422 -0.1212
19906W        W36040   5.937   8.966   2.308 -0.0662  0.1268  0.0229
19907W        W36041   0.500  16.119  13.906  0.1839  0.2321  0.0907
19908W        W36042   7.791  12.766   0.795 -0.0387 -0.1417  0.0342
19909W        W36043  10.899   8.199  13.641  0.0966 -0.0281 -0.0947
19910W        W36044   6.503  17.016   3.658 -0.0873 -0.2845  0.1227
19911W        W36045   7.253   3.981  16.386 -0.4253  0.0289  0.1272
19912W        W36046  12.990   4.497   0.309  0.1280 -0.0561  0.0602
19913W        W36047   0.404  10.176   5.945 -0.0227 -0.0065 -0.1889
19914W        W36048   8.328   1.745  16.496 -0.1054 -0.0398 -0.1154
19915W        W36049  13.299   5.844  12.977  0.2756 -0.1379 -0.0770
19916W        W36050  11.427   3.873   0.670 -0.0308 -0.0821 -0.1792
19917W        W36051   0.389  17.871  15.867 -0.0243  0.1030  0.1949
19918W        W36052  15.762   7.995   5.901 -0.1647 -0.2993 -0.2109
19919W        W36053   4.597  17.094   1.186 -0.1506  0.2646 -0.1018
19920W        W36054   9.886   9.514  13.348  0.1155 -0.0394  0.5422
19921W        W36055  10.166  17.153   3.096  0.2043  0.1091 -0.0929
19922W        W36056   6.879   4.983   2.887  0.3741  0.0697 -0.0591
19923W        W36057  16.938  12.477   1.840 -0.1549 -0.1022  0.1958
19924W        W36058  13.962  11.002   2.365 -0.1263 -0.4480  0.1803
19925W        W36059   5.522  14.229   2.062 -0.1801  0.1248  0.0211
19926W        W36060  10.726  14.755   1.267 -0.0438  0.2601  0.0077
19927W        W36061   8.223  16.821  14.591 -0.0123 -0.1416 -0.0700
19928W        W36062   8.933  11.525   4.222  0.1428 -0.3109  0.1745
19929W        W36063   1.087  15.876   1.532 -0.2788 -0.3254  0.1726
19930W        W36064   2.383   3.138  11.210 -0.1769  0.0056  0.1907
19931W        W36065  14.694   1.384  11.589  0.1114 -0.0626 -0.0589
19932W        W36066   4.487   6.769   1.303 -0.1440  0.3567 -0.0588
19933W        W36067   0.283  15.754  11.781  0.1888  0.0049  0.1807
19934W        W36068   9.117   7.019  15.291  0.0776 -0.2803 -0.0582
19935W        W36069   7.245   6.835   2.205  0.1186 -0.1799 -0.0845
19936W        W36070  17.334  14.460   2.352 -0.3370 -0.1010  0.1068
19937W        W36071  10.903  17.370  14.057  0.1811  0.1083  0.2438
19938W        W36072  13.007  11.503  16.198 -0.0605 -0.2039  0.2622
19939W        W36073  16.676  13.378  12.426 -0.2999 -0.2335 -0.0691
19940W        W36074   0.734   0.072   2.712 -0.2332  0.1911  0.0290
19941W        W36075   6.230  15.776   2.109 -0.2020  0.0987 -0.2332
19942W        W36076   2.289   1.820   4.077  0.1160  0.1237  0.1070
19943W        W36077   3.785   9.149   4.059  0.1440  0.0918  0.3864
19944W        W36078  12.450   3.473  15.978  0.0148  0.0100  0.1327
19945W        W36079  13.864  13.815   3.382  0.0409  0.0295 -0.0205
19946W        W36080  14.715   5.285  15.031  0.0735 -0.0437 -0.0021
19947W        W36081  15.575   9.415  12.674  0.0278 -0.3233  0.0663
19948W        W36082   3.187  17.071   4.264  0.1564  0.0253  0.1728
19949W        W36083   0.063  11.806   0.134 -0.0922  0.4143 -0.1087
19950W        W36084   7.183  13.098   0.182 -0.2898 -0.2959 -0.0395
19951W        W36085   1.461   5.622   5.533  0.0264 -0.1317 -0.1927
19952W        W36086  10.901   8.177  16.024  0.0838 -0.0208  0.2726
19953W        W36087  13.091  16.807   0.863  0.0411  0.1697  0.1941
19954W        W36088   6.406  10.986  11.373 -0.0481  0.2798 -0.2560
19955W        W36089  12.544  14.047   1.289 -0.2395  0.1481  0.1572
19956W        W36090  15.488   2.112  15.405  0.1905 -0.0964  0.2082
19957W        W36091   2.562   7.101   2.186  0.0227 -0.3872 -0.0989
19958W        W36092  17.213   0.369  13.692  0.1813 -0.2940  0.4585
19959W        W36093   6.796   4.277   1.123 -0.2340 -0.0175 -0.1834
19960W        W36094  11.391  13.773   2.968 -0.0595  0.1493  0.0221
19961W        W36095   7.777  11.315  16.289  0.1084 -0.0087 -0.3748
19962W        W36096  16.301  11.401   3.566 -0.0107  0.0633 -0.0431
19963W        W36097  15.932   8.438   0.646  0.2088  0.0041  0.1752
19964W        W36098   3.975  17.465  11.484 -0.1313 -0.1412  0.2444
19965W        W36099   9.165  10.337   2.337  0.2016  0.2170  0.1463
19966W        W36100   9.300  11.587   0.068 -0.2000 -0.0248  0.0005
19967W        W36101   7.298  11.364  13.358 -0.5023  0.0184  0.0157
19968W        W36102  16.488  14.483  15.286 -0.1364  0.0621 -0.3128
19969W        W36103  16.324   1.208  14.454  0.0069  0.3633 -0.3483
19970W        W36104   8.562  12.632   4.999 -0.1288 -0.2183  0.0166
19971W        W36105   4.753   8.275  16.422  0.1282 -0.4742  0.2319
19972W        W36106  15.081   8.930   1.524  0.1133 -0.0668 -0.0876
19973W        W36107   2.252  17.268   1.964  0.0750 -0.1387 -0.0546
19974W        W36108  14.684   5.676   0.232  0.1185  0.1215  0.2324
19975W        W36109   5.211  13.283  13.014  0.1688 -0.1333 -0.0411
19976W        W36110   5.170  10.568  13.171  0.0723 -0.1432 -0.1218
19977W        W36111   6.839   0.501   1.186 -0.4024 -0.1482  0.2802
19978W        W36112   6.886  16.148  16.277  0.0663  0.1770 -0.2248
19979W        W36113  12.194   5.016   1.209  0.0098 -0.2485  0.4642
19980W        W36114   8.061  10.062   2.054 -0.0304 -0.1776 -0.0510
19981W        W36115   8.008   8.507   3.019  0.1038  0.0906  0.2977
19982W        W36116   8.620   6.356   2.110 -0.0283 -0.3570 -0.2795
19983W        W36117   7.352  16.779   3.765  0.3570 -0.0063 -0.4489
19984W        W36118   7.686  17.250   2.945  0.0483 -0.1561  0.0455
19985W        W36119  16.343   9.873  15.976 -0.0503  0.2080  0.0455
19986W        W36120   8.671  15.623   3.082  0.1268 -0.1671  0.0314
19987W        W36121   3.607   3.337   0.161  0.0257  0.0322  0.0002
19988W        W36122   0.011   9.982   1.064 -0.0520 -0.0122 -0.1817
19989W        W36123  15.659   0.472  11.386 -0.0498  0.0008 -0.1814
19990W        W36124   8.026   0.561  13.678 -0.2073  0.2004 -0.0568
19991W        W36125   3.258   6.966  13.779 -0.1599 -0.1245 -0.2623
19992W        W36126  11.594   6.501   5.031 -0.3964 -0.1639 -0.2756
19993W        W36127  13.064  14.039  15.726  0.0229  0.0018  0.1492
19994W        W36128   1.465   3.884  13.629 -0.0096 -0.2966  0.1449
19995W        W36129   3.692  17.750  16.274  0.0753  0.2611  0.0548
19996W        W36130  17.471   4.406   4.394 -0.1738  0.0355 -0.1968
19997W        W36131  10.523  10.144  13.619  0.1692  0.0409  0.2131
19998W        W36132  15.797   9.189   0.786 -0.2187 -0.0787 -0.0492
19999W        W36133   7.091   9.703  15.154 -0.1559 -0.0676  0.0757
20000W        W36134  15.745  16.284  14.015 -0.1050 -0.1929 -0.1141
20001W        W36135  17.081  12.789  16.075 -0.3004  0.0545 -0.0302
20002W        W36136   2.487   5.804  14.304  0.0025  0.0659 -0.2458
20003W        W36137   4.021   0.736  13.795 -0.1617 -0.0505 -0.2730
20004W        W36138   6.278   7.888   3.081  0.1150 -0.1420 -0.2752
20005W        W36139  14.673  15.213   1.670  0.3432 -0.1349 -0.1922
20006W        W36140  13.792   9.204  10.294 -0.1072 -0.0360 -0.0141
20007W        W36141  13.677  10.095   1.169  0.1602  0.0171  0.0099
20008W        W36142  17.437   2.832  16.174 -0.1469 -0.2302  0.1493
20009W        W36143  13.727  12.279   2.919  0.3389 -0.1956  0.0504
20010W        W36144   2.458  12.672  11.319  0.4554 -0.0520 -0.1902
20011W        W36145   3.551   3.291  16.332 -0.2299  0.0725  0.4129
20012W        W36146   7.061  15.903  13.587 -0.2316  0.0358 -0.1145
20013W        W36147   0.076   5.907  16.125 -0.3187  0.1868  0.0197
20014W        W36148  14.836   6.678  11.826  0.0340  0.0270 -0.3056
20015W        W36149  17.125   7.936  16.719  0.1020 -0.2686 -0.0780
20016W        W36150   5.464   6.284   1.798 -0.0779  0.0323  0.2703
20017W        W36151   5.021   0.207  15.982  0.0612 -0.0947 -0.2074
20018W        W36152  16.523   6.449   3.726 -0.1921  0.3258  0.0714
20019W        W36153   0.656   9.595   3.481 -0.1394  0.1389 -0.1165
20020W        W36154  11.212   9.415  13.030 -0.1139 -0.0750 -0.2505
20021W        W36155  15.069  17.127  13.237 -0.0976 -0.3181  0.0511
20022W        W36156   5.474   5.260  14.987 -0.1596  0.0464  0.0994
20023W        W36157   5.223  13.443  16.593 -0.1347 -0.1917 -0.3615
20024W        W36158  16.866   0.571   4.798  0.0112  0.0232 -0.2510
20025W        W36159  14.409   8.367   1.326  0.0741  0.0123  0.0036
20026W        W36160  16.540   8.735  15.609  0.6291 -0.1413 -0.0688
20027W        W36161   8.290  13.243   4.345  0.3031 -0.1122  0.1690
20028W        W36162  17.548  16.879  14.824 -0.1690  0.4799  0.2654
20029W        W36163   5.356   5.604   1.145 -0.2302 -0.0531 -0.0202
20030W        W36164   9.404   0.949   3.584  0.1658 -0.1590  0.0270
20031W        W36165  16.269  16.624  12.266  0.3184 -0.0914 -0.1552
20032W        W36166   7.145   0.844   0.178  0.1153 -0.3085 -0.0339
20033W        W36167   2.314   0.272  13.408 -0.0057  0.0348 -0.0245
20034W        W36168  17.822  15.265   3.098 -0.4185  0.1762  0.1316
20035W        W36169  12.437   5.334  14.733  0.2331 -0.0310 -0.0207
20036W        W36170   3.607  17.677   3.129  0.3269  0.0282 -0.0863
20037W        W36171   8.886  12.101   2.556 -0.1237 -0.3529  0.3445
20038W        W36172   8.278   1.304  12.971 -0.1570 -0.1669  0.0285
20039W        W36173  14.126  15.592   5.104  0.1219  0.0659 -0.0167
20040W        W36174   4.758   9.215   4.308  0.1555 -0.2593  0.2390
20041W        W36175  12.268  12.516  12.079 -0.0345  0.1168 -0.0176
20042W        W36176  11.151   9.548   2.444  0.0611 -0.2594  0.1720
20043W        W36177   8.027  14.210  16.379 -0.1096  0.1031  0.0209
20044W        W36178  17.316  12.421  12.731 -0.2374 -0.0783 -0.0286
20045W        W36179  17.349   6.475   1.476 -0.1205 -0.1847 -0.2013
20046W        W36180   4.383   4.363   5.124 -0.0573  0.0796  0.0706
20047W        W36181   2.274  12.395   1.517  0.0795  0.2333 -0.0679
20048W        W36182   8.371  13.331  11.832 -0.0908 -0.1370 -0.0386
20049W        W36183  13.358   7.424  14.584 -0.1687  0.1470  0.1807
20050W        W36184   1.843   8.454  11.659 -0.1914 -0.0737  0.0192
20051W        W36185   1.245  17.381  10.484  0.1676 -0.1113 -0.1496
20052W        W36186   3.581  12.566  12.280  0.2563  0.0483 -0.2552
20053W        W36187  11.315  17.474   4.969  0.0133 -0.1129 -0.0526
20054W        W36188   1.132   4.378  10.257  0.0583 -0.0728 -0.1135
20055W        W36189  12.537   9.613   1.573 -0.2171  0.0269  0.0390
20056W        W36190  17.917   5.648  12.334  0.1037  0.0572 -0.2151
20057W        W36191  14.978  10.343  11.542  0.0451 -0.0134  0.0113
20058W        W36192  12.755   4.522  15.066 -0.1617  0.0255 -0.0073
20059W        W36193  14.802   6.954  12.675 -0.2265 -0.1541 -0.0278
20060W        W36194   9.626  17.868  12.595  0.1046  0.1617  0.1454
20061W        W36195  10.821  13.397   1.023  0.0715 -0.0559  0.0720
20062W        W36196  11.946  10.205   2.778 -0.0372 -0.2200  0.3231
20063W        W36197   6.842   2.713   0.216 -0.0093  0.3485 -0.0888
20064W        W36198  12.464  14.446   0.930  0.1372  0.0419  0.2480
20065W        W36199   8.771   5.081  15.947 -0.0215  0.0281 -0.1630
20066W        W36200  16.987   4.141   0.668 -0.1692  0.1799  0.2530
20067W        W36201   6.344  13.913  12.049  0.0483 -0.2270  0.0108
20068W        W36202  13.696   5.712   3.583  0.1235  0.1794  0.1328
20069W        W36203  15.175  12.443   2.381  0.0219 -0.1347  0.0225
20070W        W36204   9.489   8.662   1.095 -0.0335  0.1623  0.1314
20071W        W36205   5.264   5.989   0.411  0.1333  0.0087  0.1101
20072W        W36206  12.250  13.883   4.550 -0.0129 -0.1164 -0.0568
20073W        W36207   4.068  16.520  11.777  0.0145  0.0782  0.3454
20074W        W36208  13.954   7.437   1.442  0.2023  0.1645 -0.1211
20075W        W36209  12.220  10.107   1.486  0.0437 -0.0592  0.1051
20076W        W36210   4.981  12.517  12.429  0.0877 -0.0375 -0.0477
20077W        W36211   9.106   5.703  14.574 -0.0380  0.0525  0.1180
20078W        W36212   2.339  16.353  10.263 -0.1162 -0.1517  0.2470
20079W        W36213   4.166  16.240  14.585 -0.0202  0.4249 -0.1189
20080W        W36214  11.740   0.053  14.026  0.1839  0.3813  0.0371
20081W        W36215  16.700  15.862   6.564  0.1318  0.1478  0.0874
20082W        W36216   6.806   8.202   2.662  0.1516 -0.1767  0.2823
20083W        W36217   9.394   0.927  14.738 -0.0264 -0.0862  0.1890
20084W        W36218   3.316   6.683  12.880  0.0984  0.3297 -0.1179
20085W        W36219   6.675  15.552   2.342  0.0886 -0.1033 -0.1037
20086W        W36220   9.491  15.587  12.554 -0.2140 -0.2004  0.2425
20087W        W36221  14.208   0.526   2.073 -0.2524 -0.1689  0.1951
20088W        W36222   1.273   9.069   3.774 -0.0565  0.0136 -0.1032
20089W        W36223  16.386   0.303  14.153  0.1001 -0.1435 -0.0954
20090W        W36224   3.597   4.696  12.412  0.1833  0.0640 -0.2411
20091W        W36225  14.844   4.056  15.447 -0.1474  0.0394 -0.1275
20092W        W36226   1.872  11.417   4.186 -0.1406 -0.0073  0.1618
20093W        W36227   9.730   2.608  14.902 -0.1940 -0.1477 -0.0005
20094W        W36228   5.667  15.854   3.856  0.0127 -0.0409  0.0707
20095W        W36229   1.619   6.744   5.072  0.2968  0.0530 -0.0914
20096W        W36230  13.941   2.199   0.110  0.1202  0.0701  0.0676
20097W        W36231   8.549   2.401  14.249 -0.0161 -0.1368 -0.0878
20098W        W36232   3.271  12.906   6.260 -0.0350 -0.1646  0.1190
20099W        W36233   6.610   5.541  16.228 -0.1079 -0.1687 -0.0685
20100W        W36234   2.892   3.324  13.044 -0.0580 -0.0239  0.2837
20101W        W36235  17.613  13.095   3.294 -0.1456 -0.1069  0.3514
20102W        W36236   9.351   6.207  12.671  0.1759  0.0438 -0.2342
20103W        W36237   3.574   0.927   5.198  0.0257  0.2918 -0.1879
20104W        W36238   2.590  12.201  15.874  0.0537  0.0427  0.0715
20105W        W36239  15.383   8.325  14.630 -0.0947  0.0671 -0.1541
20106W        W36240   0.349  14.737   0.923  0.0916  0.0316 -0.0664
20107W        W36241   0.159  12.634   1.729  0.1177  0.2052 -0.1420
20108W        W36242  11.974   8.346  15.738 -0.0120  0.0635  0.0328
20109W        W36243   5.175  12.438   4.564 -0.0095  0.2539 -0.0437
20110W        W36244   8.054   1.053   2.696 -0.2812 -0.2028  0.0291
20111W        W36245   8.121  11.063  13.968  0.3149  0.0048 -0.0974
20112W        W36246   8.198   5.406   0.979 -0.1441 -0.2227 -0.3046
20113W        W36247  10.441   9.488   3.134 -0.2356  0.0878  0.3573
20114W        W36248   0.241   9.500   0.209  0.2656  0.0609  0.3331
20115W        W36249   6.631   7.691   0.412 -0.0230  0.2299 -0.1948
20116W        W36250   3.327  16.260   2.257  0.0941 -0.0673  0.1698
20117W        W36251  13.367  12.275  15.755  0.1784  0.0820  0.0753
20118W        W36252   9.690  16.055   2.126 -0.0020  0.1580  0.1058
20119W        W36253  14.248  10.057   1.534  0.2139 -0.1109  0.0803
20120W        W36254   5.518  11.405   6.234  0.0992  0.1766  0.0757
20121W        W36255   3.976   9.724  16.411  0.0699 -0.2137 -0.0043
20122W        W36256  14.740  17.666  12.305  0.0598 -0.3765 -0.2100
20123W        W36257   4.572   0.089   2.929 -0.3382 -0.0398  0.4732
20124W        W36258  11.173  13.749   4.074 -0.0100  0.1344 -0.0775
20125W        W36259   2.929   2.377  11.224 -0.0007 -0.1781 -0.1549
20126W        W36260   4.293   2.657   5.620  0.0938 -0.1746 -0.0629
20127W        W36261  13.942  10.159  14.899 -0.1991 -0.0039  0.2321
20128W        W36262  13.962   8.680  11.064  0.0234  0.1792  0.1317
20129W        W36263   4.397   2.344  15.835 -0.2747 -0.1980 -0.0335
20130W        W36264  16.209  11.015   2.247 -0.2519  0.3827  0.1305
20131W        W36265  10.948   8.582   1.211  0.3664  0.1755  0.1483
20132W        W36266   5.748  11.795   3.884  0.0930  0.1472 -0.0876
20133W        W36267  10.535  13.489   2.091 -0.0715  0.4374  0.1485
20134W        W36268   6.533  13.817   1.218 -0.2449  0.1736 -0.2073
20135W        W36269   5.147   7.579   6.049 -0.1135 -0.0463 -0.1273
20136W        W36270  14.487  13.342  12.063  0.2764 -0.1177 -0.0687
20137W        W36271  10.950   1.089  13.220  0.0364 -0.3242 -0.0914
20138W        W36272   1.791  10.218   0.023  0.0283  0.2602  0.2401
20139W        W36273   3.154  14.406  12.618 -0.3618 -0.0733  0.1439
20140W        W36274  11.607   8.954   3.908  0.4325  0.2093 -0.1561
20141W        W36275   4.885   3.058  16.422 -0.2325  0.2658 -0.2490
20142W        W36276  10.385   1.275   5.176 -0.2335  0.2701  0.2899
20143W        W36277  15.649  15.805   4.732 -0.2449 -0.1621  0.3573
20144W        W36278   7.492   5.831  11.252 -0.0789 -0.1330  0.2574
20145W        W36279  15.662   4.734  15.188  0.1648  0.1008 -0.0651
20146W        W36280  12.234   8.014  11.339  0.0591 -0.2120  0.2665
20147W        W36281   2.377   2.979   0.331  0.0184  0.1912 -0.0015
20148W        W36282  11.364  14.205   3.887 -0.3305  0.1189  0.1512
20149W        W36283   1.606  11.027  12.996 -0.0463  0.1628  0.2321
20150W        W36284   5.689   6.644   2.401 -0.1825  0.2317 -0.1745
20151W        W36285   1.627   2.857   2.509 -0.0887  0.0767 -0.0248
20152W        W36286  10.129  15.101  12.457  0.2575 -0.0577 -0.3910
20153W        W36287   5.254  17.660   3.415  0.1002  0.3297 -0.0057
20154W        W36288  16.439   5.334  15.188 -0.2110  0.1054 -0.0070
20155W        W36289  11.939   7.050  15.418 -0.1852 -0.3122  0.2965
20156W        W36290  15.842   0.671  13.408 -0.0131  0.1843 -0.0794
20157W        W36291   9.903  15.122   4.707  0.1689 -0.3186  0.0670
20158W        W36292  15.875   1.568   1.527 -0.2523  0.0954 -0.1461
20159W        W36293  12.315   3.094  13.602 -0.0129 -0.1955 -0.0630
20160W        W36294   5.164  16.798   2.321 -0.2148 -0.2020 -0.0941
20161W        W36295   4.525   6.568  16.185  0.5866 -0.1181 -0.0666
20162W        W36296   4.120  13.594   4.922  0.3607  0.0925 -0.0584
20163W        W36297   7.607  14.472  16.147  0.2336 -0.2794 -0.0507
20164W        W36298  12.855   2.945   0.740  0.4757  0.0357 -0.2277
20165W        W36299  16.152  17.086   5.172 -0.3630  0.3869  0.0062
20166W        W36300   2.291  11.696   4.250 -0.0448 -0.0239 -0.0675
20167W        W36301   7.860   1.637   5.773  0.0869  0.0938 -0.1968
20168W        W36302   8.729  16.647  14.910 -0.2019  0.0535  0.0658
20169W        W36303  16.492  10.195   1.376  0.1270  0.0638 -0.0465
20170W        W36304  17.655   0.976   0.968 -0.0789 -0.0145  0.1169
20171W        W36305   0.773   5.000   2.476 -0.2192  0.1630  0.0487
20172W        W36306   4.925   6.748   3.072 -0.2403 -0.0817 -0.3043
20173W        W36307   5.584   5.667  15.349 -0.1880  0.1770 -0.1991
20174W        W36308   8.723  16.016  16.201 -0.0039  0.0933 -0.1912
20175W        W36309   2.541   7.118   5.269  0.2641  0.2302 -0.1424
20176W        W36310  10.952  16.450  15.958  0.0179 -0.0590  0.2861
20177W        W36311  10.866  10.270   2.659 -0.1374  0.0125 -0.0870
20178W        W36312  15.299   9.086   4.801 -0.0574  0.2631  0.0259
20179W        W36313   1.084   5.125   0.519 -0.0217 -0.1310 -0.0833
20180W        W36314   6.738   6.937   4.368 -0.0101 -0.0719 -0.0821
20181W        W36315  13.460  13.874   2.990  0.1368 -0.0377 -0.1195
20182W        W36316   6.624  16.146  14.494  0.2791 -0.2745 -0.2162
20183W        W36317   0.777  16.436  15.293  0.1928  0.0377 -0.1020
20184W        W36318  16.332  17.486  11.470 -0.3670  0.0251 -0.0930
20185W        W36319  16.698  11.303  11.530  0.0179 -0.1315  0.1475
20186W        W36320  12.114   3.975  14.702  0.0223  0.0198  0.2019
20187W        W36321  10.820   6.485  13.282 -0.1457 -0.0487 -0.2515
20188W        W36322   5.999  11.338  14.081 -0.1713  0.0898 -0.0401
20189W        W36323  11.041   9.720   5.180 -0.0102  0.2635  0.0393
20190W        W36324  14.119  11.151   4.972  0.0508 -0.0574 -0.1362
20191W        W36325   9.362   4.556   0.572  0.0540  0.2763 -0.0457
20192W        W36326  11.628   0.160  15.244 -0.0946 -0.0536  0.0569
20193W        W36327   2.787   6.162   4.225 -0.3058  0.0066 -0.1236
20194W        W36328   6.821   8.873   2.140 -0.0460 -0.2960  0.1035
20195W        W36329   6.040  16.802  16.537  0.0911  0.2306  0.0399
20196W        W36330  10.837  15.431   2.532  0.0584  0.0180  0.0346
20197W        W36331  15.390  11.816   4.678  0.0694 -0.2655 -0.0010
20198W        W36332  15.773   6.026  15.360 -0.3277 -0.0650  0.0490
20199W        W36333   8.699   8.606   5.198  0.2174 -0.3076  0.1405
20200W        W36334   3.279  10.851   6.102  0.1959 -0.1636 -0.1407
20201W        W36335   1.139   3.443   2.893 -0.2570 -0.1877 -0.1402
20202W        W36336   7.380  15.418   1.736 -0.0502  0.0068  0.0891
20203W        W36337   1.095   7.841   3.388 -0.0786  0.0659  0.1717
20204W        W36338  14.393   1.673  14.542 -0.2085 -0.1872 -0.2162
20205W        W36339  14.447   9.993  15.740  0.1463 -0.0466 -0.0081
20206W        W36340   2.045  16.170   1.307  0.1748 -0.0135 -0.0833
20207W        W36341   8.361   6.022   5.453  0.1237 -0.0114  0.0956
20208W        W36342  10.170  17.057   5.170 -0.1450  0.2699  0.2377
20209W        W36343   3.662   5.537   5.066 -0.0406  0.1223 -0.1748
20210W        W36344   2.850   9.460   2.263  0.0183 -0.1552  0.2968
20211W        W36345  14.780   7.067  14.301  0.1171 -0.2436  0.2702
20212W        W36346   7.992   0.061   5.758  0.1224  0.0625  0.1595
20213W        W36347  16.725  17.150   6.099  0.0423  0.0355 -0.0785
20214W        W36348  15.751  13.890   2.911  0.3063 -0.0507  0.4141
20215W        W36349   3.458  11.255  14.963  0.0959  0.0898  0.0655
20216W        W36350  16.250  13.754   3.664 -0.1222  0.0367  0.0336
20217W        W36351  11.484   7.418  13.306  0.3148  0.2197  0.3272
20218W        W36352   7.402   0.090   3.030  0.0215  0.0723 -0.0340
20219W        W36353   8.286  17.613   2.116  0.3232 -0.2605  0.1594
20220W        W36354  14.524  17.059   3.910  0.1505  0.0176  0.0074
20221W        W36355  10.202  15.990   1.850  0.3365 -0.0311  0.4131
20222W        W36356  15.296   0.864   5.199 -0.0306  0.2390 -0.0378
20223W        W36357   3.536   6.384   3.895  0.1058 -0.0673 -0.0574
20224W        W36358  16.567   5.663   3.174 -0.0302 -0.1857  0.1893
20225W        W36359  17.755   8.753   5.217  0.1713  0.2834  0.2617
20226W        W36360   7.176  12.796   4.987  0.0964  0.0069  0.1843
20227W        W36361  16.235  14.831   1.610  0.0765 -0.3081  0.1178
20228W        W36362  16.792   6.601   2.827  0.0600 -0.3393 -0.2422
20229W        W36363   8.057  10.265   1.555  0.2333  0.1584  0.0425
20230W        W36364   8.306  16.151   3.807 -0.1811 -0.1528  0.1855
20231W        W36365   8.204   5.119   0.497  0.0554  0.2095 -0.2595
20232W        W36366   6.327  11.348  13.717 -0.1648 -0.1416  0.3231
20233W        W36367   7.324   3.362   0.261  0.2126 -0.2622  0.1712
20234W        W36368   6.759  10.821   0.984  0.2021 -0.2487  0.1583
20235W        W36369  15.525   7.637   0.969  0.0932 -0.1181 -0.0266
20236W        W36370  15.823   1.159  14.692  0.2568 -0.3015  0.2364
20237W        W36371   9.576  12.979  10.932 -0.0499  0.3585  0.0376
20238W        W36372  14.809   8.510  13.621  0.1354 -0.0107  0.2249
20239W        W36373   2.351  16.135  16.637 -0.0820 -0.2509  0.2579
20240W        W36374  16.617  16.141   1.637 -0.0670  0.0564  0.0713
20241W        W36375   8.953   4.132  11.999  0.1438  0.1108 -0.0475
20242W        W36376  12.508  14.239  13.083  0.2923 -0.2697  0.0349
20243W        W36377  16.994   4.229  13.572  0.2291 -0.0453 -0.0670
20244W        W36378   0.121  11.475   4.034 -0.0983  0.2206 -0.0096
20245W        W36379   7.595   4.466   4.331 -0.4196  0.2056  0.0963
20246W        W36380   0.096  15.034  16.334  0.1289  0.0727  0.3011
20247W        W36381   3.883   9.536   1.530 -0.0769  0.1948 -0.3979
20248W        W36382  13.809  14.405   4.910 -0.0945 -0.0229  0.0863
20249W        W36383  16.056   3.500   3.319 -0.1501 -0.2826  0.1680
20250W        W36384   8.831  12.107  14.081  0.4274  0.0658 -0.1821
20251W        W36385   9.860   5.978   2.364  0.0486  0.0179 -0.4923
20252W        W36386   2.643   2.901   4.773 -0.0580 -0.2651 -0.2736
20253W        W36387   1.907   1.823  15.382  0.0355 -0.0490  0.3427
20254W        W36388  10.232   9.239  13.057 -0.0034 -0.0145 -0.3111
20255W        W36389   5.153  16.529  14.736 -0.1026 -0.1584  0.2597
20256W        W36390   3.378  10.726   5.555  0.1012 -0.2144  0.1110
20257W        W36391  16.235  15.971   0.035  0.1668 -0.3964  0.0836
20258W        W36392   6.353  14.227   4.472 -0.2137 -0.2155 -0.1477
20259W        W36393   5.351   3.051   4.736 -0.0267 -0.4753  0.1613
20260W        W36394  14.991  16.834  12.724  0.3138  0.0135  0.2167
20261W        W36395  14.757  14.986   6.198 -0.0890 -0.0577  0.2433
20262W        W36396  16.687   4.421  13.926 -0.1891 -0.2292  0.2039
20263W        W36397  17.397   2.769   3.890 -0.0798 -0.0284 -0.1650
20264W        W36398  12.438   3.353   6.262 -0.1225  0.0566  0.3525
20265W        W36399  15.209  12.553  11.509 -0.0107 -0.1014  0.0791
20266W        W36400   8.058   6.418   4.345 -0.1736  0.2834  0.1557
20267W        W36401   4.164   7.208   5.743  0.0222  0.2607  0.1222
20268W        W36402  17.704   1.076   0.467  0.0733 -0.0158  0.2547
20269W        W36403   8.690   0.624   6.067  0.1583  0.0386  0.3006
20270W        W36404   1.727   8.421  14.284 -0.2904 -0.0694 -0.2372
20271W        W36405   9.073  15.799   3.400 -0.0271 -0.0070 -0.0103
20272W        W36406   6.512  10.801   4.909 -0.0029 -0.0238  0.1719
20273W        W36407   1.405   4.916   5.004 -0.1420 -0.1232  0.4376
20274W        W36408  16.866   9.643  12.739  0.1224  0.1574  0.3132
20275W        W36409   9.202   3.239  11.637  0.2515 -0.1065  0.0697
20276W        W36410  13.624  11.289   4.331 -0.0170 -0.2484 -0.0698
20277W        W36411   6.227   4.103  14.452  0.1852  0.0890  0.0861
20278W        W36412  11.416  14.011   4.926  0.1367 -0.0003  0.1218
20279W        W36413   7.516   1.538   0.903  0.0226  0.2137  0.0098
20280W        W36414   6.694   5.109  13.506  0.1258  0.1189 -0.2987
20281W        W36415   1.049   1.995   5.107 -0.1271 -0.3194 -0.0762
20282W        W36416  13.121  12.426   4.255 -0.2482  0.2626 -0.2005
20283W        W36417  17.455  12.112  15.676  0.0316 -0.0616  0.3464
20284W        W36418  10.170  12.378   4.010 -0.2286 -0.2513 -0.1503
20285W        W36419   2.783  12.940  16.012  0.0807  0.0432 -0.1079
20286W        W36420   6.350   8.785   6.125  0.3004 -0.2970 -0.2971
20287W        W36421   2.254   6.083  13.969 -0.1834 -0.0637 -0.0218
20288W        W36422   9.763   1.147  14.084  0.0319 -0.0965  0.2108
20289W        W36423   6.461   3.156   3.019  0.3372  0.1279  0.1001
20290W        W36424   1.242   3.926  15.929  0.0656 -0.1461  0.0803
20291W        W36425   4.783   1.748   2.952 -0.0271  0.2190 -0.0840
20292W        W36426   9.844  15.108   1.166  0.2296  0.0129  0.0277
20293W        W36427  17.048  14.323   4.575  0.0661 -0.1289 -0.0080
20294W        W36428   4.570   0.687   5.120 -0.0335  0.0174 -0.0346
20295W        W36429  11.257   3.928   2.469  0.0542  0.0301 -0.1571
20296W        W36430   8.510   5.752  14.136 -0.0838  0.2190  0.3286
20297W        W36431  10.172   9.527   2.712  0.0611 -0.0399  0.1939
20298W        W36432   7.445  15.944  16.523  0.0000 -0.1709  0.2441
20299W        W36433   8.869  11.043   6.306  0.0610  0.1410  0.3254
20300W        W36434  13.423  16.865  14.587 -0.0813  0.0420 -0.2576
20301W        W36435   9.548  10.042   2.375 -0.1268 -0.0731 -0.0306
20302W        W36436   4.681   8.798  11.832  0.0511  0.0948 -0.1967
20303W        W36437  12.988   5.036  12.942  0.0612 -0.0866  0.2108
20304W        W36438   2.230  17.962  10.947  0.2287 -0.3175  0.0925
20305W        W36439   8.112   3.888   3.034  0.0768 -0.0136 -0.2342
20306W        W36440  17.109   9.890  13.851  0.1284 -0.0618 -0.0817
20307W        W36441   4.165   6.757  13.944  0.0055  0.2201 -0.0874
20308W        W36442  11.893   7.108   1.180 -0.0131 -0.2983  0.0585
20309W        W36443   0.666  12.741   0.426 -0.0501 -0.2715 -0.0832
20310W        W36444  15.398  10.971   4.065  0.2726 -0.2765 -0.1227
20311W        W36445  17.954   3.171  14.883 -0.0285  0.3438  0.1188
20312W        W36446  12.503   7.550   3.919 -0.0008 -0.3680  0.1823
20313W        W36447   5.269   8.171  16.503  0.0297 -0.0201 -0.2717
20314W        W36448  14.471   0.967   3.804  0.2115 -0.3619  0.1707
20315W        W36449   2.542   5.457   4.503  0.0856  0.0223  0.0676
20316W        W36450   6.075  15.135   0.002  0.1053  0.0329 -0.1774
20317W        W36451   8.159  10.913  12.710 -0.0511  0.2283 -0.1612
20318W        W36452   1.141   1.308  16.220 -0.1653 -0.0416  0.0032
20319W        W36453   4.958   6.354   2.751 -0.1276 -0.0495 -0.3019
20320W        W36454   8.997   0.845   2.940  0.0322 -0.1821 -0.0257
20321W        W36455  10.194  11.391  12.091  0.3280  0.0870  0.0055
20322W        W36456  11.138   4.992  16.565  0.0907  0.2369 -0.5280
20323W        W36457  11.313   8.159   0.212 -0.1068 -0.2138  0.3101
20324W        W36458   3.296  10.978   0.366 -0.0010  0.0647  0.2757
20325W        W36459  12.293   1.538  11.991  0.1716  0.2956  0.1706
20326W        W36460  12.565  16.748  12.724  0.2209  0.0909  0.1659
20327W        W36461  10.436  15.135  15.238  0.0461  0.2056 -0.0525
20328W        W36462   0.521  10.964   2.318 -0.0888 -0.0850 -0.0522
20329W        W36463  10.294   8.788  12.840  0.4114  0.1123  0.3500
20330W        W36464  13.582   6.509   4.431 -0.2905 -0.1191 -0.1503
20331W        W36465  16.847  16.088  12.615 -0.1532  0.1953  0.0556
20332W        W36466   4.647   5.389   2.195 -0.2416  0.1671 -0.2192
20333W        W36467  17.372   8.213   2.491  0.1833 -0.3042  0.1706
20334W        W36468   6.986   1.137  14.804 -0.1852  0.0368  0.0100
20335W        W36469   5.548   9.118   5.553  0.0422  0.0608  0.0454
20336W        W36470   1.444   2.187  13.096 -0.0644 -0.0472 -0.0542
20337W        W36471  14.528  14.837   1.264 -0.1790 -0.1501 -0.0754
20338W        W36472  11.011  10.163   0.104 -0.3132  0.0191 -0.0657
20339W        W36473  13.356   7.211   0.386 -0.0143 -0.0971 -0.1085
20340W        W36474  15.450   1.750   2.624 -0.3333 -0.0507 -0.0888
20341W        W36475   1.958  13.363   5.119 -0.3307 -0.0824 -0.1873
20342W        W36476   2.019  16.823   4.676 -0.4382 -0.0674  0.0720
20343W        W36477   8.588   2.891   4.204  0.0741  0.1939 -0.0698
20344W        W36478  17.633   9.748   3.297  0.2519 -0.1228  0.3358
20345W        W36479  13.627  17.862   4.247 -0.2341 -0.2012 -0.1851
20346W        W36480   2.877   5.688  13.695  0.1688  0.1742 -0.2252
20347W        W36481   0.484  12.207  15.574  0.2209 -0.1297  0.0588
20348W        W36482  13.531   9.851  11.398  0.1815 -0.1776 -0.2124
20349W        W36483   6.007   6.446   3.673 -0.1632  0.1034 -0.0914
20350W        W36484  16.670  13.953  13.359  0.4019  0.1513  0.0296
20351W        W36485   8.253  14.246  14.972  0.2160  0.2507 -0.0736
20352W        W36486   0.342  15.250  11.585  0.1765  0.0325  0.0286
20353W        W36487   0.464  16.458   3.813  0.0849 -0.0804 -0.1058
20354W        W36488   1.126  11.831   6.096 -0.1781  0.5577 -0.0719
20355W        W36489  17.202   4.643  11.842  0.0445 -0.1427  0.0175
20356W        W36490   9.740  15.874   1.662 -0.1224  0.0916 -0.0643
20357W        W36491   0.890  11.693  14.855 -0.2122  0.0243  0.1659
20358W        W36492   8.841  13.729   2.696  0.1679 -0.1251  0.0581
20359W        W36493  17.090  15.008  11.531  0.0194  0.1176  0.3759
20360W        W36494   6.782  10.673   0.129 -0.3684 -0.0411 -0.1265
20361W        W36495   1.626  14.999  11.596  0.1035 -0.0001  0.1849
20362W        W36496  11.076   9.893  15.336 -0.1201 -0.0996  0.2534
20363W        W36497   4.342  16.597   1.366 -0.2353 -0.2622  0.1589
20364W        W36498   6.540  15.649  15.434  0.2886  0.0007 -0.4120
20365W        W36499  10.449  11.048   2.597  0.1916 -0.1838  0.0331
20366W        W36500   8.086  12.392   1.101 -0.2870 -0.0923 -0.2669
20367W        W36501  16.592   3.361   3.352  0.2963  0.0766  0.1538
20368W        W36502   8.567   5.110  16.467  0.0546 -0.1744  0.0227
20369W        W36503   8.928   7.834   0.285  0.0384 -0.0208  0.2552
20370W        W36504  12.408  17.979   2.601 -0.1368 -0.0908  0.0102
20371W        W36505   8.949  12.532  13.883 -0.1835  0.3119 -0.0090
20372W        W36506   3.003   2.615   0.505 -0.1751  0.1881  0.1291
20373W        W36507  10.707  12.020  11.934 -0.2029 -0.0913 -0.0410
20374W        W36508  17.661  12.801   5.288  0.0631  0.1108  0.1761
20375W        W36509   9.776  14.012  11.822  0.4187  0.1465  0.3532
20376W        W36510  15.053  11.293   0.330 -0.3198  0.2122  0.0404
20377W        W36511  14.175  11.419  14.545  0.2554 -0.0710  0.1933
20378W        W36512   7.670  11.245  15.774  0.1637 -0.0305 -0.0816
20379W        W36513   0.137  16.228   4.474  0.2573  0.0557  0.0099
20380W        W36514   9.481   7.209  12.312  0.1860  0.1974 -0.0776
20381W        W36515  13.496   5.231   0.694 -0.1337 -0.2897 -0.0844
20382W        W36516  16.766   7.090  16.652 -0.0409 -0.1740  0.0891
20383W        W36517   0.767   7.037  14.201  0.1879 -0.2109  0.0432
20384W        W36518  12.785  10.538  11.888 -0.2812 -0.0203 -0.3272
20385W        W36519   3.372   8.473  15.664  0.0841 -0.0427  0.2178
20386W        W36520  17.498  10.945   3.559 -0.1504  0.2975 -0.0301
20387W        W36521   2.172  14.889  15.714 -0.1402 -0.0824 -0.1518
20388W        W36522   9.279   3.146  14.718  0.2343 -0.0093 -0.1210
20389W        W36523   4.133  13.992   2.782  0.2889 -0.4196 -0.1175
20390W        W36524  14.558   6.695   3.243  0.1569 -0.0822 -0.2052
20391W        W36525  10.144   9.486   5.123 -0.1337 -0.1144 -0.3465
20392W        W36526   1.914   5.231   3.175  0.0879 -0.3290  0.3198
20393W        W36527   3.097  11.270   3.312  0.1113  0.1157  0.0076
20394W        W36528   0.660   7.572  14.377  0.0660 -0.1705  0.2628
20395W        W36529   8.765   3.279   3.905 -0.3498 -0.1717 -0.0549
20396W        W36530   7.193   2.551   4.673  0.4917 -0.0623  0.1662
20397W        W36531   6.283   6.186   4.016 -0.0774 -0.4280 -0.2898
20398W        W36532  14.843   8.018  11.696 -0.2327  0.2733  0.1162
20399W        W36533   1.437   2.627  15.187 -0.1382 -0.4015  0.2074
20400W        W36534   6.551  14.718   1.968  0.1247 -0.2126 -0.0480
20401W        W36535   0.492   6.294   5.636 -0.2445  0.1697 -0.0444
20402W        W36536   3.045   3.622   3.368  0.1054  0.0005 -0.1093
20403W        W36537  11.704   4.166  16.507 -0.0984 -0.2894  0.1653
20404W        W36538   5.523   7.877  15.597  0.1063 -0.1438 -0.0745
20405W        W36539  11.515  10.442   1.273 -0.0176  0.1305 -0.0025
20406W        W36540   5.449   4.728  15.279  0.0421 -0.2245 -0.2437
20407W        W36541   2.297   6.674   5.298  0.1054 -0.1894 -0.1762
20408W        W36542   2.353  11.157  11.245 -0.2634 -0.0163  0.1339
20409W        W36543  10.780  14.627   0.180  0.0460 -0.0451 -0.1710
20410W        W36544   2.886  11.731  12.726 -0.3383 -0.0051 -0.2300
20411W        W36545   7.100  13.831  14.404 -0.2563 -0.0823 -0.1208
20412W        W36546   9.098   8.092   1.536  0.0238 -0.0778 -0.0233
20413W        W36547  15.197   4.248  15.815  0.0446  0.0611  0.0008
20414W        W36548   5.424  10.706  15.075 -0.1155 -0.0149 -0.1491
20415W        W36549  10.886   3.799   4.715 -0.1559 -0.1700  0.0201
20416W        W36550  13.402   3.168  15.622 -0.0408 -0.1951  0.1371
20417W        W36551   2.983   2.673   1.555  0.1842 -0.2869 -0.1385
20418W        W36552   2.421   5.293  15.229 -0.0044  0.1148  0.0648
20419W        W36553   8.238   3.892   3.544  0.2788  0.1601  0.0007
20420W        W36554   8.649  16.311  13.255 -0.2176 -0.0493 -0.2099
20421W        W36555  10.889  10.316   4.197 -0.1003  0.1819  0.0065
20422W        W36556   9.682   4.586  15.757  0.2659  0.2582  0.1963
20423W        W36557   3.524  10.474  12.560  0.0392 -0.2104  0.4018
20424W        W36558   8.680  16.179  10.933  0.0277 -0.1226  0.0466
20425W        W36559   2.182  10.347   5.645  0.0213 -0.1817  0.0671
20426W        W36560   0.506   0.611   3.293 -0.1527  0.0079 -0.0386
20427W        W36561   3.368   5.159   0.975  0.0572 -0.1645 -0.1320
20428W        W36562  10.487   5.740  12.108 -0.2010  0.3247 -0.5414
20429W        W36563  13.532  11.687   3.821  0.0961 -0.0323  0.4636
20430W        W36564  11.230  10.708  14.831  0.1192 -0.0396 -0.1349
20431W        W36565   3.917  15.168   1.806  0.2185 -0.0442  0.1181
20432W        W36566  17.432   8.339  14.293  0.0437  0.1148 -0.1684
20433W        W36567   8.040   2.030   3.104 -0.1241 -0.1657 -0.0719
20434W        W36568  13.588   1.379  12.676  0.1150 -0.2247 -0.0577
20435W        W36569   9.614   6.337   4.216  0.1572 -0.0288  0.3746
20436W        W36570   0.629  15.490  15.093  0.1279  0.1447 -0.2932
20437W        W36571   0.914  14.211   6.840  0.1720  0.1953  0.0967
20438W        W36572   0.601  14.813  13.577 -0.2837  0.0943  0.0445
20439W        W36573   1.393   2.905   0.746  0.0870  0.0888  0.2536
20440W        W36574   0.910  15.725   3.492  0.0547 -0.1101 -0.0339
20441W        W36575  15.070  10.820   5.686  0.1331 -0.0663  0.1671
20442W        W36576  15.543   5.057  11.674 -0.0021  0.0113  0.1554
20443W        W36577  15.576  12.380  10.663  0.0853  0.2262  0.2212
20444W        W36578   3.359  17.138  10.308  0.0456  0.1783 -0.0685
20445W        W36579  12.047  12.889   5.360 -0.2295 -0.3380 -0.1144
20446W        W36580   8.422   4.434   4.820 -0.1994 -0.1986  0.0251
20447W        W36581  17.827  15.855   3.596 -0.1086 -0.0340  0.0587
20448W        W36582   9.743  12.022  14.247  0.1514 -0.1323  0.1294
20449W        W36583   0.107   1.657   0.057 -0.2747 -0.0696 -0.2228
20450W        W36584   4.091  11.464  15.887  0.2231  0.1046  0.0617
20451W        W36585   7.572  10.839  15.560  0.2299  0.0619 -0.3180
20452W        W36586   7.804  15.360   1.445  0.1367 -0.0194 -0.0922
20453W        W36587  17.592   5.470  15.114  0.1682  0.1498  0.1634
20454W        W36588   8.886   6.688   5.373 -0.0336  0.1069  0.0068
20455W        W36589   1.300  17.558  13.197  0.0731 -0.1434 -0.1466
20456W        W36590   5.586   9.532   4.189 -0.1593  0.0229 -0.1314
20457W        W36591   3.567   7.904  13.733 -0.1448  0.3377  0.1896
20458W        W36592   0.058   2.611  12.694  0.0000  0.0153 -0.1271
20459W        W36593  14.232  10.660   2.509  0.0331  0.4649 -0.2993
20460W        W36594  17.904   5.411   1.323  0.0009 -0.2371  0.2010
20461W        W36595   5.202  16.433   5.632  0.1839 -0.0539 -0.2124
20462W        W36596  13.801   0.965   5.402  0.0116  0.1855 -0.2117
20463W        W36597   7.908   4.280   1.007 -0.0899 -0.0251  0.2410
20464W        W36598   9.545   4.353  13.837 -0.1244 -0.2646  0.0892
20465W        W36599  17.343   6.197   3.180  0.0043  0.2608 -0.0532
20466W        W36600   0.943  10.147  11.998 -0.1084 -0.1128 -0.2810
20467W        W36601  14.461  11.390  15.004  0.0021  0.2585 -0.1395
20468W        W36602  14.821   0.541  11.428 -0.0138  0.0540  0.0548
20469W        W36603  15.046   9.283   0.285 -0.1732 -0.0038  0.2196
20470W        W36604   4.724   5.755  13.053  0.1050 -0.0388 -0.0979
20471W        W36605   1.101   0.429  12.217  0.0980  0.0297 -0.2815
20472W        W36606  14.493  12.817   1.049  0.1249 -0.0972 -0.0901
20473W        W36607   8.397  13.921   3.630  0.0061 -0.0281  0.1344
20474W        W36608  15.255  17.581  12.363  0.0397 -0.1919  0.2053
20475W        W36609   9.417  10.847   2.515 -0.1055  0.2709  0.0265
20476W        W36610   9.813   0.216  16.024  0.0306 -0.1559 -0.2317
20477W        W36611   8.145   3.110   5.486 -0.3087  0.0333  0.2514
20478W        W36612   3.607   4.521   0.879  0.0416  0.4054  0.0578
20479W        W36613   5.416   6.765  15.916  0.0873  0.1435 -0.2770
20480W        W36614  10.311   7.521  14.959  0.2048  0.0517 -0.0949
20481W        W36615  12.271   2.977   0.942  0.0208 -0.1517  0.1013
20482W        W36616   8.239  12.892   0.203 -0.0648  0.1087 -0.0423
20483W        W36617  15.262  17.476   1.850 -0.0431 -0.2122  0.1417
20484W        W36618   7.903   4.639  16.458  0.2973 -0.2275  0.2267
20485W        W36619   8.977   2.086  13.064 -0.1505 -0.0957 -0.1980
20486W        W36620  10.381   3.881   2.464 -0.0919  0.0271 -0.1060
20487W        W36621  16.341  12.870  16.133  0.1506 -0.0978  0.4495
20488W        W36622  14.958  15.266   4.499 -0.2343  0.0626 -0.0685
20489W        W36623   9.318  13.221   4.999  0.0259 -0.2325 -0.2132
20490W        W36624  14.989   8.307   4.760 -0.0306  0.2480 -0.3613
20491W        W36625  17.369  16.834   3.006 -0.0308 -0.2428 -0.3524
20492W        W36626  14.906   4.824   0.212 -0.0793  0.0418 -0.0828
20493W        W36627  11.307  14.789  13.554 -0.0083 -0.0175 -0.0692
20494W        W36628   4.811  14.233  13.977 -0.1678 -0.1429 -0.4916
20495W        W36629   1.265   2.690  14.681 -0.1311 -0.0688 -0.0131
20496W        W36630  15.917   9.125  15.405 -0.1842  0.2133  0.1364
20497W        W36631  16.527  10.996   4.743 -0.1193 -0.2237  0.2099
20498W        W36632  17.517  16.858   4.871  0.2149 -0.0650  0.1423
20499W        W36633  10.155   5.354  13.384  0.0559 -0.1185  0.0516
20500W        W36634   4.651  10.265  16.377 -0.1405  0.3300 -0.0440
20501W        W36635   8.445  13.561  13.040 -0.1192  0.1043  0.1531
20502W        W36636   6.732   5.111  15.854  0.3269 -0.1440 -0.0606
20503W        W36637  13.674  17.287   2.953  0.3420  0.1332  0.1977
20504W        W36638  16.852   9.083   1.457 -0.1162 -0.0808 -0.1135
20505W        W36639   7.560   0.298   1.122 -0.0321 -0.0921  0.2379
20506W        W36640   0.437   6.436  12.238  0.1965 -0.3700 -0.1836
20507W        W36641  10.717  13.111  15.085  0.1378  0.0069  0.2098
20508W        W36642  15.861   1.077  14.163 -0.0135 -0.0678 -0.1236
20509W        W36643  12.030  13.878   2.385  0.0605  0.0444 -0.1586
20510W        W36644   4.342   5.295   5.267 -0.0594  0.0054 -0.1626
20511W        W36645  16.111   0.627  11.512 -0.0250 -0.0180  0.1611
20512W        W36646  11.929   2.077   2.917 -0.0645  0.1287  0.2120
20513W        W36647   0.933   4.534  11.147  0.1042 -0.3790 -0.2768
20514W        W36648  16.752   3.312  14.986  0.2360  0.1999 -0.0608
20515W        W36649   0.985   0.118   4.403 -0.1145  0.2145  0.0928
20516W        W36650   4.095   7.853  15.993 -0.2333 -0.3077  0.0812
20517W        W36651  15.037  14.006  14.146 -0.1667 -0.0328 -0.1417
20518W        W36652   3.156  17.900   3.109  0.1605 -0.0540 -0.0509
20519W        W36653  17.784  16.885   1.824  0.1110 -0.1426  0.2895
20520W        W36654   1.504   0.098   4.262 -0.0583 -0.1403 -0.0290
20521W        W36655  10.069   2.027   4.737 -0.0590 -0.2974  0.1611
20522W        W36656   4.752   7.027  16.337  0.1779  0.1261 -0.2928
20523W        W36657   5.697   9.511   1.616 -0.2027 -0.0380  0.0747
20524W        W36658   5.407  17.632   2.920 -0.1366 -0.1426  0.0794
20525W        W36659  11.217   9.944  14.405  0.2694 -0.1067  0.2316
20526W        W36660  12.076  16.516  16.151  0.2360  0.0651 -0.0581
20527W        W36661   7.433  14.967   5.745  0.2652 -0.1919 -0.4819
20528W        W36662   4.655  17.023  14.139 -0.0178  0.2278  0.1300
20529W        W36663   4.856  16.971   2.706  0.1337  0.1188 -0.0589
20530W        W36664   2.778   2.517   6.098 -0.0826  0.0106  0.1600
20531W        W36665   1.991   4.091  12.363 -0.0937 -0.3185  0.0422
20532W        W36666  14.904  10.691  13.763  0.2257  0.2997  0.1343
20533W        W36667   8.054  17.441  15.666  0.0109  0.2423 -0.0499
20534W        W36668   9.554   7.677   3.509 -0.1223 -0.3423  0.0428
20535W        W36669   1.396  17.552   1.998  0.0309 -0.0721 -0.3005
20536W        W36670  13.437   3.009   0.616 -0.0387  0.2399 -0.0185
20537W        W36671  15.565   4.131  14.190 -0.0525  0.2145  0.1968
20538W        W36672  14.337   6.863  12.830 -0.0856  0.0327  0.0515
20539W        W36673  14.535   1.738   4.169 -0.1610 -0.2866 -0.2326
20540W        W36674  14.046   0.235  16.186 -0.2520 -0.3189 -0.1193
20541W        W36675   8.858   1.505   4.217  0.0683  0.1768 -0.1327
20542W        W36676  17.958   1.078  12.844 -0.1688  0.1567  0.1119
20543W        W36677   4.973  15.805   0.939 -0.0856  0.4239 -0.2579
20544W        W36678   1.867   2.758  15.707  0.2904  0.0608  0.2062
20545W        W36679   8.114   9.156   5.115 -0.0160  0.0412  0.1102
20546W        W36680  13.766  15.084   5.776 -0.4442  0.0660 -0.0631
20547W        W36681   8.910  11.633   1.042 -0.0704  0.2279 -0.3265
20548W        W36682  15.428   8.397   0.261  0.2071  0.0475  0.1814
20549W        W36683  12.147  11.590   0.169  0.0027 -0.0512  0.0108
20550W        W36684  12.423   9.874   1.974  0.0887 -0.1697 -0.0313
20551W        W36685  16.550   2.163   5.448  0.2241  0.0498 -0.0449
20552W        W36686   9.076  12.201   2.102 -0.2737  0.0765 -0.1171
20553W        W36687   4.947  16.608  12.722  0.2026 -0.3429 -0.0185
20554W        W36688   3.403   4.047   2.697  0.2034 -0.0237  0.1222
20555W        W36689  14.243  11.735   3.134 -0.1188 -0.0386 -0.2449
20556W        W36690  12.219   5.790  14.746 -0.0841 -0.3566 -0.4902
20557W        W36691  11.014   4.523  15.313 -0.0575  0.0182 -0.1819
20558W        W36692   2.430   0.672  12.619  0.0548 -0.0667  0.1388
20559W        W36693   5.837  11.285  13.625 -0.0213  0.3590  0.1054
20560W        W36694   8.097  13.260  13.351 -0.0563  0.1360 -0.0108
20561W        W36695   9.089   5.311  15.505 -0.0129  0.1077  0.1231
20562W        W36696  16.399  11.899   0.859 -0.0683  0.1173 -0.2322
20563W        W36697  10.327   7.262   0.220  0.0992 -0.0656 -0.0410
20564W        W36698   6.001   2.377  11.230 -0.0715 -0.1004  0.1280
20565W        W36699  17.928   2.257   5.106  0.1604 -0.0379 -0.1074
20566W        W36700   9.139   9.659  11.337 -0.2268  0.2330 -0.1785
20567W        W36701  10.893   0.901  15.846  0.0389  0.1309  0.0731
20568W        W36702   4.914   2.461   2.200  0.1023  0.2707 -0.4272
20569W        W36703  15.072   2.708   2.509 -0.2117  0.2265  0.3529
20570W        W36704  12.559  13.689  16.642  0.3628 -0.1853 -0.3451
20571W        W36705  12.756  12.645  11.843  0.2244  0.0556 -0.0532
20572W        W36706  17.183  14.667  14.620 -0.0100  0.0603 -0.0736
20573W        W36707   2.206   6.494   0.647  0.1869  0.0288 -0.0954
20574W        W36708   4.423  14.095  15.478  0.0451 -0.0817  0.3566
20575W        W36709   3.243   7.692  12.086  0.0547  0.1943 -0.2229
20576W        W36710   9.052   6.053  13.308  0.0662  0.2594  0.0625
20577W        W36711   7.399  14.840  16.691  0.0843  0.0429  0.2123
20578W        W36712  10.202  12.113   0.936 -0.1856 -0.1677 -0.1468
20579W        W36713   1.106   1.822  13.070 -0.2990 -0.1378  0.2639
20580W        W36714   6.825  11.787  15.367  0.0804  0.2614  0.1809
20581W        W36715   8.035   4.854   4.412  0.0136 -0.1401 -0.2590
20582W        W36716   3.684   2.476   3.489  0.0553  0.0934 -0.1917
20583W        W36717  11.237  17.620   0.997  0.1762 -0.0366 -0.0627
20584W        W36718  15.182  10.658  10.587 -0.1070  0.1285  0.2632
20585W        W36719   5.334  12.737   4.969 -0.0560  0.0243  0.0590
20586W        W36720  16.094  14.996   0.066 -0.3843  0.0857  0.1563
20587W        W36721   2.535  16.160   1.195  0.2712 -0.1578  0.1259
20588W        W36722   4.900  17.340  12.757  0.1703  0.2718 -0.0067
20589W        W36723  16.809  14.226   1.263  0.1324 -0.0993 -0.4674
20590W        W36724   8.083   3.076   0.477  0.2729 -0.0075  0.1682
20591W        W36725  17.148   5.673   5.344 -0.1412 -0.3862  0.0217
20592W        W36726  12.311   5.825  13.911  0.1235 -0.0210  0.2953
20593W        W36727  17.823   6.407  13.832 -0.3315 -0.0250  0.1326
20594W        W36728   3.674  12.394   4.265 -0.3962  0.0215  0.0062
20595W        W36729   9.803   6.075  12.869  0.0589  0.1399 -0.2089
20596W        W36730  11.093  13.258  14.242  0.1621 -0.1082  0.0335
20597W        W36731   7.680   7.447  15.953 -0.3482 -0.0289  0.0491
20598W        W36732  13.589   4.954  13.355  0.0089 -0.1588  0.1505
20599W        W36733   0.392  10.607   1.046  0.1661  0.0343 -0.1364
20600W        W36734   6.301   4.017   3.078 -0.0548  0.0744  0.1383
20601W        W36735   5.744  11.216  12.067 -0.3024  0.2530 -0.1898
20602W        W36736   6.398  17.731   0.516 -0.1368 -0.1858 -0.1456
20603W        W36737   6.873  12.781   3.382 -0.2682  0.2426 -0.0134
20604W        W36738   7.616   2.300  11.708 -0.1582 -0.0961 -0.3163
20605W        W36739   0.816   9.943  10.902  0.0686 -0.5120 -0.1322
20606W        W36740   3.349   7.045  13.240  0.1672 -0.0744 -0.2127
20607W        W36741   7.561  10.666   0.947 -0.1684  0.0098  0.1603
20608W        W36742   5.565   6.951  11.389 -0.0854  0.0977 -0.0515
20609W        W36743   6.763  14.484   0.632 -0.0464  0.5063  0.0072
20610W        W36744   5.491  15.598  15.527  0.1078 -0.0081  0.0060
20611W        W36745   2.760  16.715  14.803 -0.3255  0.1821  0.2762
20612W        W36746   9.099   3.801  12.364  0.4242  0.4913  0.1397
20613W        W36747   4.739   6.684   4.709 -0.1439  0.2078 -0.0641
20614W        W36748   3.066   7.142   1.946 -0.1284 -0.0414 -0.1900
20615W        W36749  12.799  17.722   0.343  0.1435  0.2517 -0.1295
20616W        W36750  14.716   4.282  15.932  0.0163  0.3656 -0.1209
20617W        W36751  12.924   1.211   5.258  0.3736  0.0196 -0.0861
20618W        W36752   0.154   0.624   4.603  0.0015  0.3375 -0.0483
20619W        W36753  14.044   6.439   3.205  0.0886  0.0431  0.0252
20620W        W36754  15.899  15.010  12.373  0.0052 -0.0779 -0.3099
20621W        W36755   1.785  10.713  14.330  0.0533 -0.1704  0.0976
20622W        W36756   7.834   2.654  15.072  0.0414  0.0638  0.1767
20623W        W36757  11.868   4.565   4.659  0.1833 -0.0324  0.0335
20624W        W36758   8.850   7.924  14.572  0.0542 -0.2844  0.2091
20625W        W36759  17.904   2.031  14.667 -0.2317  0.0742  0.0018
20626W        W36760  16.300  11.889   3.566 -0.0007  0.2743  0.1058
20627W        W36761  15.181  12.148  14.393  0.2211  0.1371  0.1654
20628W        W36762   7.805  16.825  14.331 -0.0455  0.1315  0.1006
20629W        W36763  12.264  14.450   6.133  0.0200 -0.0514 -0.0352
20630W        W36764  13.244   6.380   0.254 -0.3303  0.1527 -0.2526
20631W        W36765   3.588  12.706   5.636 -0.1472 -0.2723  0.3380
20632W        W36766   5.330   7.250  14.591  0.0193 -0.0653 -0.3165
20633W        W36767  14.164   4.949   4.381 -0.3494  0.0705 -0.2121
20634W        W36768   4.583   9.109   2.011  0.1656  0.1670 -0.1728
20635W        W36769  15.549   4.953   1.375  0.0294  0.2894 -0.0479
20636W        W36770   7.016  16.714  11.224  0.1772 -0.1208 -0.0500
20637W        W36771   3.531   7.100   2.972  0.0396  0.2251  0.3322
20638W        W36772  17.284  15.710  15.659  0.0630  0.3766 -0.1549
20639W        W36773   0.508   4.200  11.301 -0.0818 -0.3315  0.1831
20640W        W36774  12.880   1.851   0.653 -0.1660 -0.4470 -0.3085
20641W        W36775  14.842   8.281   2.569  0.1218 -0.2011  0.0388
20642W        W36776  11.281   4.228   3.405  0.0984 -0.2532 -0.2469
20643W        W36777   7.114   7.995   2.187 -0.0523 -0.1800  0.2881
20644W        W36778  15.170  15.811   2.111  0.1274  0.3229 -0.1159
20645W        W36779   7.238   8.720   0.852 -0.0487  0.4396 -0.0734
20646W        W36780   0.811  17.753  13.032  0.2033  0.1553  0.1989
20647W        W36781  16.325   3.533   3.737 -0.0153  0.2726  0.1343
20648W        W36782   6.812  12.151  10.897  0.1418  0.1733  0.0337
20649W        W36783   2.245   3.660   5.094 -0.0444 -0.3119 -0.2394
20650W        W36784   6.016  10.246   5.882  0.0408 -0.0734  0.2391
20651W        W36785  12.956   0.581  12.198  0.1393  0.0429  0.3224
20652W        W36786   2.261  13.563  14.398  0.3331  0.3199  0.2078
20653W        W36787   9.008  16.478   4.267  0.3664  0.1994 -0.2413
20654W        W36788  10.229   4.976   0.318 -0.1958 -0.4398 -0.0482
20655W        W36789   7.515   2.477  12.805 -0.0376  0.0296 -0.2487
20656W        W36790   1.349   1.485  12.824  0.3030  0.0368 -0.0100
20657W        W36791   5.869  17.463  15.208  0.4594 -0.2368 -0.1807
20658W        W36792   4.879   5.411  12.084  0.3191  0.0900  0.0211
20659W        W36793   4.273  12.959   0.290 -0.2817  0.1310  0.3036
20660W        W36794  17.766   6.381   4.329 -0.0600 -0.2072 -0.3154
20661W        W36795  17.673  13.932   6.440  0.1232  0.1803 -0.2232
20662W        W36796   6.462   2.687   4.291  0.0840  0.0040 -0.0550
20663W        W36797  16.177   6.748   0.153  0.2982  0.0828  0.2004
20664W        W36798   3.027  10.022  11.385  0.0851  0.2450  0.1236
20665W        W36799  12.831   0.407   4.543 -0.0132  0.3160  0.1039
20666W        W36800   8.386   0.792  15.430  0.0179  0.0751 -0.1161
20667W        W36801   3.099  17.780   1.565  0.2588  0.3171 -0.0130
20668W        W36802   4.783   5.485  15.836  0.1935  0.0836 -0.0554
20669W        W36803  16.267   3.767   4.940 -0.2117  0.0620  0.0817
20670W        W36804   2.879   8.498   5.190 -0.0921  0.1482  0.0902
20671W        W36805  10.263  15.735   5.870  0.0267  0.0695  0.2695
20672W        W36806   1.848  12.752   4.915  0.0255  0.1648  0.2071
20673W        W36807  12.490  11.697   5.586 -0.0489 -0.2327 -0.0644
20674W        W36808   9.622   8.213  15.545 -0.2855 -0.2637  0.0557
20675W        W36809  10.469  13.861  16.464  0.0281  0.2308 -0.0140
20676W        W36810  15.499  10.390   5.823 -0.2257  0.0095 -0.0484
20677W        W36811   0.964  15.575  12.199  0.0430  0.3639  0.0083
20678W        W36812  13.451   8.563  13.623 -0.1402 -0.3222 -0.2627
20679W        W36813  12.188   6.370  13.884 -0.0707  0.1724  0.0193
20680W        W36814  14.385  15.977  13.528  0.1210 -0.2380  0.0426
20681W        W36815   3.607   9.575  12.868  0.2584 -0.0953  0.0722
20682W        W36816   2.965   5.008   4.913 -0.0921  0.2182  0.2333
20683W        W36817   2.375  10.403  11.748  0.0763 -0.1092  0.0572
20684W        W36818  15.046  17.131   3.995  0.1669  0.3636  0.0166
20685W        W36819   6.346   8.460   3.510  0.1408 -0.3118 -0.0412
20686W        W36820   4.652  17.456   1.585  0.0555 -0.1804 -0.0121
20687W        W36821   5.546   0.765   0.496 -0.1840  0.0490  0.1470
20688W        W36822  15.006   2.620   0.588 -0.2328  0.0703  0.4574
20689W        W36823  12.854  14.568   4.470  0.0910 -0.0399 -0.0247
20690W        W36824  13.041   4.952   1.583 -0.2076 -0.2520 -0.1489
20691W        W36825  10.909  10.019   0.642 -0.1392 -0.1347 -0.0601
20692W        W36826   1.997   7.626   5.679  0.0580  0.0869  0.0374
20693W        W36827   5.975   5.500  14.306 -0.0537 -0.0617  0.1586
20694W        W36828  14.549   5.271   4.599 -0.0492 -0.2195  0.1111
20695W        W36829  12.594   8.429  16.234 -0.1172 -0.3825 -0.1413
20696W        W36830  11.430  15.315   5.439 -0.0893 -0.0856  0.0959
20697W        W36831  10.728   4.919   1.671 -0.3037 -0.0363  0.0412
20698W        W36832  17.942   6.567  13.356  0.0095 -0.1591 -0.2089
20699W        W36833   5.434   0.680   2.192 -0.0864 -0.2531  0.2986
20700W        W36834   9.280   9.161   5.001  0.1119 -0.0214 -0.2613
20701W        W36835   0.873   3.681  15.551  0.0469  0.0458  0.2891
20702W        W36836  14.595   0.008   3.770  0.1774  0.0682  0.1651
20703W        W36837   8.171   0.220   5.293 -0.3056  0.2092 -0.1192
20704W        W36838  15.535  11.544   0.782 -0.2215 -0.0618 -0.0030
20705W        W36839  16.507   1.830   5.064 -0.2839  0.0130 -0.0358
20706W        W36840   0.725   4.118   5.077 -0.1998 -0.0677 -0.1380
20707W        W36841  11.063  11.652  16.564 -0.0798  0.1931  0.2463
20708W        W36842   8.982   5.963  16.617  0.3259  0.3519  0.2075
20709W        W36843   3.556   5.141  14.610 -0.0156  0.3419  0.1923
20710W        W36844   8.891   9.512   4.791  0.1042  0.0489 -0.0622
20711W        W36845  11.159  12.584   4.927 -0.1573  0.0527  0.0135
20712W        W36846   1.637   8.366   0.545  0.0639  0.3403 -0.0482
20713W        W36847  16.662  13.890  12.273 -0.0465 -0.0050 -0.1194
20714W        W36848  17.368  15.206  14.974 -0.0252 -0.0603 -0.0962
20715W        W36849  13.810  11.081  13.796 -0.0253  0.0928 -0.3287
20716W        W36850   0.484   1.890   1.357 -0.1151 -0.0009 -0.2282
20717W        W36851   2.126   9.966  13.579  0.0111  0.0554  0.1074
20718W        W36852   8.239  15.066  16.116 -0.1168 -0.2858  0.0801
20719W        W36853  16.923  10.007   4.935  0.1353 -0.1651  0.1254
20720W        W36854  11.198  16.113  16.258 -0.0196 -0.2072  0.1614
20721W        W36855   2.681   6.668   0.729 -0.3645  0.2124  0.1013
20722W        W36856  17.677   7.054  16.070  0.1704 -0.0472  0.1697
20723W        W36857   1.429   1.308   1.258 -0.0282 -0.1364  0.1115
20724W        W36858   1.004  17.537   0.835 -0.0474 -0.2041 -0.0087
20725W        W36859   2.996  10.500   3.111 -0.2102 -0.1000 -0.1905
20726W        W36860   2.804   7.735   4.504  0.1060  0.0029  0.0660
20727W        W36861   1.040   7.088   5.824  0.3450  0.4231 -0.0704
20728W        W36862  10.662  12.443   1.513 -0.3109 -0.1515 -0.0052
20729W        W36863  11.272   1.210   4.789 -0.0549 -0.0232 -0.2344
20730W        W36864   9.268  16.186  12.238  0.1668  0.1641 -0.0299
20731W        W36865   4.225   0.309   5.831  0.2791  0.1072  0.4066
20732W        W36866   5.879   3.116   2.120 -0.1904 -0.0871 -0.2217
20733W        W36867   7.058  16.232  14.247  0.0807 -0.1501  0.0596
20734W        W36868   5.675   4.915  11.973 -0.0187  0.0908 -0.0578
20735W        W36869   2.061   8.202   3.163  0.0965 -0.0913 -0.0181
20736W        W36870   8.995   6.219   2.755 -0.0527  0.1293  0.0857
20737W        W36871  16.085   8.949   4.006  0.1949 -0.1047  0.0839
20738W        W36872  16.249  15.477   2.823 -0.2580 -0.0741  0.0161
20739W        W36873  11.044   4.485   0.013 -0.0788  0.1443 -0.2343
20740W        W36874  14.063   8.977  14.104 -0.1143 -0.1008  0.0368
20741W        W36875   4.137  10.836  12.350 -0.1828  0.0529 -0.1169
20742W        W36876  16.498  15.877  14.060  0.2111 -0.0720 -0.1703
20743W        W36877   5.406  16.860  15.174  0.2299 -0.0647  0.2468
20744W        W36878   8.033  14.529  12.175  0.1444  0.2189  0.0992
20745W        W36879  12.248   6.274  14.750  0.2329  0.0443 -0.0528
20746W        W36880  15.399   9.939   5.679 -0.1442  0.1110  0.0383
20747W        W36881   7.406   1.621   1.397 -0.0263  0.3893  0.2223
20748W        W36882  10.106  16.475  11.620 -0.0719  0.0829 -0.1729
20749W        W36883  10.976   0.288  13.076  0.1428 -0.1432  0.2894
20750W        W36884  14.034  13.215  13.985  0.1787 -0.3584  0.0154
20751W        W36885  10.555   3.505   1.924 -0.4218  0.3170 -0.1241
20752W        W36886  15.575  13.110   3.922  0.3585 -0.0777 -0.3181
20753W        W36887   3.452  15.810   4.970  0.0481  0.1759  0.0763
20754W        W36888  12.032  10.405   1.916  0.0102 -0.3484 -0.2150
20755W        W36889  15.598  14.324  11.993 -0.1286  0.2118 -0.0774
20756W        W36890   0.282   8.466   3.546 -0.2041  0.0306  0.0001
20757W        W36891  16.886  15.317  12.423 -0.1957 -0.1032 -0.3292
20758W        W36892  13.150  10.532   4.383 -0.0551 -0.0671  0.1900
20759W        W36893  17.177  10.329   0.096  0.0591 -0.0079 -0.0418
20760W        W36894   2.169   0.623  15.756  0.1116 -0.0047  0.1104
20761W        W36895   9.894   6.776   3.424 -0.1602  0.1002 -0.0662
20762W        W36896  15.537  12.754   2.117  0.3781  0.0317 -0.0935
20763W        W36897  15.178   6.558  13.402 -0.1802  0.4014 -0.2500
20764W        W36898   1.364   4.236   1.374 -0.1753  0.1400  0.4040
20765W        W36899   3.121  16.777  12.821 -0.2603 -0.2383 -0.1064
20766W        W36900  12.853   9.539  11.542 -0.1477 -0.0941  0.1769
20767W        W36901  13.394  15.448  13.645 -0.1779  0.2779  0.3676
20768W        W36902  11.519   5.204  14.973 -0.1082  0.0450 -0.0559
20769W        W36903   2.027   2.503   2.578 -0.3580 -0.2162  0.0289
20770W        W36904   3.041  12.294   4.582  0.1380 -0.1212 -0.3401
20771W        W36905   9.580  17.712  16.603  0.0411  0.1584 -0.1567
20772W        W36906  17.648   4.133  13.062  0.0107 -0.1653  0.0991
20773W        W36907  12.681  10.674   3.552 -0.1258  0.0183  0.0082
20774W        W36908  15.730   2.095   2.326 -0.0034 -0.1641 -0.0988
20775W        W36909   3.808   5.840  14.160  0.1628  0.2704  0.0483
20776W        W36910   8.696   8.562  15.833 -0.0858 -0.0022  0.0453
20777W        W36911   5.712   9.369   1.078 -0.0190 -0.4534 -0.1714
20778W        W36912   4.033  17.037  13.108 -0.1033 -0.4024 -0.0783
20779W        W36913   9.382   8.995  13.601  0.0895  0.0904 -0.0410
20780W        W36914  14.839   5.559   3.882  0.0740  0.0849 -0.0705
20781W        W36915   8.884  17.043  16.616 -0.1315  0.0736  0.2023
20782W        W36916   7.588   1.164   1.597  0.0969 -0.1960 -0.3362
20783W        W36917   5.950   4.395  13.526 -0.0064  0.0576 -0.0670
20784W        W36918   4.789  15.852   2.485  0.1854 -0.3446 -0.3635
20785W        W36919   7.626  14.164   3.044 -0.1810  0.3024 -0.0171
20786W        W36920  14.503  16.342   2.670  0.0597 -0.0558 -0.2408
20787W        W36921   9.567  11.309   1.620 -0.0818 -0.0309 -0.0489
20788W        W36922   2.680  16.819   3.981 -0.3113  0.1420  0.2954
20789W        W36923  12.967  11.513   0.526 -0.0876  0.2562  0.1165
20790W        W36924   8.777   8.191  11.040  0.0193 -0.0176  0.0370
20791W        W36925  13.225  14.309  11.603  0.1061  0.4139 -0.0427
20792W        W36926   8.283   1.232   5.515 -0.1046 -0.0783 -0.1419
20793W        W36927  15.449  12.274   6.394  0.2900 -0.1311  0.1311
20794W        W36928  13.943  12.581   1.086  0.1351 -0.1020  0.2743
20795W        W36929  11.134   6.516   1.046  0.1715  0.3430 -0.2038
20796W        W36930  10.926   6.033   6.324 -0.2787 -0.1062 -0.2725
20797W        W36931  17.528   7.254   0.274 -0.2759  0.0241 -0.0807
20798W        W36932  11.000   1.870   1.787  0.0812  0.1471  0.3384
20799W        W36933  11.748   2.787   6.385 -0.1651  0.2143  0.2606
20800W        W36934  11.955  14.061   4.199  0.1180 -0.4097 -0.0090
20801W        W36935   0.206   1.656  14.031 -0.1041  0.1393 -0.3540
20802W        W36936  13.452  15.509  15.211  0.1036 -0.1646 -0.0733
20803W        W36937  11.741   3.867   0.227 -0.1241 -0.0569  0.3841
20804W        W36938  15.555   4.124   1.289 -0.2899 -0.1255  0.0450
20805W        W36939  11.578   3.335   5.198 -0.1507 -0.2673  0.2167
20806W        W36940   7.648   0.290  13.482  0.4700  0.2485 -0.2150
20807W        W36941   8.542  10.594   2.836  0.1485 -0.1428  0.0206
20808W        W36942  13.089   6.253   5.659 -0.0602  0.0598  0.2346
20809W        W36943  12.766  14.098  14.757  0.1030  0.3073 -0.3300
20810W        W36944   1.374  16.223   1.933  0.2081  0.0871 -0.4894
20811W        W36945   7.400  17.290  12.387  0.2304 -0.0788  0.2071
20812W        W36946  16.149   5.867  11.377 -0.1060  0.0038 -0.2964
20813W        W36947  13.513   5.054   4.940  0.1083  0.0785 -0.0256
20814W        W36948   9.157   1.503  12.788  0.2387  0.0075 -0.0057
20815W        W36949  13.047   9.287   5.248 -0.0449  0.2494 -0.1859
20816W        W36950  17.168   1.839   1.280  0.1928 -0.0593 -0.3780
20817W        W36951  11.861  16.656  13.136  0.1754 -0.1518 -0.2215
20818W        W36952  15.706  17.761   0.533 -0.1098 -0.1038  0.1664
20819W        W36953  15.058   3.500   4.473 -0.1832  0.0969  0.1535
20820W        W36954  15.326   9.776   2.636  0.1120  0.1006  0.1261
20821W        W36955  16.530   6.682   5.541  0.0331  0.0632  0.0228
20822W        W36956  16.681   9.024  13.841  0.0345 -0.3359 -0.2626
20823W        W36957  10.719  10.460   5.559  0.1541 -0.1039  0.3359
20824W        W36958   3.638  16.233  11.549 -0.1589  0.0131  0.6123
20825W        W36959  12.634   6.394   4.800  0.0556  0.3107 -0.0872
20826W        W36960   1.899   7.283   4.106 -0.0295  0.2477 -0.2185
20827W        W36961   3.890   0.043  15.855  0.1161  0.0475 -0.0481
20828W        W36962  16.789   6.208   0.914 -0.3103 -0.0055 -0.0445
20829W        W36963  14.342  10.468   0.313 -0.0846  0.1282  0.0333
20830W        W36964   9.147  10.009  12.650  0.1618 -0.0182  0.4249
20831W        W36965  16.339   9.619   5.005  0.2292  0.0110  0.0111
20832W        W36966   8.678   3.951  14.993 -0.1154  0.3083  0.0566
20833W        W36967  11.717  16.520   3.705 -0.0787  0.0885  0.1804
20834W        W36968  13.673   8.442   0.219  0.3555  0.1993  0.0490
20835W        W36969  13.806  13.265  15.800  0.0911 -0.0382  0.1818
20836W        W36970   6.240   3.576  13.154  0.2039  0.0401 -0.1775
20837W        W36971   3.949   8.173  13.924 -0.0763 -0.1509  0.0249
20838W        W36972   7.188  11.564   4.009 -0.1651  0.0692  0.2309
20839W        W36973  17.931   3.277  14.395  0.1748 -0.3004 -0.0045
20840W        W36974   5.047   9.985   2.131 -0.1374 -0.0093  0.0280
20841W        W36975  11.968  14.024   1.016 -0.0802  0.0111 -0.0481
20842W        W36976   5.360   0.815   5.311 -0.0698 -0.0453 -0.1262
20843W        W36977  10.980   1.739  13.712 -0.0627 -0.2638 -0.0105
20844W        W36978   2.833   0.370  13.599  0.0367  0.2425 -0.2168
20845W        W36979   9.223  16.146  11.753 -0.0990 -0.0928  0.1006
20846W        W36980   0.644  15.039   1.274  0.0915 -0.0412  0.2188
20847W        W36981   6.780   6.527  11.597 -0.1547 -0.1786 -0.1466
20848W        W36982  10.885  13.082   0.201 -0.1437 -0.0823  0.1433
20849W        W36983   9.056   1.199   3.844 -0.2528 -0.2383  0.1225
20850W        W36984   4.831   1.484   1.026 -0.0962  0.0180 -0.0647
20851W        W36985   6.360   4.532   0.350 -0.0461  0.0585 -0.1279
20852W        W36986  11.930   9.485   5.380 -0.3124  0.4083 -0.1509
20853W        W36987   4.184   6.013  15.375 -0.1917  0.1747  0.0638
20854W        W36988  11.790  15.177   1.142  0.0630  0.0420 -0.1607
20855W        W36989  12.763   2.531   1.949 -0.0964 -0.0186  0.3147
20856W        W36990  10.276   7.914  13.185 -0.4125  0.1036 -0.0520
20857W        W36991  11.599   1.924  16.666  0.0615  0.1011  0.0166
20858W        W36992  12.003   3.733   1.351  0.0049  0.1354  0.1722
20859W        W36993  13.903  13.461  14.388  0.2422 -0.3016 -0.1537
20860W        W36994  13.446   7.924  14.946  0.2157  0.0801 -0.2206
20861W        W36995   1.544  16.955   2.661 -0.4092  0.0145 -0.0705
20862W        W36996   7.321  14.349   4.811  0.0282  0.0832  0.0223
20863W        W36997  16.950  13.917   1.677  0.0199  0.2429 -0.1427
20864W        W36998   0.142   3.774  14.300  0.0610  0.1841  0.2157
20865W        W36999   5.228   7.865   1.069 -0.2194  0.2996 -0.3118
20866W        W37000   3.006  13.116   1.584 -0.0313 -0.0338 -0.1994
20867W        W37001  13.098  10.508  16.399 -0.0940 -0.1122 -0.0361
20868W        W37002   1.509  12.377   4.845  0.0354 -0.0290 -0.2039
20869W        W37003   4.691   4.673  14.741 -0.2939 -0.0580 -0.0347
20870W        W37004  15.067   2.484  11.763  0.2406 -0.1080  0.0764
20871W        W37005   5.869   7.455  16.544 -0.1848 -0.1505 -0.0502
20872W        W37006  14.721   3.911   5.314  0.1271  0.0343  0.2071
20873W        W37007  14.202  12.355   2.388  0.0360  0.5377 -0.2102
20874W        W37008  14.643   8.067   4.358 -0.3852 -0.0945 -0.0240
20875W        W37009  11.206  15.121  12.298 -0.1491  0.0843 -0.0083
20876W        W37010  15.100   9.387   2.416  0.4347  0.0614 -0.0577
20877W        W37011  13.382   0.723   4.054  0.2300 -0.1575  0.1037
20878W        W37012  16.568   4.385  13.325  0.0739  0.0157 -0.0230
20879W        W37013   6.820  16.663  11.932 -0.0871 -0.0742 -0.1150
20880W        W37014   8.540  10.124   3.065  0.1109  0.0532  0.0002
20881W        W37015   6.669   3.818  16.556 -0.2216 -0.1972 -0.1549
20882W        W37016   3.088   3.079  15.025 -0.4217  0.0118 -0.1090
20883W        W37017   5.210   5.042  14.605  0.1352 -0.0608 -0.3949
20884W        W37018  13.357   4.294   1.512 -0.0631  0.1991  0.0316
20885W        W37019  12.363  16.926   0.292  0.1349 -0.0852 -0.0066
20886W        W37020   1.051   1.657  16.545 -0.0331 -0.0978  0.1723
20887W        W37021   0.756   4.012   0.686  0.2545 -0.1054  0.0747
20888W        W37022   0.851  13.001   1.262 -0.2641 -0.0141 -0.1473
20889W        W37023   3.479   8.924  13.487 -0.0297  0.1295 -0.0017
20890W        W37024  15.239   5.954   1.351 -0.1066 -0.1807  0.0313
20891W        W37025  15.306  17.966  15.963 -0.1315 -0.2712  0.0713
20892W        W37026   6.319   8.184   0.520  0.0038 -0.2700 -0.0188
20893W        W37027  12.100   7.689   0.235  0.2249 -0.0689  0.0228
20894W        W37028   9.264  15.715   3.865 -0.1943 -0.1422  0.1300
20895W        W37029  14.884   6.878   2.254  0.2591  0.1948  0.1153
20896W        W37030   4.985  13.756   5.567 -0.2013 -0.0897 -0.1395
20897W        W37031  14.555   8.407   3.314 -0.0671 -0.0210  0.0748
20898W        W37032   9.431  12.906  15.368 -0.3134  0.2640 -0.0455
20899W        W37033  16.887  13.706   1.245 -0.2625 -0.0356 -0.0753
20900W        W37034   2.484  14.573   2.372  0.0860 -0.2403  0.1987
20901W        W37035   0.016  10.140   3.187  0.4382 -0.2827 -0.0898
20902W        W37036   8.046  14.268  13.438 -0.0164  0.0770  0.1150
20903W        W37037   0.779  12.875   5.791  0.0005  0.0511  0.0873
20904W        W37038  14.870  15.032   0.447 -0.0284 -0.2021  0.1669
20905W        W37039  14.227   4.413   1.579 -0.1606 -0.1547  0.3264
20906W        W37040   3.268   8.076  14.531  0.3319  0.0345 -0.1913
20907W        W37041   3.671  16.883   2.277  0.0309 -0.0352  0.0515
20908W        W37042  10.905   2.128   1.373  0.1226 -0.2552 -0.0121
20909W        W37043  16.252   1.895  13.278  0.1385 -0.1259 -0.1101
20910W        W37044   3.845  11.952  15.910  0.3229  0.1893  0.0790
20911W        W37045   9.954   4.328  12.185  0.1824  0.0097 -0.0620
20912W        W37046  16.946   9.418   3.848  0.2149  0.1234 -0.2581
20913W        W37047  17.374  17.240   0.142  0.2478  0.2743 -0.1418
20914W        W37048   7.055  17.743  14.528 -0.5344 -0.0043  0.2220
20915W        W37049  15.277  14.171   0.728  0.0012  0.0141 -0.0663
20916W        W37050  14.375  16.837   3.468  0.0243  0.1019  0.2795
20917W        W37051  17.831  13.266   2.354  0.2300 -0.1646 -0.2889
20918W        W37052   8.099   5.603   2.292 -0.4147  0.2770  0.1257
20919W        W37053   7.376   3.500  11.842 -0.0018 -0.0833  0.0907
20920W        W37054  16.820  10.202  15.446  0.2632  0.0057  0.2919
20921W        W37055   8.910   6.321   0.269  0.2830 -0.0611 -0.0158
20922W        W37056   3.678  11.139  13.584  0.1544  0.3339  0.1113
20923W        W37057   2.636   7.887  15.483  0.1441  0.0704  0.4091
20924W        W37058   2.743   1.737   2.674  0.0233 -0.1723 -0.0906
20925W        W37059   8.821  15.543   0.343 -0.0333 -0.1922 -0.0382
20926W        W37060  15.318   7.192  14.773 -0.2185 -0.5223  0.3075
20927W        W37061   9.584   3.517   2.460  0.0893  0.0656 -0.0631
20928W        W37062  12.323  11.117  15.066 -0.2853 -0.0478 -0.1678
20929W        W37063  16.749  15.160   5.522 -0.1582  0.3000  0.0470
20930W        W37064  17.474  12.367  16.171 -0.0126 -0.0706 -0.2089
20931W        W37065  17.156   8.413   4.217  0.0340 -0.1274  0.1173
20932W        W37066  13.456  15.448  14.347 -0.2127  0.2026  0.3873
20933W        W37067  10.557   9.701   4.880 -0.2590 -0.1748 -0.0665
20934W        W37068   8.529   7.940  13.708  0.0853 -0.1784  0.2075
20935W        W37069  14.199   3.491  16.366  0.1942  0.1481 -0.1340
20936W        W37070   1.620   9.461  16.337  0.3259  0.3937  0.1166
20937W        W37071  17.394   5.405  12.427 -0.1055  0.2404  0.1061
20938W        W37072   7.245   3.548   3.119 -0.3653  0.1864 -0.1422
20939W        W37073  13.341   4.100   4.904  0.0957 -0.1948 -0.0359
20940W        W37074  16.183  15.502  12.901  0.2292 -0.1299 -0.0160
20941W        W37075   5.548   1.703  13.586 -0.5109  0.1597 -0.0626
20942W        W37076  15.318  14.949  13.713  0.3212  0.1455 -0.2850
20943W        W37077  13.528   2.477   1.000 -0.0419  0.0525  0.1318
20944W        W37078  14.610  10.563  14.142 -0.1290 -0.0773  0.2690
20945W        W37079  15.503   5.855  13.658 -0.0877  0.0911  0.0160
20946W        W37080  10.191   7.225  16.142  0.2951 -0.1245  0.0213
20947W        W37081   5.817  10.035   6.324  0.5735  0.0109 -0.0313
20948W        W37082   5.141   2.855   3.918 -0.0785  0.1238  0.1170
20949W        W37083   2.827  10.676   3.566  0.1288 -0.2970 -0.1561
20950W        W37084   2.307  13.738  16.315  0.2309  0.0030  0.1614
20951W        W37085   8.639   6.484  14.744 -0.0553  0.0477 -0.0096
20952W        W37086   8.606  13.532   2.249  0.0877 -0.1052  0.0659
20953W        W37087  12.559   8.836   1.787  0.1517 -0.0404 -0.1576
20954W        W37088   8.511   7.177   4.026  0.3326 -0.3809  0.0650
20955W        W37089   8.636  11.193   4.860 -0.0242 -0.0181  0.3195
20956W        W37090   3.484   9.924  13.334  0.2456  0.2970  0.2873
20957W        W37091   1.844  11.127   2.070  0.1903  0.1738  0.1666
20958W        W37092   0.830  17.375  14.141 -0.0037  0.1950 -0.0235
20959W        W37093  14.152   0.208  13.516 -0.3499 -0.1903  0.2287
20960W        W37094   5.069   5.405   3.180  0.1762  0.0662  0.1135
20961W        W37095  14.985   0.610   1.572 -0.0552  0.1683  0.1887
20962W        W37096   4.079  13.750   3.367 -0.1349  0.0894 -0.0439
20963W        W37097   2.498   7.877  11.896 -0.3541 -0.0427 -0.2345
20964W        W37098  17.710  13.665  13.924  0.1594  0.3211 -0.0987
20965W        W37099  16.050   3.460   2.300 -0.1629 -0.0842  0.2274
20966W        W37100   3.171   6.156   5.106 -0.1997 -0.1518 -0.1030
20967W        W37101  11.742  10.003   1.402 -0.0296 -0.1177 -0.0613
20968W        W37102  15.322  17.554  15.618 -0.0346 -0.1350 -0.1137
20969W        W37103   4.084   7.715  14.548 -0.1309  0.1727  0.2632
20970W        W37104   9.208   7.969   3.273  0.1522  0.1805  0.0677
20971W        W37105   1.959   2.988   2.906  0.1105  0.2474  0.0302
20972W        W37106   3.627  12.188  16.457  0.2727  0.0012 -0.1046
20973W        W37107  16.768   5.257  10.802 -0.1921  0.2477 -0.0622
20974W        W37108   5.641  17.020   1.087  0.1785 -0.2435  0.1549
20975W        W37109  12.853  11.438  11.386 -0.0949  0.0307 -0.1673
20976W        W37110   6.317  13.197  13.940 -0.1207  0.0901  0.1885
20977W        W37111   7.203   8.485   2.303 -0.3450  0.1579  0.1333
20978W        W37112   8.833  12.406   4.579  0.0011 -0.2648 -0.1932
20979W        W37113  16.928   7.653   2.246  0.0570 -0.2914  0.0121
20980W        W37114  14.439  12.452  16.093  0.1016  0.1913  0.0305
20981W        W37115  12.232   2.074  13.338 -0.2290  0.1809 -0.3192
20982W        W37116  11.364   3.555  12.509  0.2676 -0.3607  0.0635
20983W        W37117   4.546   8.976  13.395 -0.1616 -0.3736  0.1475
20984W        W37118  15.081   9.692   5.279 -0.0522 -0.0499  0.0667
20985W        W37119   7.811  10.743   4.076  0.1653 -0.1846  0.0546
20986W        W37120  14.560   7.551  12.058  0.2010  0.3909  0.0989
20987W        W37121  12.658   6.709   0.905 -0.2893  0.0524 -0.1180
20988W        W37122   2.912   3.498  14.072  0.1468  0.0812  0.0147
20989W        W37123   9.976  14.414  14.042  0.0589  0.1926  0.4441
20990W        W37124   1.970  15.422  13.010  0.0193  0.0561  0.0285
20991W        W37125   9.852   7.051   4.179  0.0511 -0.0055 -0.0465
20992W        W37126   0.770   6.061   4.396 -0.2887  0.0431  0.0758
20993W        W37127   1.263   9.337   1.466  0.2521  0.1807  0.0923
20994W        W37128  10.051  11.940   0.087  0.2199  0.0287  0.1056
20995W        W37129  16.096  14.501   2.016  0.1837  0.0209  0.1647
20996W        W37130  12.527   7.438  14.065  0.1591 -0.0696  0.2428
20997W        W37131  16.595   3.044   2.989 -0.2442  0.1874  0.1816
20998W        W37132   0.675   3.284   1.221  0.2101  0.0602 -0.1599
20999W        W37133   4.249   4.770  15.003 -0.0037  0.1469  0.1455
21000W        W37134  10.645   8.000  12.798  0.1044  0.0644  0.1871
21001W        W37135  11.629  11.543   1.487  0.0004  0.3733 -0.0908
21002W        W37136  13.091   7.829  12.449  0.1284  0.0234  0.2309
21003W        W37137  12.060   1.089   5.677  0.1149  0.1614  0.2333
21004W        W37138  11.342  13.154  15.650  0.0500  0.0480 -0.1315
21005W        W37139  15.573   9.901  14.450 -0.1432 -0.3509 -0.0148
21006W        W37140  14.710   5.727  13.070 -0.0201 -0.0784 -0.0789
21007W        W37141  11.873   2.821   1.274 -0.0454 -0.0711  0.0904
21008W        W37142   4.080  11.116   4.241 -0.1492  0.0774  0.0739
21009W        W37143  16.818   9.514   5.026 -0.0640  0.1199  0.1174
21010W        W37144  14.833   5.038   3.948 -0.1141 -0.3981  0.0611
21011W        W37145   4.099  15.300   0.942 -0.1986  0.1188  0.2540
21012W        W37146   8.937   4.171   4.132  0.0213 -0.1832  0.1220
21013W        W37147  13.400  12.163  11.092 -0.0161 -0.0395 -0.1078
21014W        W37148  10.672   5.528  16.196  0.0093 -0.1016  0.1034
21015W        W37149   0.838  14.872   4.089 -0.1385 -0.0297  0.0786
21016W        W37150  13.047  16.436  15.836 -0.4435  0.3599 -0.2737
21017W        W37151  12.932  17.870  15.435  0.0612 -0.0626 -0.0745
21018W        W37152   8.202   9.025   1.870 -0.0270  0.1548 -0.0831
21019W        W37153   7.967   4.825  11.883  0.1191  0.1484  0.1338
21020W        W37154   5.666  10.587  13.023 -0.0926  0.0390  0.1217
21021W        W37155   6.410   8.870   3.805 -0.1468  0.2101 -0.1580
21022W        W37156  12.360  17.806   1.792  0.0556 -0.0655 -0.0840
21023W        W37157   2.359   6.186   3.330 -0.2005 -0.1263 -0.2513
21024W        W37158   9.333  12.467   3.396 -0.0806 -0.1126  0.0635
21025W        W37159   5.575  15.477   2.700 -0.0335 -0.1886 -0.0385
21026W        W37160   2.991   9.484   4.360  0.0923  0.0657 -0.1552
21027W        W37161   8.243  12.964   1.632  0.3205  0.2772 -0.1865
21028W        W37162   0.451  13.408   1.594 -0.1839 -0.1410  0.1153
21029W        W37163  15.768  10.116   2.336  0.1232  0.0813  0.2178
21030W        W37164  17.550   6.702   4.660  0.0111 -0.0446  0.0163
21031W        W37165  13.929  10.288  12.567  0.0441  0.1766 -0.0731
21032W        W37166   8.210  17.409  11.537  0.0175  0.1154  0.2619
21033W        W37167  15.969   1.141   2.176 -0.1712  0.0984  0.2823
21034W        W37168  11.990   0.188   0.631  0.0220  0.0530 -0.0781
21035W        W37169   4.892   4.054  13.069  0.1816  0.0514 -0.1155
21036W        W37170   5.454  14.389  14.868 -0.2801  0.3103  0.1865
21037W        W37171  17.411   5.940  11.571 -0.2273  0.3358 -0.1230
21038W        W37172   8.465  15.327   3.538 -0.2729 -0.2817  0.1571
21039W        W37173   5.450   7.354   1.804 -0.1235  0.3372 -0.3440
21040W        W37174  16.782   0.978  14.695 -0.1339 -0.0927  0.2556
21041W        W37175   1.447  14.932  16.074 -0.0633  0.1820  0.1610
21042W        W37176  17.956  10.707  15.787  0.4028 -0.3181  0.2839
21043W        W37177  16.741   5.649   1.340  0.1981 -0.1221  0.2633
21044W        W37178  13.195  10.932   2.929  0.2386  0.1882  0.0964
21045W        W37179  17.320  13.750  14.295  0.0860 -0.1399 -0.3611
21046W        W37180  17.920   1.753   3.871 -0.0897  0.1549  0.1775
21047W        W37181   0.763   6.167  14.805 -0.0760  0.1433  0.1116
21048W        W37182  11.984  11.595   5.624 -0.1475  0.1300 -0.0273
21049W        W37183  10.829   8.155  16.555 -0.0229 -0.3308  0.0201
21050W        W37184   1.295  10.979   4.853 -0.0424  0.1231 -0.1178
21051W        W37185  13.169  14.992  16.650  0.0822 -0.1614  0.0864
21052W        W37186  16.715  12.270   0.604 -0.4510  0.0116  0.0555
21053W        W37187  10.368  11.538   4.228 -0.1718  0.3041  0.0729
21054W        W37188  16.706   7.360   4.892 -0.0667  0.2167  0.0829
21055W        W37189  13.218  15.234  12.367 -0.0257  0.0929 -0.0624
21056W        W37190  15.241   4.537   1.209  0.2085 -0.1214  0.4249
21057W        W37191   5.309   1.609   1.812  0.2869 -0.0487 -0.0167
21058W        W37192   3.275  15.514   5.428  0.0253  0.1519  0.3304
21059W        W37193   0.005   4.133  12.124 -0.0118 -0.1606  0.1011
21060W        W37194   6.469   3.076   1.516 -0.4179 -0.1990 -0.0136
21061W        W37195   5.973  12.317   4.130  0.5763 -0.3230  0.2883
21062W        W37196  14.929  13.466   1.837 -0.1605  0.0674  0.2832
21063W        W37197   2.599   6.564  15.569  0.0878  0.2614 -0.1102
21064W        W37198  12.222   5.251  11.537 -0.0141 -0.3854 -0.1858
21065W        W37199  10.508  13.830   0.763  0.2702  0.1409  0.2726
21066W        W37200   6.408   1.292  13.061  0.1768 -0.1723  0.0882
21067W        W37201   8.591   7.909   1.634 -0.0836  0.0413 -0.0739
21068W        W37202   4.534   1.368  14.613 -0.3643  0.0527 -0.3011
21069W        W37203   5.502   2.025   4.128  0.1554 -0.0102  0.0497
21070W        W37204   7.041   9.748   1.940 -0.0380  0.1004 -0.1306
21071W        W37205   2.537  11.677  11.510  0.0529 -0.1370  0.0558
21072W        W37206   7.646  13.312  10.175  0.0848 -0.1255 -0.2313
21073W        W37207  11.211  14.862  11.775  0.2794  0.2769  0.0654
21074W        W37208   5.448  13.256  15.262  0.0734  0.1425 -0.0302
21075W        W37209   6.733  12.567  12.813  0.1669 -0.0146 -0.2351
21076W        W37210   3.925  11.101   1.485 -0.0157  0.0475 -0.3504
21077W        W37211  14.348   3.290   3.929 -0.1487 -0.2177  0.1382
21078W        W37212   7.908  13.798  15.703 -0.2428 -0.1769 -0.0689
21079W        W37213  14.923   3.594  15.291 -0.2817  0.0478 -0.1265
21080W        W37214  16.815  15.729  13.672 -0.1511  0.0247 -0.1399
21081W        W37215   1.935   9.312   5.764  0.2658 -0.0152  0.6018
21082W        W37216   2.665   9.966  14.414 -0.3555 -0.0443 -0.0558
21083W        W37217   8.901   9.878   0.493  0.1461  0.0609 -0.3565
21084W        W37218  15.052   9.356  11.497 -0.1492  0.0409  0.1094
21085W        W37219  16.205  15.149  15.889  0.0829 -0.2056  0.3965
21086W        W37220  15.005   5.702  13.841  0.0262 -0.0546  0.1211
21087W        W37221   4.183   2.991   1.333  0.0461 -0.0325 -0.1594
21088W        W37222  13.460  16.729  15.920 -0.2225  0.1167  0.2783
21089W        W37223   2.763   8.626   6.029 -0.0776  0.2198 -0.2406
21090W        W37224   1.657  12.068   3.682  0.1284  0.0697 -0.0721
21091W        W37225   0.359  12.038   4.794  0.0908 -0.0804  0.0415
21092W        W37226   1.600   0.848   2.464 -0.0209  0.0215 -0.0494
21093W        W37227  10.451  15.591   1.755  0.2309 -0.0633  0.2527
21094W        W37228   2.769  17.290   2.752 -0.0093 -0.0827 -0.0978
21095W        W37229  10.024   7.853  12.187  0.1312 -0.1912 -0.3421
21096W        W37230  16.180   0.147  15.403  0.0033  0.0204 -0.0043
21097W        W37231   4.389  16.246   2.478 -0.1100  0.2428  0.0183
21098W        W37232  17.362   1.591  13.495  0.2418 -0.1086 -0.1876
21099W        W37233   8.772  12.884   2.271 -0.0385  0.0900 -0.2407
21100W        W37234   9.826  16.203   3.263 -0.2167  0.2807 -0.2022
21101W        W37235  14.928  14.644  14.991  0.3369 -0.0689 -0.0202
21102W        W37236  15.340   2.585   4.748 -0.1780  0.0888 -0.3359
21103W        W37237  10.328  11.063   4.175  0.0453  0.1032 -0.1912
21104W        W37238   5.105   7.853  11.778 -0.1848 -0.0786  0.0941
21105W        W37239   8.565  11.516   5.504  0.3203  0.3733 -0.0308
21106W        W37240  13.944   3.968   3.122 -0.0255 -0.1323  0.3910
21107W        W37241  11.787   6.352  13.074 -0.0211  0.1639 -0.0046
21108W        W37242  17.780  17.370  14.620 -0.0834  0.1156 -0.0406
21109W        W37243   3.810  15.231  13.990 -0.1491  0.0979  0.1107
21110W        W37244  12.147   8.563   1.807  0.0917 -0.0573  0.0160
21111W        W37245  16.621   4.480  14.473 -0.2095 -0.1021  0.0082
21112W        W37246  14.986   4.937  14.746  0.1438 -0.0825 -0.0291
21113W        W37247   5.362   5.448  15.767  0.3959  0.1316 -0.1239
21114W        W37248  12.435  10.843   6.503  0.0740 -0.0578  0.0945
21115W        W37249   9.231   0.858   0.450 -0.1393  0.0083  0.2164
21116W        W37250   1.950   5.727   3.148 -0.0359 -0.2330  0.0624
21117W        W37251   4.551  10.070   0.213  0.1872 -0.0941  0.0131
21118W        W37252  11.011  10.726  12.047  0.0833  0.0322 -0.2191
21119W        W37253   2.341   9.109  14.662 -0.0504  0.1590  0.2842
21120W        W37254   3.681  13.211   5.460 -0.1792 -0.0713  0.0206
21121W        W37255  12.117   2.430   2.565  0.0930 -0.4063  0.0926
21122W        W37256   9.372   6.559   5.398  0.0092 -0.0501 -0.0667
21123W        W37257   2.447  12.924   5.700 -0.3401 -0.0010  0.2685
21124W        W37258   3.884  14.410  13.938  0.0005  0.0556 -0.1177
21125W        W37259  13.436   8.924   0.057 -0.0044  0.0601 -0.2612
21126W        W37260   2.003   2.634  14.356  0.2475  0.0409 -0.0138
21127W        W37261  15.340  12.590  15.777 -0.0337 -0.1071  0.1534
21128W        W37262  15.525  12.474  12.252  0.0920 -0.0322 -0.0624
21129W        W37263   6.791  15.739   0.469  0.1531  0.3899 -0.2093
21130W        W37264   4.281   7.332   2.737 -0.3938 -0.2910  0.2241
21131W        W37265   1.770  13.766  14.505  0.0660 -0.3399  0.0754
21132W        W37266   3.042  13.236  13.116  0.0913 -0.1097  0.0588
21133W        W37267   1.867  15.231  15.983  0.0657  0.0179  0.0538
21134W        W37268  17.015  10.469  12.823 -0.2432 -0.0244  0.4272
21135W        W37269   1.431   7.983   4.529  0.0740 -0.1913  0.3917
21136W        W37270   7.694  12.234   0.671  0.0479  0.0991 -0.0207
21137W        W37271  13.428   0.149   5.211 -0.0577 -0.0261 -0.0705
21138W        W37272   2.070   1.135  15.729 -0.2510 -0.2136 -0.0499
21139W        W37273   2.103  15.971   1.829  0.1522 -0.0861 -0.0796
21140W        W37274   7.550  12.531   3.363  0.0526 -0.0931 -0.0965
21141W        W37275   2.305  16.113  13.891  0.2064  0.1485  0.2492
21142W        W37276  14.689   9.035   4.496 -0.1335 -0.1326 -0.1710
21143W        W37277   1.581  16.522   2.928 -0.0831 -0.0925  0.1677
21144W        W37278   9.226   4.779  15.887 -0.1310  0.2093 -0.2418
21145W        W37279   3.516  13.157   1.385  0.2602 -0.0993 -0.1489
21146W        W37280  14.484   1.176  15.883 -0.1046  0.0224  0.1060
21147W        W37281   0.928   9.824  11.578 -0.0098 -0.0483 -0.0653
21148W        W37282  17.263   9.939   3.106  0.1077  0.1059 -0.1231
21149W        W37283   8.627   5.776  12.460  0.1585  0.0836  0.0974
21150W        W37284  14.621  10.059   0.795  0.0899  0.2630  0.0416
21151W        W37285  11.343   9.498  11.173 -0.1318  0.2215 -0.0101
21152W        W37286  12.559   5.128   3.727 -0.0286  0.2022  0.0811
21153W        W37287   5.381   5.872  14.325 -0.2138  0.0025  0.0322
21154W        W37288   5.382  17.846  13.278 -0.1046 -0.2505  0.1233
21155W        W37289   1.216   0.018   4.894  0.0653  0.2490 -0.0591
21156W        W37290   0.746   1.815   2.433  0.0031 -0.3778 -0.0735
21157W        W37291   3.439   9.471  13.467 -0.0190 -0.1768  0.0502
21158W        W37292   4.273   2.647  16.718  0.0525 -0.0597  0.0403
21159W        W37293  17.396   1.410   3.522 -0.1126  0.0642 -0.0802
21160W        W37294  16.987   7.821  14.209 -0.2401 -0.0047 -0.1593
21161W        W37295  17.575   7.690   0.032 -0.0327  0.0853  0.2665
21162W        W37296   9.191   4.368  12.902  0.3374  0.1933 -0.0713
21163W        W37297   7.828   5.061   1.815 -0.3737  0.2779 -0.1181
21164W        W37298   8.963  12.296  10.335  0.0343 -0.0115  0.0497
21165W        W37299   2.615   5.141   1.395 -0.2052  0.0430 -0.0683
21166W        W37300   6.468   8.457  14.838  0.0757 -0.0676  0.0301
21167W        W37301  12.217  17.880   3.977 -0.1467 -0.0526  0.0668
21168W        W37302  17.155   9.333   5.971  0.0525 -0.1057  0.1333
21169W        W37303   4.331  16.370   4.965 -0.2824 -0.0427  0.2862
21170W        W37304   9.905   6.711   2.908 -0.0821 -0.1358  0.1650
21171W        W37305  11.736   1.223  14.986 -0.5059 -0.1260 -0.2606
21172W        W37306  15.569   2.869  14.695 -0.1519  0.3705 -0.0200
21173W        W37307   3.848  10.636   3.352  0.0277 -0.2713  0.1521
21174W        W37308  13.257   6.709  13.795  0.0325  0.1499 -0.0809
21175W        W37309   2.647   2.039   5.302  0.1248  0.0655  0.0444
21176W        W37310   2.557   0.424   2.811  0.0244  0.1213  0.1797
21177W        W37311  16.444   5.243   3.396 -0.1263 -0.0394  0.0308
21178W        W37312   6.191  10.847   2.249 -0.1086  0.1816  0.3565
21179W        W37313  11.542   7.049  11.114 -0.0543  0.1300  0.1000
21180W        W37314  11.249  10.287   4.995  0.0551 -0.3259  0.0547
21181W        W37315   3.645  15.712  15.378  0.0231 -0.0707  0.0558
21182W        W37316   8.483   4.223   3.905  0.1868 -0.0642 -0.0339
21183W        W37317   3.120   1.965   3.870 -0.0263  0.0854 -0.0276
21184W        W37318  15.843   7.690   2.300 -0.0107 -0.1731  0.0295
21185W        W37319   0.533   5.170  15.675 -0.3084  0.0206 -0.1210
21186W        W37320   4.896  17.613  16.612  0.0908 -0.1088 -0.2970
21187W        W37321  14.223   7.596   4.685 -0.0019  0.1461 -0.1183
21188W        W37322   1.207   2.053   0.137  0.1614 -0.0828  0.0563
21189W        W37323  13.244   5.857   3.751  0.0296  0.2581  0.0538
21190W        W37324  16.236  10.089  11.367  0.2021 -0.2093  0.0143
21191W        W37325  10.087   7.208   2.834  0.2498  0.0464  0.1897
21192W        W37326  16.326   5.440  16.280 -0.4083  0.3366 -0.0732
21193W        W37327  10.014   4.120   5.843  0.2618  0.0094  0.0194
21194W        W37328  15.699   1.109  15.207 -0.0643 -0.2044 -0.0601
21195W        W37329   7.944  16.635   1.708 -0.3005 -0.2461 -0.1171
21196W        W37330   3.571  14.659  13.036 -0.2337 -0.1273 -0.2277
21197W        W37331  17.972  12.978   0.930  0.2549 -0.3558  0.0588
21198W        W37332  15.294   5.380  14.867 -0.1294 -0.0460 -0.0607
21199W        W37333   8.960  15.335   3.717  0.1123  0.0193  0.2703
21200W        W37334  13.892   7.490   0.858 -0.0119  0.1131  0.1614
21201W        W37335   6.887   2.260   4.368  0.0724 -0.1234  0.1049
21202W        W37336  10.150   6.282  15.011 -0.0701  0.1177  0.1247
21203W        W37337  16.677   0.809  15.087 -0.1432 -0.1100 -0.3448
21204W        W37338   5.237  15.051  11.057  0.0687 -0.3504  0.1907
21205W        W37339   4.668  11.361  13.026  0.1501  0.1936  0.4727
21206W        W37340   7.157   3.352  12.993  0.2010 -0.0237 -0.1326
21207W        W37341   6.260   0.780  16.235  0.2431 -0.1366  0.0146
21208W        W37342  15.102  11.894  12.681 -0.3397  0.1005  0.1880
21209W        W37343   0.447   3.561  12.017 -0.3865  0.2476  0.1832
21210W        W37344  10.944   4.117   4.326  0.1971 -0.1676 -0.1927
21211W        W37345   2.970   8.657   3.424  0.1531 -0.1855  0.3321
21212W        W37346   6.285   7.366   2.144 -0.3579 -0.0690  0.1717
21213W        W37347  10.149   3.224  15.039 -0.1942 -0.2190 -0.0266
21214W        W37348  17.944  13.145   4.083  0.1742  0.0347 -0.1823
21215W        W37349   7.195  12.731  11.132  0.0791 -0.0516 -0.0358
21216W        W37350  14.315  10.413  13.380 -0.1947 -0.4080 -0.0056
21217W        W37351   1.913  14.764   2.903 -0.2823 -0.1574  0.0872
21218W        W37352   8.830  14.369   1.219 -0.1149  0.1887  0.2790
21219W        W37353  10.084  13.610  11.222  0.4696 -0.0750  0.1397
21220W        W37354  11.934  14.955  12.999  0.0309  0.0851  0.2311
21221W        W37355   4.565  15.516  13.057  0.1422 -0.2709  0.2076
21222W        W37356  12.642   7.808  12.788  0.0829 -0.1206 -0.0412
21223W        W37357  11.378   1.708   3.809  0.0235 -0.2978 -0.5005
21224W        W37358   1.196  12.154   3.892 -0.1757  0.3595 -0.2121
21225W        W37359  13.750   7.012  12.888 -0.3855  0.0184  0.1219
21226W        W37360   8.612  10.884   3.671  0.0909 -0.0692 -0.0793
21227W        W37361  13.264   5.341  13.669  0.0126 -0.5091 -0.0945
21228W        W37362  11.206   6.912   0.685  0.1032  0.3104  0.1666
21229W        W37363  17.567  13.930  13.432 -0.3119  0.1446  0.2049
21230W        W37364  12.340   4.152  15.584  0.0762 -0.3158  0.0657
21231W        W37365  10.793  13.705   1.719  0.1882 -0.0084 -0.1385
21232W        W37366   4.515  14.980  16.401 -0.0015  0.1046  0.2607
21233W        W37367   2.391   7.432  13.387 -0.1385  0.1527  0.1984
21234W        W37368  11.997   6.027   2.689  0.2857  0.1197  0.3394
21235W        W37369  11.042   0.078   0.912  0.0535  0.0821 -0.2636
21236W        W37370   1.605  10.502  13.132 -0.0290 -0.1272  0.1747
21237W        W37371  13.951   0.050   2.978 -0.2997  0.2433  0.1719
21238W        W37372  11.813   5.123   3.180 -0.1299  0.0411 -0.0590
21239W        W37373   9.459  14.531   1.802 -0.3417  0.2444 -0.1760
21240W        W37374   4.420   3.789   2.486 -0.0563 -0.3709  0.0308
21241W        W37375  12.191   0.653  13.571  0.0553  0.0774  0.1209
21242W        W37376  13.457   3.321   5.758  0.0169  0.0056  0.0019
21243W        W37377  13.634  10.441  14.373  0.1113 -0.1151 -0.0689
21244W        W37378   5.348   9.846  13.411 -0.0631  0.2271 -0.0717
21245W        W37379  16.830  10.788  13.256 -0.1400 -0.1593 -0.0116
21246W        W37380   1.012  15.183   5.646  0.0675 -0.1964  0.0818
21247W        W37381   1.398   6.620   4.674  0.0282  0.2900 -0.3209
21248W        W37382   4.845  12.023  15.660  0.1188 -0.0020  0.0633
21249W        W37383   8.152  17.321   4.295 -0.0660  0.1233 -0.2004
21250W        W37384  12.823  15.019  13.111  0.1354  0.2103  0.0994
21251W        W37385  13.535   0.512  14.293 -0.1015  0.1044 -0.1022
21252W        W37386   9.263  12.500  13.521 -0.1301  0.0914  0.4342
21253W        W37387   6.036  12.607  15.249  0.4854 -0.0346  0.1615
21254W        W37388   2.484  15.683  12.062  0.0872 -0.0913 -0.3318
21255W        W37389  13.490  13.388  15.406 -0.1022 -0.2937 -0.0997
21256W        W37390  10.240  15.654  14.057 -0.1341 -0.1677 -0.0567
21257W        W37391  11.618  11.320   5.477 -0.0913  0.0895  0.2442
21258W        W37392   1.458   2.961  13.702 -0.3460  0.2044 -0.1786
21259W        W37393   8.721  17.274   2.927 -0.0394  0.0678  0.0079
21260W        W37394   8.879   8.619   0.422  0.1755 -0.1660 -0.1355
21261W        W37395   5.977  13.025  11.588 -0.2441 -0.0537  0.0395
21262W        W37396  12.563   0.298  12.534 -0.2907  0.1491  0.1397
21263W        W37397  14.924   2.714  12.938 -0.1833  0.0812 -0.1904
21264W        W37398  16.122   3.949   0.075  0.1464 -0.0355 -0.2820
21265W        W37399   5.703  17.559   1.153 -0.1298 -0.2172  0.1963
21266W        W37400   1.050  13.789  13.099  0.0394 -0.0887  0.0095
21267W        W37401   0.739   8.826   4.554 -0.1694 -0.1143  0.2739
21268W        W37402   2.928   1.377  13.905  0.0885 -0.1317 -0.2084
21269W        W37403   0.281  13.254  14.504  0.1422  0.0544  0.1476
21270W        W37404   9.158   4.124  13.340 -0.0819 -0.1725  0.0859
21271W        W37405   9.398  16.453   2.437  0.0498  0.3053  0.1458
21272W        W37406   3.993  11.574   0.365  0.1088 -0.1146 -0.1394
21273W        W37407   9.631   7.795   0.528  0.3111 -0.1043  0.3813
21274W        W37408  10.837   0.158   6.077  0.4367  0.1935 -0.1121
21275W        W37409   7.879  10.894   4.903 -0.0527  0.1087  0.0619
21276W        W37410  10.930   8.277  15.501 -0.2570  0.1377 -0.1047
21277W        W37411   3.890   8.223   0.104 -0.3591  0.1591  0.1228
21278W        W37412   6.192   9.598   1.394 -0.2246  0.1752 -0.0563
21279W        W37413  16.276   5.972   2.024 -0.3096  0.0433 -0.0745
21280W        W37414   8.233   5.922   0.987  0.6347  0.3004  0.2224
21281W        W37415   5.510   8.498   2.854 -0.1016 -0.0525 -0.2430
21282W        W37416   6.549   4.667  16.082 -0.2669 -0.1102  0.0378
21283W        W37417  14.328   4.085   1.923 -0.2708  0.0601 -0.0680
21284W        W37418   5.433  15.059  15.316  0.0879  0.1879  0.1838
21285W        W37419   4.367  12.703   2.649 -0.3054 -0.1135  0.2919
21286W        W37420   5.314   1.306   1.235 -0.0595 -0.0774 -0.0100
21287W        W37421   1.351   4.358  16.254  0.0083  0.2687 -0.0278
21288W        W37422   8.628   7.570   3.733  0.2604  0.1778 -0.0700
21289W        W37423   9.790  14.629   0.377  0.0551 -0.2941  0.1471
21290W        W37424   3.993   0.725  14.396  0.0020 -0.0271 -0.1481
21291W        W37425   2.416  11.860  16.336 -0.0114  0.3349  0.0262
21292W        W37426  13.368  15.824   3.757  0.0249 -0.0440  0.1007
21293W        W37427   6.840  10.816   3.446 -0.0755 -0.0402  0.1096
21294W        W37428   5.137  14.392  12.189 -0.0075 -0.2419  0.0324
21295W        W37429   6.684   6.471  14.139 -0.0227 -0.1611  0.2179
21296W        W37430   8.261   7.393   0.752  0.0427  0.1380  0.1905
21297W        W37431  14.819  13.346  14.734 -0.0596 -0.4544 -0.0080
21298W        W37432   8.496  10.756  16.458  0.0814 -0.2639  0.0103
21299W        W37433  12.524  17.745   6.023  0.0234  0.0476 -0.0301
21300W        W37434  16.700  13.807   3.962 -0.0553 -0.0172  0.0443
21301W        W37435   8.621  12.452   3.117 -0.2734 -0.1578 -0.1067
21302W        W37436  17.662  14.733  14.772  0.3003  0.1654 -0.0542
21303W        W37437  11.201   6.388   5.631 -0.1713 -0.0192  0.0540
21304W        W37438   9.117  17.419   5.183 -0.1065  0.3598  0.0136
21305W        W37439  10.165   3.761  13.411  0.1048 -0.2061  0.1521
21306W        W37440  12.828  15.112   2.487  0.0375 -0.1870  0.1392
21307W        W37441  11.708   4.609  11.764 -0.2943 -0.2075  0.1872
21308W        W37442  17.764   3.428  13.868  0.0776  0.1696 -0.0601
21309W        W37443  12.433  10.446  10.380  0.0495 -0.0451 -0.1491
21310W        W37444   7.475   3.661   4.609  0.1957 -0.0492  0.0162
21311W        W37445  13.182   2.389  16.102  0.1961 -0.0131 -0.1552
21312W        W37446  11.964   3.218   5.473  0.0638 -0.1269 -0.1947
21313W        W37447   8.421  14.049   1.025 -0.1164 -0.1494 -0.1898
21314W        W37448  13.844  16.719  14.255  0.0879 -0.1756  0.0729
21315W        W37449  14.600  11.280   1.831  0.1128 -0.5546 -0.1053
21316W        W37450   6.554   9.266  13.425 -0.2045 -0.1236 -0.1191
21317W        W37451   0.491  13.415  13.254  0.0083  0.1790  0.1756
21318W        W37452  16.097  13.842  16.040  0.0679  0.0002 -0.0791
21319W        W37453  10.693  11.400  14.162  0.0594 -0.0368 -0.1466
21320W        W37454   1.525   3.350  11.893  0.1024 -0.1310  0.3290
21321W        W37455  16.180  13.322   4.610  0.3039  0.2184 -0.0764
21322W        W37456   3.376   5.787   5.396  0.0368  0.0917 -0.5353
21323W        W37457  10.722  16.113  13.712 -0.1798  0.1841  0.0161
21324W        W37458  13.298   7.214   5.876  0.0121 -0.2284 -0.0099
21325W        W37459   9.653  17.489  15.330 -0.0807 -0.4918 -0.1839
21326W        W37460  14.314  13.392  14.752 -0.2176 -0.3579 -0.0690
21327W        W37461  12.930   4.614   3.728  0.1547  0.1116  0.1241
21328W        W37462  13.565  15.108   4.189  0.0673  0.1158  0.0270
21329W        W37463   4.792  17.776   3.248  0.2504 -0.0676  0.2140
21330W        W37464  10.715  16.956  13.842  0.1659 -0.5687 -0.3183
21331W        W37465   8.087   4.149   2.512 -0.0054  0.0563  0.1836
21332W        W37466   7.280  11.401  11.717  0.1590  0.0990  0.2626
21333W        W37467  17.168  13.219   1.012  0.0620  0.1958  0.3921
21334W        W37468   9.153   5.847   0.921 -0.0145 -0.0318 -0.1061
21335W        W37469  17.633   1.057  16.275 -0.0167 -0.2050  0.0542
21336W        W37470   9.176   2.051   1.998 -0.0137  0.1622 -0.0114
21337W        W37471  15.277   3.110   2.035  0.0128 -0.0111 -0.2891
21338W        W37472   5.478  15.896   1.319  0.0900 -0.1460 -0.1903
21339W        W37473  15.033  16.198  13.455  0.0569 -0.0542  0.0652
21340W        W37474  10.035  17.765   0.839  0.4173  0.1904 -0.1162
21341W        W37475   5.327   0.886   5.909 -0.0013  0.1052 -0.3658
21342W        W37476  12.023   8.294   2.935 -0.0267  0.1273  0.1100
21343W        W37477  11.064  12.341  12.971  0.0091 -0.1971  0.0605
21344W        W37478  11.691  10.124  14.375  0.1325 -0.2074 -0.0296
21345W        W37479   1.737  16.818  11.820  0.0230 -0.1934  0.0850
21346W        W37480   7.897   5.914  15.104 -0.0608 -0.0534  0.1086
21347W        W37481   6.016   0.498   4.888  0.1868 -0.3167 -0.1081
21348W        W37482   6.766  15.344   3.238 -0.0388 -0.1165 -0.0580
21349W        W37483   3.045   1.122   3.402 -0.0634  0.2188  0.1209
21350W        W37484   3.829   3.301  13.861  0.0996 -0.0389  0.0636
21351W        W37485   2.766   9.274   4.815 -0.3386  0.3566  0.0045
21352W        W37486   3.465   8.581  15.190 -0.3392 -0.1962 -0.1011
21353W        W37487  11.785  12.618   4.417  0.2267 -0.2456  0.1320
21354W        W37488  12.881   7.965  14.676 -0.0333  0.3002  0.1640
21355W        W37489  17.141   4.028  11.342 -0.3012  0.0571 -0.2099
21356W        W37490  10.353   1.950   2.693 -0.3306 -0.1993  0.0763
21357W        W37491   2.236  14.131  14.603 -0.0073  0.0937 -0.0425
21358W        W37492  10.533  16.069  14.226  0.0857  0.0225  0.2503
21359W        W37493  11.963   0.380  12.195 -0.1618 -0.0176 -0.2468
21360W        W37494  16.270   9.007   1.731  0.1518 -0.2232  0.0397
21361W        W37495  14.645   1.983  15.535  0.0112 -0.0451  0.2482
21362W        W37496  14.057  15.706   1.106  0.2354  0.0868  0.0812
21363W        W37497  14.802   0.132   0.027 -0.1551 -0.0538 -0.0932
21364W        W37498  13.512   3.899  13.739 -0.1452 -0.0589 -0.1640
21365W        W37499   2.440   6.432  13.587 -0.0355  0.1653  0.0613
21366W        W37500  17.777   3.612   4.081  0.0647  0.1384 -0.2527
21367W        W37501  16.428   6.069   4.328 -0.2352 -0.1945  0.4619
21368W        W37502   3.384  17.328   0.832 -0.0317  0.0242  0.2505
21369W        W37503  10.399   0.907  16.237  0.0391 -0.1258 -0.0147
21370W        W37504   1.553   3.837   4.891 -0.1842  0.0621 -0.2830
21371W        W37505  13.274   5.315  13.185 -0.1035 -0.0074 -0.3064
21372W        W37506   0.067   2.199  15.102 -0.0919 -0.2414  0.3202
21373W        W37507  16.168   6.418  13.136 -0.0503  0.2161  0.1269
21374W        W37508   7.091  16.149   0.153 -0.0413  0.2961 -0.0528
21375W        W37509   8.600   7.693  12.760 -0.0685 -0.0144 -0.0319
21376W        W37510  13.816  17.786  14.966  0.1489 -0.0986  0.1389
21377W        W37511  17.503   5.832  12.087  0.0675 -0.1417 -0.0131
21378W        W37512   9.478  17.086   1.261 -0.2454  0.0778  0.1679
21379W        W37513  16.377   2.265   1.216  0.4021 -0.2545  0.2437
21380W        W37514   9.755   4.397   2.483 -0.1061  0.5586  0.0940
21381W        W37515   7.199   0.010  12.262 -0.2362  0.0114 -0.1717
21382W        W37516  16.443  11.521  16.085  0.1358  0.4324  0.1421
21383W        W37517   3.753   6.436  14.886 -0.1601 -0.0738  0.1879
21384W        W37518   0.490   6.251   4.050 -0.2392 -0.0545 -0.1172
21385W        W37519   0.777   9.236   3.779  0.2984  0.3944 -0.0355
21386W        W37520  13.044   1.769   3.968 -0.0615  0.2506  0.2764
21387W        W37521  10.614  10.741   4.533 -0.3976 -0.0868  0.3556
21388W        W37522  13.970  10.169  11.446 -0.4644 -0.1353 -0.2216
21389W        W37523   9.918   7.483  15.754 -0.0009 -0.0105 -0.0895
21390W        W37524   0.346   6.278   5.100  0.2059 -0.3213 -0.0488
21391W        W37525  17.963  15.260  14.197  0.1448  0.1405  0.0659
21392W        W37526   1.553   0.393   2.656 -0.4111  0.0536  0.0788
21393W        W37527   7.733   7.556  13.078  0.2199 -0.0820  0.0809
21394W        W37528  17.965  17.137   1.452 -0.1137 -0.1696  0.0591
21395W        W37529  17.492   6.867   0.657 -0.0916 -0.0612  0.0729
21396W        W37530   6.645   3.907   2.579  0.0799 -0.4435 -0.2278
21397W        W37531  13.935  15.011  16.664  0.1857  0.0352  0.1181
21398W        W37532   0.565  12.016  14.618 -0.1914  0.2938 -0.1428
21399W        W37533   0.264   7.180  14.524 -0.0386  0.2616 -0.0231
21400W        W37534   6.539  13.785   3.215 -0.1409  0.1455  0.2382
21401W        W37535   9.022  17.522   0.603 -0.0679 -0.1148  0.1950
21402W        W37536   2.110   2.975   1.872  0.2515  0.3243 -0.0162
21403W        W37537   1.673  13.295   3.772 -0.3335 -0.1216  0.1758
21404W        W37538  15.654  10.562   3.897  0.0463  0.2227  0.1651
21405W        W37539  16.666   0.159  15.660 -0.1431 -0.3237 -0.1283
21406W        W37540  14.052   1.294   5.075 -0.1114 -0.1396 -0.4878
21407W        W37541   2.895   0.895  12.722  0.0555  0.1093  0.1122
21408W        W37542  12.586  14.671  13.531  0.0459  0.0790  0.2347
21409W        W37543   0.080   9.957   5.640  0.0466 -0.0329 -0.0494
21410W        W37544  15.595   9.277  14.620 -0.3893 -0.0422  0.3060
21411W        W37545   1.423   7.488  15.508  0.1333  0.2331  0.1290
21412W        W37546  14.058  17.136   0.965 -0.2640  0.0656 -0.1905
21413W        W37547   4.621  13.983   1.533 -0.0116  0.2614 -0.1417
21414W        W37548   5.856  10.932   0.853  0.1000 -0.1516  0.1703
21415W        W37549  17.634   1.891   4.307  0.2300  0.4745  0.0598
21416W        W37550  17.877   2.268  16.669 -0.2210 -0.0098  0.1688
21417W        W37551  16.195   7.076   3.968  0.0391  0.3007 -0.3314
21418W        W37552   2.310   1.607  15.691  0.0002 -0.0998 -0.1339
21419W        W37553   7.084  14.004   2.421  0.0116 -0.0698  0.0722
21420W        W37554   3.972   8.635  12.956 -0.2718 -0.0475 -0.1089
21421W        W37555  16.472  11.681  14.622 -0.3997  0.1155 -0.0504
21422W        W37556   8.387  11.377   3.528 -0.0341 -0.2084 -0.2000
21423W        W37557   7.052  13.385  16.073  0.1858 -0.0443  0.3073
21424W        W37558   3.128  11.319  12.937 -0.0495 -0.2181 -0.0507
21425W        W37559   3.740   7.526  15.797 -0.2306  0.1859 -0.0026
21426W        W37560   9.305  12.872  13.103 -0.0632  0.0167  0.0236
21427W        W37561   2.238  17.710   0.168 -0.0544 -0.3511 -0.0836
21428W        W37562  12.388   7.039   5.559  0.1427 -0.0926 -0.0040
21429W        W37563   6.984  16.390   1.025  0.0057 -0.2717 -0.0923
21430W        W37564   1.132   7.603  14.133  0.0344 -0.1594  0.2097
21431W        W37565  12.126  14.744   2.608  0.0010 -0.1476  0.0168
21432W        W37566   6.926   8.619  14.717 -0.1040 -0.0603 -0.0048
21433W        W37567  13.940   7.715  13.401  0.0860  0.2714 -0.1216
21434W        W37568   0.435  10.289   1.888  0.4613  0.0353  0.0467
21435W        W37569   0.478  14.703   4.503  0.0996  0.0455  0.0780
21436W        W37570  12.739  14.990  15.341  0.0759  0.0169  0.0593
21437W        W37571   4.386   8.963  12.221 -0.3885  0.1496  0.1837
21438W        W37572  11.797   0.291  13.544  0.3636  0.1545  0.0197
21439W        W37573  11.039  14.101  15.227 -0.2820 -0.2810 -0.0233
21440W        W37574   7.386  16.626  13.073 -0.0632  0.5652  0.0139
21441W        W37575   0.910   2.090   1.101 -0.0708 -0.0530  0.0386
21442W        W37576  17.461  11.089   1.872  0.0009  0.1448 -0.0681
21443W        W37577  12.090   5.353   0.068  0.0431  0.5533 -0.1451
21444W        W37578  17.907   9.166   2.913 -0.0080  0.2176  0.3678
21445W        W37579  10.748   3.365  14.086 -0.1687 -0.1405 -0.2549
21446W        W37580  16.968   5.319  14.266 -0.0356 -0.1057 -0.0577
21447W        W37581   3.699  15.341  14.967 -0.2067 -0.1018  0.3772
21448W        W37582   8.408  16.901  13.939 -0.1490  0.1398  0.2313
21449W        W37583   8.073  13.801  14.695  0.1936 -0.0473  0.2109
21450W        W37584  14.565  13.690  15.123  0.1485 -0.0936 -0.0197
21451W        W37585  13.153  17.971  16.712  0.1649  0.0261 -0.1219
21452W        W37586   8.075   6.135  15.505 -0.1444  0.0641 -0.2474
21453W        W37587   7.453  17.859   3.815 -0.1161 -0.3852  0.0025
21454W        W37588  13.333  10.252   5.487  0.0786  0.2102 -0.2156
21455W        W37589  12.824  17.214  12.852  0.1320  0.1734 -0.0772
21456W        W37590   6.599  14.065   4.950  0.4840  0.1622  0.0111
21457W        W37591   5.613   7.260  12.122  0.2927  0.0243 -0.1527
21458W        W37592  10.329  10.524   1.166 -0.0957  0.0902  0.1321
21459W        W37593   3.392  17.596   4.791 -0.0401 -0.1318  0.0599
21460W        W37594   0.627  10.649   4.769 -0.0811  0.5011 -0.0990
21461W        W37595  14.068  17.319  16.556 -0.0606  0.4849 -0.3068
21462W        W37596   8.369   0.861  16.006  0.0579 -0.2277 -0.0589
21463W        W37597   0.410  11.399  15.315  0.2486 -0.0906 -0.1292
21464W        W37598   7.592   6.474   2.185  0.1395  0.0968 -0.0199
21465W        W37599   8.994   7.858  13.000 -0.1069  0.1707 -0.2930
21466W        W37600   5.603   3.220  14.777 -0.1137 -0.1187  0.0185
21467W        W37601   0.597   8.319   1.669 -0.0459  0.2069 -0.0178
21468W        W37602  13.890   5.585  11.540  0.0443 -0.1220 -0.0080
21469W        W37603  13.729   2.881   2.529  0.1963 -0.1029  0.0362
21470W        W37604  15.734   5.386   2.827  0.2630  0.3003 -0.0612
21471W        W37605   6.134  16.282   3.939 -0.2597  0.1024 -0.0355
21472W        W37606  16.633   3.366   1.181  0.3322 -0.1882  0.1955
21473W        W37607  15.146   1.108   4.294 -0.2764  0.2820  0.0201
21474W        W37608   9.556  14.434   2.928  0.0051 -0.2870 -0.1146
21475W        W37609  14.017   5.740  13.729 -0.1608  0.2757 -0.2050
21476W        W37610   5.825  14.832  12.550 -0.3616  0.3566 -0.0731
21477W        W37611  14.202   9.520  14.278  0.0745  0.2194  0.0328
21478W        W37612  11.628  16.029   5.732 -0.1122 -0.0412  0.0451
21479W        W37613   5.364   6.156  15.283  0.1371  0.0443  0.1176
21480W        W37614   7.233  13.716  11.475  0.2083 -0.1211  0.1496
21481W        W37615   1.101   8.962  15.229  0.1944  0.0607  0.0587
21482W        W37616  16.011   3.847   5.318 -0.2449 -0.1525  0.0909
21483W        W37617   3.216   8.926  14.095  0.0578 -0.1262  0.0885
21484W        W37618  13.356  12.811   0.340 -0.0876 -0.2314  0.0248
21485W        W37619  17.185  10.910   5.472  0.1399 -0.1692  0.1329
21486W        W37620   3.739   9.289  16.394  0.1288  0.1524 -0.2879
21487W        W37621   2.233  16.105  12.279 -0.1792  0.2163  0.0912
21488W        W37622   1.678   4.265  13.835 -0.0757  0.0691 -0.2866
21489W        W37623   8.876   3.169   1.106 -0.1798 -0.3044 -0.2698
21490W        W37624   3.823   2.524  12.045  0.0823  0.0010 -0.2620
21491W        W37625  14.836  15.555   2.480  0.0448  0.1304  0.1350
21492W        W37626   8.670   6.562   2.578 -0.1072  0.2191 -0.2708
21493W        W37627   9.747   0.218   1.047 -0.2837  0.0384  0.1043
21494W        W37628  17.556  11.583   4.199  0.1299  0.1108 -0.0783
21495W        W37629   5.583   5.891  12.737 -0.0605  0.1134 -0.0682
21496W        W37630   3.165  16.021   2.777 -0.1571 -0.0241 -0.1444
21497W        W37631   8.743  14.885  12.807  0.4391  0.0223 -0.0419
21498W        W37632  13.078  16.974   1.861  0.0164  0.0052 -0.0973
21499W        W37633  13.528   7.781  15.434  0.0833 -0.1517  0.0400
21500W        W37634   9.842   9.658   2.258  0.1301 -0.2905  0.0012
21501W        W37635   5.601   4.324   3.900 -0.4777  0.0363 -0.3331
21502W        W37636  13.077  13.504  12.103  0.3900  0.0767  0.0811
21503W        W37637   5.604   6.700  13.804 -0.0016 -0.1102 -0.0731
21504W        W37638   2.471  13.011  12.602  0.2586 -0.1610 -0.0569
21505W        W37639   7.941  14.379   4.397  0.2890 -0.0729 -0.2066
21506W        W37640   0.264   3.523  14.746 -0.2840  0.0953 -0.1561
21507W        W37641   1.680  12.211   0.662 -0.3592 -0.0075  0.2242
21508W        W37642  10.770  12.555   1.054 -0.1243 -0.3558 -0.1268
21509W        W37643  10.527  16.044   1.464  0.0963  0.0844  0.0381
21510W        W37644   8.097  12.956  15.203  0.0065 -0.2158  0.4041
21511W        W37645   4.861   6.257   0.204 -0.1821 -0.1733  0.3778
21512W        W37646   8.773   8.243   2.885  0.3763  0.0884  0.2264
21513W        W37647   3.059   5.064  14.572 -0.0973  0.0830  0.1682
21514W        W37648  16.631  17.712   5.524  0.1342  0.1547  0.0169
21515W        W37649  13.037  11.755   5.600 -0.1440  0.3979  0.1398
21516W        W37650   3.241  13.449  12.131 -0.2565 -0.0814  0.1641
21517W        W37651   1.714   9.865  14.322  0.3955  0.3202  0.1475
21518W        W37652   5.123  15.665   2.855  0.2951 -0.2881  0.0982
21519W        W37653  12.613  13.068  13.288 -0.0755 -0.1218  0.0177
21520W        W37654   6.295  15.387   4.418  0.1692  0.1263  0.0312
21521W        W37655   3.196   3.762   4.775 -0.0091  0.1372 -0.0998
21522W        W37656  16.183  12.426   4.807 -0.1756 -0.0288 -0.1602
21523W        W37657  10.641  13.633   5.941  0.0302 -0.0799 -0.0106
21524W        W37658   5.570   9.841  15.869 -0.1954 -0.3089  0.2453
21525W        W37659   3.843   2.088   1.437 -0.2504 -0.2744  0.1933
21526W        W37660   7.345   0.736   3.160 -0.2044 -0.0049  0.3642
21527W        W37661   0.003   4.517  13.650  0.0624 -0.2163 -0.0637
21528W        W37662  12.024   5.605  14.353 -0.0967 -0.4341  0.1257
21529W        W37663  13.133   3.404   0.644  0.3445  0.3161  0.0095
21530W        W37664   1.344  14.600  12.280  0.0898 -0.0488 -0.0940
21531W        W37665   4.646  16.815  13.701 -0.0135 -0.3343  0.1731
21532W        W37666  12.576   4.914   2.425  0.3028  0.1115 -0.1615
21533W        W37667   9.819  13.208  11.305  0.1940 -0.2422  0.1210
21534W        W37668  11.508   2.740  12.819 -0.1481 -0.1601  0.1320
21535W        W37669  17.312   9.546  15.073 -0.1096 -0.0669  0.0111
21536W        W37670   9.082  10.286  11.899  0.1799  0.1874  0.1593
21537W        W37671   7.325   0.741  14.942 -0.2215 -0.0510 -0.2973
21538W        W37672   0.573   8.745   2.547  0.3363  0.2411 -0.0188
21539W        W37673  16.887  16.492   0.962 -0.1793  0.2360 -0.0798
21540W        W37674   0.561   9.272   4.320  0.0113 -0.0489 -0.1123
21541W        W37675   4.081   7.347  13.871 -0.2692 -0.1144 -0.1450
21542W        W37676   9.593   1.442  11.264 -0.1135  0.0006 -0.3006
21543W        W37677   5.531   4.862  16.572 -0.2497 -0.0787  0.1300
21544W        W37678   3.674  13.976  16.651  0.0017 -0.2599 -0.2976
21545W        W37679   6.831  14.964   5.080  0.1751 -0.1248 -0.3168
21546W        W37680   2.424   5.731   3.070 -0.2096  0.2463 -0.1603
21547W        W37681  14.134   0.390   0.713 -0.2995  0.0028 -0.0342
21548W        W37682  11.013   4.130   2.046  0.1270 -0.1086 -0.0570
21549W        W37683  12.999   4.200   3.345  0.3355  0.1092  0.1552
21550W        W37684  12.400   6.531  12.252 -0.2984 -0.1484 -0.2243
21551W        W37685  17.704   5.138  13.231  0.1211 -0.1028  0.0235
21552W        W37686   0.669  13.859  14.121 -0.1539 -0.0303  0.0446
21553W        W37687  13.985   0.330  15.292 -0.2104  0.1839  0.1878
21554W        W37688  17.391   9.619   4.161  0.0445  0.0453  0.0562
21555W        W37689   0.190   0.881  16.191 -0.1794  0.2004 -0.1101
21556W        W37690   7.763   7.686   3.538 -0.2956 -0.2106  0.0619
21557W        W37691   6.980  10.303  12.477  0.2178 -0.1230  0.4807
21558W        W37692  14.039   8.508   3.216  0.2628  0.1095  0.0292
21559W        W37693  16.093  15.233   3.324  0.2628  0.0380 -0.1030
21560W        W37694   9.453   5.012   4.750  0.0550  0.0808 -0.0976
21561W        W37695  10.059  13.810   1.430 -0.0122  0.1876  0.0534
21562W        W37696   0.689   0.936  15.079 -0.1938  0.2338 -0.4219
21563W        W37697   2.730  10.010   3.527  0.1002  0.1090 -0.1362
21564W        W37698   8.419  17.178  11.928 -0.1250  0.0372 -0.1300
21565W        W37699   8.529   0.970  12.380  0.0895  0.3597  0.0680
21566W        W37700   7.972   9.026  16.576  0.3580  0.0811  0.2174
21567W        W37701  16.190  16.931   6.116  0.1696  0.2096  0.2313
21568W        W37702   2.602   4.524   4.953 -0.1759 -0.1325 -0.0967
21569W        W37703   8.455  17.385  13.883  0.1230 -0.1431  0.0680
21570W        W37704  17.148   6.545   1.017 -0.1344 -0.0807  0.0621
21571W        W37705   9.346  15.780   0.910  0.0215 -0.2079 -0.3287
21572W        W37706  12.124   1.432   0.683  0.2424  0.1589 -0.3082
21573W        W37707   3.916   0.609   1.691 -0.1527 -0.1606  0.1195
21574W        W37708  15.181   3.521   1.792  0.2584 -0.0673 -0.0687
21575W        W37709   6.483   9.360  15.723  0.0362  0.0912 -0.1433
21576W        W37710   8.221   8.641  15.615 -0.1767 -0.0380  0.1329
21577W        W37711   8.352  16.286  12.713 -0.1112 -0.1801 -0.1133
21578W        W37712   7.296   7.582   4.811 -0.3128 -0.3742  0.0084
21579W        W37713   1.549   8.192  12.016 -0.1736 -0.1930 -0.0230
21580W        W37714  14.710  13.895   5.389 -0.1557  0.0324 -0.1241
21581W        W37715   7.157  10.637  16.530  0.2791  0.1737  0.1353
21582W        W37716   7.873   0.438  16.716 -0.1882  0.2363  0.1464
21583W        W37717  14.279  11.401   5.381  0.1159  0.2033  0.0859
21584W        W37718   2.176  14.210  16.299  0.0554 -0.0077  0.1109
21585W        W37719  12.620  11.669  16.462  0.1963  0.0986  0.3785
21586W        W37720   3.650  14.241  16.217  0.2876 -0.0001  0.1310
21587W        W37721   6.868  13.551   2.628  0.3119 -0.2866 -0.1160
21588W        W37722   2.336  17.000   0.987 -0.2677  0.1149  0.0642
21589W        W37723  15.292  15.661  14.308 -0.0510  0.1584 -0.1207
21590W        W37724  11.715   5.296  12.818 -0.0642  0.1128 -0.1462
21591W        W37725  11.785  10.536   3.659 -0.2395  0.0361  0.0104
21592W        W37726   3.142  17.131  12.432 -0.2887  0.2946  0.0955
21593W        W37727  16.604  12.353   3.923  0.0580  0.0705 -0.2624
21594W        W37728  15.351  15.082   0.507 -0.1052  0.1740  0.1245
21595W        W37729   2.038  13.398  16.656 -0.1052  0.2733  0.1291
21596W        W37730   7.092   9.867  12.073 -0.0781  0.2202 -0.0625
21597W        W37731   3.584   0.703  12.087 -0.0646  0.0300 -0.3034
21598W        W37732   5.953  17.028   2.028  0.0643  0.0055  0.0515
21599W        W37733   8.476  12.423  13.949  0.2767  0.3613 -0.0037
21600W        W37734  14.998  11.280   2.932 -0.3777 -0.2563  0.0925
21601W        W37735   4.090   3.484   5.045  0.2775 -0.1036 -0.3180
21602W        W37736   4.414  10.076   4.623 -0.2135  0.0843  0.0394
21603W        W37737   0.289   6.197   4.492 -0.3378  0.2883 -0.3843
21604W        W37738  10.494   3.847  14.476 -0.0659  0.1778  0.2932
21605W        W37739   3.236   8.015  11.621  0.1235 -0.0698 -0.1566
21606W        W37740   3.829  15.222  13.396  0.1740 -0.1230 -0.1543
21607W        W37741  14.197   3.311  15.490  0.3109 -0.2571  0.0782
21608W        W37742  10.636   9.267  13.779  0.2412  0.1580  0.2057
21609W        W37743   1.323   7.579   3.007 -0.0756 -0.4805  0.3106
21610W        W37744   5.837   0.684   1.818  0.2289 -0.0251 -0.0447
21611W        W37745   1.891   5.806   1.419  0.2705  0.0952  0.0323
21612W        W37746   9.855   6.345  13.370 -0.0608 -0.0637  0.0759
21613W        W37747  17.426   0.311   1.077 -0.1239 -0.1071 -0.1808
21614W        W37748   3.406   1.068  15.108  0.1495 -0.1895 -0.0429
21615W        W37749   7.425   0.009  14.191 -0.2285  0.0737  0.1680
21616W        W37750   4.652   7.880  10.932 -0.0359 -0.0194  0.0578
21617W        W37751   1.079   9.687   1.834  0.1003  0.0558  0.0042
21618W        W37752   9.515   9.210   0.270 -0.1247  0.1528  0.0439
21619W        W37753   6.387   4.789  12.420  0.1716  0.0495 -0.0329
21620W        W37754   3.251   4.046   1.680  0.0416 -0.2034  0.0286
21621W        W37755   5.129  10.313  15.269 -0.1300 -0.4190 -0.1955
21622W        W37756  10.499  11.518   5.340  0.2038 -0.1509  0.1610
21623W        W37757  15.520   4.077   6.333  0.3450  0.0408 -0.0877
21624W        W37758  11.840   4.784  13.700 -0.0599 -0.3769 -0.1694
21625W        W37759  14.317  10.482  15.875 -0.2552 -0.1668  0.0153
21626W        W37760   1.941  11.811   0.484  0.1035  0.0616 -0.0499
21627W        W37761   8.119  17.183  14.182  0.0320  0.1079  0.1302
21628W        W37762  12.266  12.343  15.379  0.0718  0.1735 -0.0926
21629W        W37763   1.654   1.289   6.065 -0.1383  0.0538 -0.0007
21630W        W37764  15.887   0.345   3.906  0.1001 -0.3029 -0.1428
21631W        W37765  14.317   3.013   5.556 -0.1228  0.0714  0.0475
21632W        W37766   2.890  17.656   0.848  0.1034  0.2562 -0.0050
21633W        W37767   4.851  12.674   1.336 -0.1585  0.1918  0.1067
21634W        W37768  10.758  15.555  15.553  0.0354 -0.3246  0.0440
21635W        W37769   4.006   1.772  15.302  0.1675 -0.1984  0.0401
21636W        W37770   8.598   8.499  13.341 -0.1929  0.3625  0.0933
21637W        W37771  12.180   4.192   4.845  0.0499  0.1225 -0.0249
21638W        W37772  15.763   3.947   3.191  0.0818  0.1237  0.1083
21639W        W37773  15.339   0.655  13.089  0.4236 -0.0062  0.0766
21640W        W37774   6.550   2.057   0.339  0.1215  0.0910 -0.0963
21641W        W37775   4.866  10.887   1.794  0.0008  0.0954 -0.1453
21642W        W37776   3.940  13.217   0.568 -0.1182  0.0353  0.0907
21643W        W37777   4.811  17.630   0.535  0.0587 -0.1819  0.0195
21644W        W37778  13.499   6.928  11.489  0.0099  0.1390  0.0938
21645W        W37779  15.878   8.403  14.565 -0.1080  0.5911  0.1961
21646W        W37780   8.514   5.285   3.169 -0.0545  0.0701  0.3756
21647W        W37781  15.621   9.093   5.273  0.1369 -0.1382  0.0996
21648W        W37782   1.973  13.537  13.123 -0.1750 -0.1760  0.3426
21649W        W37783  15.471   4.892   3.982 -0.2195  0.1811  0.2215
21650W        W37784   5.330  13.697   0.930  0.1599  0.0636  0.2312
21651W        W37785  15.695   9.485   1.202 -0.0540  0.2879 -0.0577
21652W        W37786   9.473  12.816   0.786 -0.0386 -0.1808 -0.1738
21653W        W37787   1.636  13.635   0.688  0.1713 -0.2926  0.2725
21654W        W37788  14.878   5.022   2.589 -0.0498  0.2909  0.1800
21655W        W37789   8.452  17.967  12.504 -0.0853 -0.1768 -0.0390
21656W        W37790  14.720  11.816  15.228 -0.0138  0.1615  0.1039
21657W        W37791   4.595  11.670   2.245 -0.0795  0.1159  0.1612
21658W        W37792  10.773   4.173   2.601  0.3066 -0.0120 -0.0421
21659W        W37793   9.133   8.792  15.062  0.0037  0.1175  0.2850
21660W        W37794   0.891   9.899   2.427 -0.1365  0.1009 -0.1546
21661W        W37795   5.907  15.303  12.011  0.4700 -0.3541  0.0435
21662W        W37796  13.184   5.170   1.121 -0.0574 -0.1468  0.1846
21663W        W37797  11.991   3.501   0.096 -0.2449  0.0929  0.1357
21664W        W37798  13.228   2.265   4.330 -0.0304  0.1075 -0.0002
21665W        W37799  15.014  15.299  12.406  0.1747 -0.0814 -0.0455
21666W        W37800   7.849   5.677  15.531 -0.1665 -0.3440 -0.2757
21667W        W37801  11.931   4.311   3.613 -0.0942  0.2761  0.2219
21668W        W37802  10.547   6.376   2.828 -0.0177  0.1248 -0.2839
21669W        W37803   8.877  16.393  12.011  0.2232  0.0040 -0.2271
21670W        W37804  11.384   6.420   0.535  0.0910  0.1963 -0.1210
21671W        W37805   1.532   8.499  13.849  0.1081  0.2965 -0.2516
21672W        W37806  17.818   6.231  13.015  0.0878  0.0392  0.0333
21673W        W37807  15.799   8.822  13.378  0.2686  0.0032  0.1340
21674W        W37808  12.628  11.714   1.890 -0.1288 -0.1486  0.0541
21675W        W37809   8.524   2.933  10.967 -0.1015 -0.0213  0.0293
21676W        W37810   5.913   4.542  16.687 -0.0149 -0.1534  0.0675
21677W        W37811   1.862  15.267   1.127 -0.2105  0.4327 -0.0936
21678W        W37812  11.016   7.022  15.024  0.1405  0.0396  0.1889
21679W        W37813   7.113   3.477  13.554 -0.0232  0.0822  0.2294
21680W        W37814  12.141   0.957  15.220 -0.0681  0.3158 -0.0258
21681W        W37815   9.609  13.391  13.097 -0.0998 -0.1097 -0.0779
21682W        W37816   9.406   4.075   2.689  0.2381 -0.0668 -0.0891
21683W        W37817   8.920  10.967  13.854  0.3562  0.0485  0.1342
21684W        W37818   4.525   6.106  13.393 -0.1158 -0.0549  0.0828
21685W        W37819  13.723  13.139   0.434 -0.3153 -0.1147  0.3507
21686W        W37820   5.167  11.616  12.304 -0.3907  0.2472  0.1734
21687W        W37821  14.235   3.528  11.632 -0.0360  0.1454 -0.1431
21688W        W37822   2.527  17.186  16.698 -0.0698 -0.0122  0.0157
21689W        W37823   1.756  14.966   4.114  0.1167 -0.2717 -0.1212
21690W        W37824  10.941   4.152  14.384  0.0008  0.1149  0.1027
21691W        W37825   1.527  12.240   1.311  0.1551 -0.0424  0.2462
21692W        W37826  17.459   6.295  13.472  0.1723 -0.0767 -0.3154
21693W        W37827  13.056   6.215  13.659 -0.0923 -0.2668  0.0877
21694W        W37828  14.420  15.604  14.904  0.2677 -0.0802  0.0004
21695W        W37829  16.859   4.861  14.082  0.4366 -0.2336 -0.0876
21696W        W37830  10.076   9.504  10.167  0.0546  0.1411  0.0747
21697W        W37831   1.424   9.389  15.386 -0.2432 -0.0515  0.2046
21698W        W37832  10.585  12.254  14.449 -0.0814  0.1114  0.1280
21699W        W37833   3.130  14.721  12.199  0.3489  0.1981  0.2727
21700W        W37834   2.119  10.304   0.534  0.1643 -0.1613 -0.1443
21701W        W37835   9.279   9.686   4.988 -0.1125 -0.0255 -0.0598
21702W        W37836   2.842   6.872  11.378  0.3884  0.0696 -0.0857
21703W        W37837  15.137   6.350   4.237 -0.1619  0.2740 -0.3311
21704W        W37838  11.441   5.071  15.523  0.2154 -0.0966  0.2039
21705W        W37839   0.765   3.052   4.877  0.2135  0.1871  0.1309
21706W        W37840   8.791  15.082  11.753  0.0769 -0.4102  0.0076
21707W        W37841   7.304   2.829   4.191 -0.2088 -0.0391  0.0486
21708W        W37842   2.722   5.263  13.459 -0.2002  0.0733 -0.0206
21709W        W37843  17.605  16.424  15.692  0.0199  0.2450 -0.3641
21710W        W37844  13.200  14.395   3.627  0.2709  0.0706  0.4317
21711W        W37845  11.074   7.426  12.459  0.1062 -0.1342  0.1182
21712W        W37846  14.782   5.634   5.435 -0.0272  0.2495  0.0980
21713W        W37847   4.961  12.135  14.278  0.3390 -0.0050 -0.0781
21714W        W37848  17.224  17.216  12.308  0.0129 -0.1047 -0.1536
21715W        W37849  15.658   7.214  12.556 -0.1080  0.2382  0.1196
21716W        W37850   6.653   1.825  11.878 -0.0868 -0.0513 -0.0670
21717W        W37851  15.378   2.842  12.913 -0.0600 -0.2492 -0.1355
21718W        W37852   6.767   7.115   1.821  0.1093  0.0469  0.2936
21719W        W37853   4.687   2.032   2.381  0.0789  0.0293  0.0208
21720W        W37854   4.406   2.734  14.345  0.1597  0.0205  0.2014
21721W        W37855   4.262   4.014   0.413 -0.1626  0.3086 -0.0099
21722W        W37856   1.073  13.322  12.778  0.2075 -0.0902  0.0212
21723W        W37857  17.760   2.318   4.046 -0.0849  0.1658 -0.1954
21724W        W37858  16.652  14.476  12.056 -0.4447  0.2068  0.0458
21725W        W37859  15.721   3.200   0.875  0.4120 -0.0864 -0.0991
21726W        W37860  11.923   2.551   4.605  0.0970  0.0658 -0.3126
21727W        W37861   0.844  12.537  15.607  0.2698 -0.1402  0.3744
21728W        W37862   8.886  10.151  14.374 -0.2843 -0.0109  0.2248
21729W        W37863  17.551   7.121   1.717 -0.0464 -0.1993 -0.1052
21730W        W37864  10.582   1.524   0.844 -0.0106  0.0541  0.0458
21731W        W37865   9.019   9.799   2.308 -0.0885 -0.3794 -0.0467
21732W        W37866  17.857   5.228   2.325 -0.0448  0.3422 -0.1101
21733W        W37867  11.934  14.666   3.925  0.0204  0.2052 -0.0428
21734W        W37868  17.291  16.058   2.302 -0.2315  0.3365 -0.1192
21735W        W37869   8.350   0.237  13.836 -0.0593  0.3156  0.0715
21736W        W37870   7.062  10.376  13.331  0.1799 -0.0873  0.0939
21737W        W37871   6.513  17.099  13.944  0.0265  0.0090  0.2644
21738W        W37872   7.940  16.038   1.169  0.0140 -0.0211 -0.1301
21739W        W37873   0.661   9.129   2.240  0.0658  0.1710  0.0290
21740W        W37874   5.734   3.110  11.716 -0.1363 -0.1067  0.4018
21741W        W37875   0.008   3.451  16.601  0.2313 -0.0043  0.0424
21742W        W37876   9.841   5.401   0.284  0.1510  0.4749 -0.1404
21743W        W37877   5.129  16.729  13.684  0.0715  0.0182 -0.1378
21744W        W37878  16.878  16.884   4.066 -0.5140  0.2206  0.1629
21745W        W37879  14.515  12.262   4.568 -0.4836  0.1895  0.1364
21746W        W37880  15.798   5.576  16.118 -0.1625  0.1476  0.0729
21747W        W37881  10.256   6.859  11.499  0.0853 -0.0376 -0.1285
21748W        W37882   4.529  17.523  12.349 -0.1590  0.0686  0.1043
21749W        W37883   3.455   8.573  14.680 -0.1616 -0.1015 -0.2376
21750W        W37884   8.369  10.177   5.498  0.0399 -0.1197 -0.0108
21751W        W37885   6.083  15.052   5.707  0.2501 -0.2569 -0.0989
21752W        W37886  10.630  16.878  12.806  0.3809  0.0340 -0.1231
21753W        W37887  13.635  16.669   5.846  0.0364 -0.1467  0.1984
21754W        W37888   5.464   5.352  14.015  0.0983 -0.3277  0.0666
21755W        W37889  11.584   5.318  12.307 -0.0605  0.0160 -0.1008
21756W        W37890   1.576   5.024   3.570 -0.2136  0.1648 -0.3095
21757W        W37891  12.142   4.601  13.294  0.0416 -0.0021  0.4118
21758W        W37892  17.945   3.584   1.207 -0.0497  0.2758  0.0419
21759W        W37893  12.689   0.677   3.696  0.0493 -0.4324  0.1811
21760W        W37894   5.920   8.754  15.523  0.3177  0.0876 -0.1424
21761W        W37895   7.726   7.412  15.408  0.1434 -0.0263 -0.0941
21762W        W37896  13.704   2.869   3.068  0.1305 -0.0308 -0.3197
21763W        W37897  12.096   5.567   0.570 -0.0243  0.0405 -0.1015
21764W        W37898  10.898  16.866  14.368  0.2593  0.0271 -0.1436
21765W        W37899   6.385  17.737   1.051 -0.1112  0.1023 -0.0451
21766W        W37900  17.327   2.883   0.245  0.1589  0.1096 -0.1397
21767W        W37901  14.230  12.868  15.015 -0.2104  0.2047 -0.2829
21768W        W37902  10.617   1.977  16.377 -0.4575 -0.1050  0.2616
21769W        W37903   5.711  13.587   4.005 -0.1223 -0.4253  0.0122
21770W        W37904  14.444  14.741  14.782  0.0808 -0.1145 -0.1001
21771W        W37905   9.225  11.283   6.041  0.1079  0.0141  0.0553
21772W        W37906   8.789   5.325  12.599  0.1745 -0.0844  0.0078
21773W        W37907   6.672  14.783   3.280 -0.0592 -0.0440 -0.0696
21774W        W37908   9.048   9.074   0.218  0.1334  0.4121 -0.0191
21775W        W37909   9.982   2.944   0.597  0.0169  0.0591 -0.1735
21776W        W37910   2.902  12.021   5.367 -0.0352 -0.1976 -0.4856
21777W        W37911   6.861   5.624   1.865  0.0376  0.2093  0.3195
21778W        W37912   7.454   8.367   3.359  0.3294  0.2363 -0.0104
21779W        W37913  10.241  14.681  12.757 -0.3770  0.1286  0.0833
21780W        W37914  12.218   9.973  11.800  0.0685 -0.0401 -0.1280
21781W        W37915  12.284  15.784   0.645 -0.1209  0.2330 -0.1716
21782W        W37916  11.632  14.538   2.684 -0.2288  0.2094  0.2535
21783W        W37917   9.728  17.174   4.018  0.0305  0.0984  0.0871
21784W        W37918   9.717   9.588  15.231 -0.0094 -0.0052 -0.1831
21785W        W37919  13.189   0.534  16.092 -0.1917  0.0908 -0.2718
21786W        W37920   8.307  15.652   1.180  0.0228  0.3515 -0.0325
21787W        W37921   7.466   0.046  11.348 -0.2333 -0.0334 -0.0325
21788W        W37922  14.941  17.334  15.399  0.1531 -0.1352 -0.0501
21789W        W37923   0.469   1.669   0.479  0.2798  0.1888 -0.0460
21790W        W37924  14.051  14.144  12.707 -0.0653 -0.3015 -0.0420
21791W        W37925   8.783   4.161   5.107  0.1805  0.0348  0.0033
21792W        W37926  16.022  15.560  12.396 -0.1362  0.2087 -0.0306
21793W        W37927  11.086   2.865   4.561 -0.2154 -0.4311  0.2239
21794W        W37928   7.370   5.574  15.685 -0.3766  0.1191 -0.0598
21795W        W37929   2.046   2.447   1.737 -0.0712  0.0799 -0.1598
21796W        W37930  16.531  16.318  14.924 -0.1978 -0.2119  0.2061
21797W        W37931   9.560  16.504  14.221  0.2288 -0.1120  0.2234
21798W        W37932  11.762  13.080   3.483  0.0326  0.1782 -0.3409
21799W        W37933  10.363   0.438  16.170  0.2045 -0.0079  0.0162
21800W        W37934  15.694  10.022   1.143  0.0322 -0.1510  0.1172
21801W        W37935   1.569   2.434   2.860  0.0016 -0.1538 -0.1328
21802W        W37936  11.997  16.637   0.489 -0.1336 -0.1526 -0.3018
21803W        W37937  15.457   2.531   2.047 -0.0040  0.0701 -0.3157
21804W        W37938   4.987  15.581  15.463 -0.1574 -0.2381 -0.2755
21805W        W37939   6.610  17.366   2.436 -0.2645  0.1847 -0.0036
21806W        W37940  16.292  16.459   0.800  0.0872  0.3146  0.0258
21807W        W37941  11.005  16.719   1.287  0.3217 -0.0127 -0.3746
21808W        W37942   4.320  16.939  11.861  0.3189  0.1030  0.0167
21809W        W37943  11.918   6.638  16.574 -0.0374  0.1159 -0.1267
21810W        W37944   1.981   5.801   2.418 -0.0954 -0.2124 -0.3777
21811W        W37945  14.045  10.536   1.548  0.0854 -0.0184  0.1682
21812W        W37946   9.305   8.624  14.303 -0.0868  0.0091  0.3296
21813W        W37947   9.030  11.710   2.780 -0.0491  0.0279 -0.1487
21814W        W37948   4.663   1.523  16.147  0.1412  0.0553 -0.1028
21815W        W37949  10.946  11.214  11.123  0.3739  0.1815 -0.0757
21816W        W37950   2.030   1.008  13.286  0.2824 -0.0913 -0.3200
21817W        W37951   8.455   6.199  13.900  0.1715  0.0597 -0.0304
21818W        W37952  17.011   8.768  14.597 -0.0967 -0.2368 -0.0865
21819W        W37953  10.194  10.308   6.324  0.2477 -0.3591 -0.3350
21820W        W37954   8.536   9.580  13.220  0.2928 -0.0839 -0.1398
21821W        W37955   2.426   0.261   0.084 -0.1862  0.1504 -0.1002
21822W        W37956  17.528   5.024   4.227 -0.0090  0.2095  0.0040
21823W        W37957   9.546   7.386  14.428  0.0239  0.0397  0.1057
21824W        W37958  17.338   7.736  12.552  0.1190 -0.1736  0.2319
21825W        W37959   9.236   5.144   6.009 -0.0372 -0.0353  0.0994
21826W        W37960   1.391  12.374  14.953 -0.3412  0.1212  0.1215
21827W        W37961   7.913   4.973  12.769 -0.0302  0.3232  0.0982
21828W        W37962  10.470   5.569  14.922  0.1920 -0.1938  0.1474
21829W        W37963   7.353  15.940   3.255 -0.2275  0.0064  0.0260
21830W        W37964  13.532   5.079   2.565 -0.0601  0.2532  0.0105
21831W        W37965  13.147  10.539  12.464 -0.1633 -0.0820 -0.1582
21832W        W37966  12.581   8.394   1.552  0.4123 -0.0486 -0.0087
21833W        W37967   9.607  14.868  11.420  0.1662 -0.0479  0.1029
21834W        W37968   6.980   3.913   3.349  0.0838 -0.1858 -0.3579
21835W        W37969  11.991  11.919  15.559 -0.3851  0.3197  0.2286
21836W        W37970  10.490  12.055   4.330 -0.1448  0.2674 -0.1495
21837W        W37971  13.514   5.577  14.977 -0.4038 -0.1070 -0.1755
21838W        W37972   6.221   3.018   3.499 -0.1369 -0.1808 -0.0346
21839W        W37973  10.011   2.688   2.169  0.2413  0.3220  0.0159
21840W        W37974  10.891  14.729  15.940 -0.1370  0.2667 -0.0298
21841W        W37975   5.124  13.059   1.582  0.1196 -0.2029  0.0158
21842W        W37976   6.166   9.193   0.905 -0.2880 -0.2549 -0.1412
21843W        W37977  12.733   3.705  12.852  0.1065  0.1410 -0.1562
21844W        W37978   7.418  13.985   3.481  0.0027 -0.1543 -0.0758
21845W        W37979   9.488  15.779  12.054 -0.2484 -0.2209 -0.0787
21846W        W37980   7.967   1.135   1.227 -0.3542 -0.0254 -0.2336
21847W        W37981  17.163  17.913  13.454  0.0938 -0.1111  0.1092
21848W        W37982   0.653  14.731   3.640 -0.1633  0.0445  0.0659
21849W        W37983   8.518   3.996   2.240  0.0596 -0.0326  0.2500
21850W        W37984  16.812   2.195   3.160  0.2776 -0.0653 -0.1218
21851W        W37985   5.530   5.161   0.210 -0.1045  0.1022  0.0447
21852W        W37986   2.392   8.273   6.091  0.1512 -0.0115 -0.0476
21853W        W37987   8.915   2.585   4.487 -0.3117 -0.1650 -0.1938
21854W        W37988   9.767  14.319  13.528  0.1989  0.0472 -0.2556
21855W        W37989  14.973   0.548   5.995  0.1306  0.0286  0.1899
21856W        W37990   4.151  10.557   6.052 -0.0266 -0.0540  0.1558
21857W        W37991   0.471   8.973   0.246  0.3192 -0.2377  0.2087
21858W        W37992  10.881   3.666   0.632 -0.2069  0.1149 -0.0627
21859W        W37993  17.202   7.002  14.581 -0.1385 -0.1521  0.0949
21860W        W37994  12.189   0.802  12.460  0.1782 -0.1963  0.0246
21861W        W37995   7.137   4.970  13.612  0.3213  0.0501 -0.2963
21862W        W37996   5.120   6.919  11.652 -0.0474  0.3756 -0.1687
21863W        W37997   1.244   2.079  15.824  0.2589 -0.0149  0.2649
21864W        W37998  13.662  13.052  14.347 -0.2458  0.0088  0.2321
21865W        W37999   0.390   9.126  13.377  0.0139 -0.3313 -0.1884
21866W        W38000  15.911   2.676  15.470 -0.0705 -0.2877 -0.2672
21867W        W38001  11.929   6.141  15.100  0.0952  0.0382 -0.0664
21868W        W38002   2.851  14.340  12.197 -0.0195  0.1352  0.5217
21869W        W38003   0.546  10.821  14.080 -0.0322  0.0999 -0.1437
21870W        W38004   9.362   6.086  14.334  0.0775 -0.1218 -0.0118
21871W        W38005   4.337   6.280   0.900 -0.1518 -0.1031 -0.1788
21872W        W38006  11.137   7.301   1.807 -0.0114 -0.0716  0.2243
21873W        W38007   7.611  10.977   1.332  0.2380  0.1096  0.0889
21874W        W38008  16.036   8.651  16.227  0.1489  0.0378  0.0382
21875W        W38009   3.017  14.833  13.750 -0.0775  0.1996 -0.0272
21876W        W38010  17.729   7.943  16.327  0.0919  0.0068 -0.1536
21877W        W38011   2.912   2.459  14.240  0.0227  0.0262  0.0501
21878W        W38012   9.178  13.758   4.233  0.0368  0.2343 -0.0335
21879W        W38013  15.297   7.846   2.847 -0.4632  0.3207  0.1421
21880W        W38014   3.832  10.014   1.339  0.1466  0.2295 -0.0092
21881W        W38015  16.180   9.602  13.352 -0.1135 -0.0633 -0.1958
21882W        W38016  15.654  11.634   5.211 -0.0558 -0.1412  0.2846
21883W        W38017   5.392   0.434  11.860  0.2494 -0.2885 -0.2319
21884W        W38018   7.481   5.433  16.315  0.0291 -0.0417  0.1556
21885W        W38019   7.607   4.752  15.694 -0.1260 -0.4390 -0.0524
21886W        W38020   8.368   2.235   5.503  0.5766  0.1868  0.2056
21887W        W38021   2.226  15.558  15.890 -0.0352 -0.0112  0.0323
21888W        W38022   5.077   1.448   0.627 -0.2195  0.1148  0.1092
21889W        W38023  10.495  17.232  15.045 -0.0686 -0.0884  0.0033
21890W        W38024   9.163   1.081   4.360 -0.0309  0.0267 -0.0127
21891W        W38025   3.080  11.618   4.650  0.0704 -0.2032  0.0223
21892W        W38026   9.978   5.796   3.153  0.1333 -0.2722 -0.0955
21893W        W38027   4.879   6.580  16.521  0.0931  0.2114  0.1350
21894W        W38028  16.968   5.076  11.676 -0.0592 -0.0908 -0.1185
21895W        W38029   3.168   3.145   2.248 -0.1362 -0.1210  0.1635
21896W        W38030  13.825   6.267  15.224  0.1793  0.1354  0.0937
21897W        W38031   8.961   8.412   3.285  0.0205 -0.0943  0.1141
21898W        W38032   1.782   2.795   6.189 -0.0559  0.1344 -0.0656
21899W        W38033  13.224   8.728  12.006 -0.1648 -0.0094  0.0613
21900W        W38034   9.267  15.446  11.038  0.2737 -0.0610 -0.1673
21901W        W38035   2.363  15.419   0.893 -0.0156 -0.3390 -0.0518
21902W        W38036   8.009   3.660   2.466  0.1561  0.1212 -0.1812
21903W        W38037   4.204   4.851   3.088 -0.0103  0.0629  0.1916
21904W        W38038  11.621  14.082  12.115  0.1084 -0.2513  0.2363
21905W        W38039   0.217   7.410   3.691 -0.0446 -0.0183  0.1523
21906W        W38040  17.431   3.230  14.783  0.1282  0.1285 -0.2183
21907W        W38041   2.499  10.060  15.679  0.0644 -0.0265 -0.0866
21908W        W38042  16.639  16.244  12.197 -0.1347 -0.0833  0.0865
21909W        W38043   5.091   1.779  12.123 -0.1442  0.0676 -0.0038
21910W        W38044  10.877  16.103  11.571 -0.0384  0.0660 -0.1840
21911W        W38045   1.628  13.151  12.089  0.0261  0.2610  0.0966
21912W        W38046  10.611   4.646   6.382  0.0144 -0.0066 -0.0488
21913W        W38047  10.454   8.647   4.897  0.0214 -0.0924 -0.1439
21914W        W38048   1.692  11.565  13.694  0.1437  0.0572 -0.2767
21915W        W38049   6.708  13.063  10.513  0.0995  0.1561  0.5047
21916W        W38050   3.528   4.702   4.543 -0.0140 -0.1137  0.0083
21917W        W38051  10.008   6.752  14.838  0.1764 -0.2551  0.4818
21918W        W38052  15.657   5.904   2.789  0.1071  0.1524  0.0577
21919W        W38053   7.325  17.126  13.024 -0.1568  0.2071 -0.1680
21920W        W38054   2.419   2.103   2.619 -0.0590 -0.5045  0.0822
21921W        W38055   7.531  10.371   2.968  0.1317  0.0046  0.0874
21922W        W38056  17.296  17.462  14.855  0.2738 -0.1780  0.0144
21923W        W38057  15.369  13.545  16.673  0.4336  0.0317 -0.1407
21924W        W38058  13.134   0.283  12.578  0.2337  0.3127  0.1274
21925W        W38059  17.646   9.644   5.759  0.1234 -0.0631 -0.0991
21926W        W38060   9.734  14.773  15.678  0.0160  0.2591  0.1182
21927W        W38061   8.152   9.169  11.983  0.1126 -0.3947  0.1827
21928W        W38062   3.893   9.621   1.037  0.1254  0.0517  0.0789
21929W        W38063  12.089  15.566   2.764  0.0453 -0.3089  0.0405
21930W        W38064   0.099   3.486  10.716  0.0604 -0.1925 -0.0801
21931W        W38065  17.159   6.317  12.442 -0.3365  0.1431  0.1818
21932W        W38066   6.299  16.787  12.672 -0.0161 -0.1383  0.2079
21933W        W38067   2.177   2.471   0.348  0.0166  0.0337 -0.1267
21934W        W38068  14.104  14.771  14.502 -0.0991 -0.2185  0.0512
21935W        W38069  15.481   5.092  12.684 -0.1351  0.0949 -0.0708
21936W        W38070  10.759  10.776   1.102 -0.0215 -0.2659 -0.2189
21937W        W38071  14.464   9.654  12.098 -0.0542  0.0738  0.3068
21938W        W38072   0.113   0.299  14.559 -0.0464  0.0072  0.1869
21939W        W38073  12.056  12.278  11.192  0.1438  0.1142 -0.1010
21940W        W38074  16.838  14.546  16.236  0.2038 -0.1336  0.1284
21941W        W38075   4.408   3.651  12.514 -0.0420  0.1450 -0.1286
21942W        W38076   8.962   3.010   3.443 -0.2876  0.0138  0.0484
21943W        W38077   0.210  17.460   4.864 -0.0357  0.0776  0.0028
21944W        W38078  10.328   7.573   5.531  0.1088  0.1701  0.1905
21945W        W38079   0.142  10.737   4.678 -0.0338 -0.2379  0.2044
21946W        W38080   4.860  14.931   0.895 -0.0692  0.3097  0.1016
21947W        W38081   6.437  12.425   5.887 -0.1669 -0.0299  0.2486
21948W        W38082   4.196   5.962  10.156 -0.1027  0.0720 -0.0860
21949W        W38083   3.565   9.687   2.034  0.0592  0.2538 -0.2879
21950W        W38084   8.000  15.813  11.724  0.3221 -0.0142  0.1614
21951W        W38085   0.050   7.275  13.560 -0.0465 -0.0383  0.0433
21952W        W38086   9.058  13.878   3.750 -0.1915  0.0481 -0.0407
21953W        W38087   7.379  14.546   1.698 -0.0259 -0.3418  0.1145
21954W        W38088   7.717   3.519  10.925  0.0420 -0.0196  0.3453
21955W        W38089   5.546   1.621  14.792  0.2372  0.4336 -0.2456
21956W        W38090  17.917   2.931   1.730  0.2034 -0.0461  0.3379
21957W        W38091   2.470  12.086  12.879  0.0002  0.2207 -0.0496
21958W        W38092  12.582  12.876   2.557  0.2608 -0.1606 -0.1153
21959W        W38093   6.785   8.457   0.604 -0.3403  0.0621  0.3512
21960W        W38094   2.368  11.106   5.074 -0.0248  0.2336  0.0244
21961W        W38095   8.535   0.963   2.739  0.2635 -0.1219  0.1399
21962W        W38096  11.153   2.791  12.282  0.1674 -0.1559  0.1152
21963W        W38097   9.613  17.612   5.814  0.0419 -0.1892 -0.0751
21964W        W38098  11.591   4.185   1.117 -0.0964  0.0637  0.1136
21965W        W38099  13.440  16.434   4.451 -0.0043 -0.0648 -0.0115
21966W        W38100   4.045  14.363   4.064  0.2589  0.2043  0.3234
21967W        W38101   4.902  16.418   2.475 -0.4030  0.1058  0.3888
21968W        W38102   9.868  14.692  14.853  0.2388  0.1457 -0.2302
21969W        W38103   9.124  14.509   4.423 -0.0393  0.0633 -0.0416
21970W        W38104   0.377  16.053   3.469 -0.1487 -0.0394  0.0276
21971W        W38105   1.991   9.794  15.875  0.1441 -0.2718 -0.2148
21972W        W38106   5.810  11.521   2.877 -0.3116 -0.3373  0.2599
21973W        W38107  12.968   0.784  11.321 -0.0148  0.1560 -0.3211
21974W        W38108   2.898  16.331  14.116 -0.0359 -0.0032 -0.1681
21975W        W38109   7.148   0.139   0.898 -0.1449  0.0830  0.1782
21976W        W38110   7.109   1.515   3.636  0.2661  0.1620  0.2184
21977W        W38111   9.397   3.473   0.874  0.0643 -0.1288 -0.3006
21978W        W38112  11.986  14.945  11.526 -0.0146  0.1490  0.1452
21979W        W38113   0.843  16.127   6.086 -0.0333 -0.0635  0.0041
21980W        W38114   5.969   0.499   2.839  0.0455  0.2431 -0.0643
21981W        W38115  12.858  13.435  13.539  0.0180 -0.1899 -0.1181
21982W        W38116   8.335   2.848  14.343 -0.0953  0.4139 -0.3464
21983W        W38117  17.969  15.575   6.237  0.2680  0.0020 -0.0041
21984W        W38118  15.393   1.951  14.879 -0.2029 -0.2903 -0.2015
21985W        W38119   7.781   1.592   3.122  0.1716  0.1083 -0.4170
21986W        W38120  10.653  13.481  11.268  0.0983 -0.2122 -0.1185
21987W        W38121  11.996  12.022   6.429 -0.1732  0.1100 -0.0345
21988W        W38122   4.483  15.868  14.397  0.0960 -0.0691  0.0357
21989W        W38123   9.906  17.716  14.904  0.2153 -0.2293 -0.1161
21990W        W38124   7.586  16.134   4.387  0.0138  0.2503  0.0675
21991W        W38125  17.321   7.487   1.320 -0.2347 -0.1177 -0.2992
21992W        W38126   8.880   3.975   2.611 -0.1069 -0.1383  0.0943
21993W        W38127  13.064  11.995   0.395 -0.1251  0.0619 -0.3039
21994W        W38128  16.580   0.595  11.583 -0.1669 -0.2752 -0.0175
21995W        W38129   2.885  10.866   2.095 -0.1892  0.0971  0.2269
21996W        W38130  14.415   8.436   4.622 -0.1348  0.2290  0.0994
21997W        W38131   5.403  10.177   0.621  0.0488 -0.0882 -0.0935
21998W        W38132   4.320  15.070  15.338  0.3023 -0.1264  0.2150
21999W        W38133   3.189   5.181   0.468  0.1034 -0.2187  0.3897
22000W        W38134   0.469  15.991   0.366  0.1231 -0.0109 -0.0154
22001W        W38135  12.540  10.161  12.124  0.0747 -0.0825 -0.3520
22002W        W38136   8.925   3.342   1.615 -0.0748 -0.4015 -0.1932
22003W        W38137   4.745   7.225   4.115 -0.1322  0.2603  0.1223
22004W        W38138  17.705   0.007  14.706  0.1551  0.0558 -0.0652
22005W        W38139   6.094   0.274  16.367  0.0248 -0.1583 -0.0999
22006W        W38140   9.460  14.835   0.792 -0.0066 -0.3597  0.0753
22007W        W38141  17.148  13.530   5.146 -0.1357  0.0180 -0.0223
22008W        W38142   5.681  14.053   2.513 -0.4512 -0.1173 -0.1042
22009W        W38143   2.427  16.638   1.390  0.0159  0.1430  0.0498
22010W        W38144  10.988   0.241  12.518  0.0662  0.2540 -0.1494
22011W        W38145  15.629   9.710   2.073 -0.2193 -0.1768 -0.0124
22012W        W38146  17.244   7.849  11.177  0.1700 -0.0544  0.0785
22013W        W38147   7.303  17.394   2.247  0.0738  0.0937  0.1278
22014W        W38148  14.340   8.634  15.612  0.1170 -0.1451  0.0552
22015W        W38149   2.068   5.174  12.780  0.0104  0.0231 -0.1202
22016W        W38150   1.815  14.436   0.901 -0.1566  0.0813 -0.0315
22017W        W38151   2.146   0.086  15.881 -0.1144 -0.3026  0.2685
22018W        W38152   5.474   3.385  15.298  0.1117  0.0668  0.1481
22019W        W38153  13.473   1.864   4.506 -0.1232 -0.1192  0.1661
22020W        W38154  10.347   7.641  16.439 -0.3950 -0.0751  0.0093
22021W        W38155   9.943   8.853  15.023 -0.0288  0.0636 -0.1675
22022W        W38156  17.000   1.166   3.172  0.3290  0.4494 -0.0069
22023W        W38157  15.752   8.765   4.745  0.0875 -0.0344 -0.0925
22024W        W38158  15.985  14.453   4.519 -0.0763  0.0632  0.0475
22025W        W38159   0.264  12.082  12.084 -0.1141 -0.1676 -0.0020
22026W        W38160   2.556  17.613  11.308  0.0285 -0.1848 -0.0362
22027W        W38161   4.398  14.272  13.041 -0.1344  0.2407 -0.0879
22028W        W38162   0.065  16.492  13.785 -0.0210 -0.0789 -0.1398
22029W        W38163  10.651  10.706   6.073 -0.0638  0.0764  0.2662
22030W        W38164   7.282   2.970   2.497 -0.0909 -0.0124  0.0335
22031W        W38165  15.841   2.048   1.331 -0.1204  0.3490 -0.2437
22032W        W38166  15.658   0.780   1.035 -0.2753  0.2396 -0.3310
22033W        W38167  10.316   9.019   3.406 -0.3714 -0.1614  0.1942
22034W        W38168  13.910  15.799  16.406  0.1147  0.0468  0.1841
22035W        W38169   1.987   8.786  15.522 -0.1413  0.1225  0.4308
22036W        W38170  16.371   9.209  15.492  0.0319  0.1387  0.0123
22037W        W38171   6.864  11.108  11.515  0.2767  0.1523 -0.1289
22038W        W38172   5.145  16.860  16.016  0.3396 -0.0378  0.0210
22039W        W38173   0.999  14.048   3.528  0.2185  0.2117  0.2572
22040W        W38174   9.362   9.833   5.978  0.1424  0.0224  0.1626
22041W        W38175  13.510   6.411   5.416  0.0118 -0.0877  0.0776
22042W        W38176  13.188   5.769   1.914  0.0318  0.0616 -0.1686
22043W        W38177  12.489   7.356  15.577  0.3704  0.3592 -0.0906
22044W        W38178   0.472   1.109  12.159  0.0232 -0.3166  0.2846
22045W        W38179   5.379  14.850  12.282 -0.3009 -0.0483  0.1213
22046W        W38180   5.890   5.473  15.743 -0.5287 -0.1428 -0.0545
22047W        W38181   0.432  17.439  16.145  0.0166  0.0077 -0.2902
22048W        W38182   4.291  11.861   3.751  0.3113 -0.2032  0.2632
22049W        W38183   5.447   6.014  11.750 -0.1961  0.1755  0.2308
22050W        W38184  16.632   2.579  13.813  0.0232  0.1866  0.2583
22051W        W38185   2.400   7.617  11.516  0.0593  0.0369 -0.2485
22052W        W38186   5.359  12.125  15.870 -0.0375 -0.0703 -0.0361
22053W        W38187  16.842  10.849  12.376 -0.1025 -0.2191  0.0468
22054W        W38188   6.620  12.490  11.254  0.1733  0.0530  0.1462
22055W        W38189   4.928   5.543  15.134 -0.0102 -0.0519 -0.3725
22056W        W38190  10.664   0.611  15.029  0.4051 -0.1802  0.1494
22057W        W38191  14.271   8.651  14.434  0.3008 -0.2627  0.1676
22058W        W38192   0.697  11.452  11.549  0.0400 -0.3182 -0.0641
22059W        W38193   4.018   2.807   3.164 -0.0436 -0.2161  0.1793
22060W        W38194  12.785   5.045  15.469 -0.2195 -0.0743  0.0263
22061W        W38195  11.075  10.587   1.519 -0.0838  0.0309 -0.2102
22062W        W38196   6.930   6.474   0.987 -0.0428 -0.1770  0.2504
22063W        W38197   0.098  12.867   4.523 -0.0316 -0.0140  0.0602
22064W        W38198   5.732   5.098  16.078 -0.1586 -0.2359  0.1455
22065W        W38199   4.017  11.170  11.259  0.0462 -0.1332 -0.0770
22066W        W38200   8.084  15.747  13.570 -0.1005  0.1980 -0.0472
22067W        W38201  11.665   8.188   1.711 -0.0757 -0.2353  0.1626
22068W        W38202   9.921   0.043   6.019  0.0496  0.1761  0.0261
22069W        W38203   4.311   4.678  12.047 -0.0965 -0.3981  0.0511
22070W        W38204   9.277   9.139   2.750  0.0456 -0.1541 -0.1806
22071W        W38205   5.060   8.184  12.246 -0.4701  0.0648  0.1432
22072W        W38206  17.311   4.760   5.753 -0.1588 -0.1575 -0.0187
22073W        W38207   8.042  10.011   4.764  0.2511 -0.1169  0.3439
22074W        W38208  10.623  11.579   1.465 -0.0951  0.1623 -0.1663
22075W        W38209   4.207  16.371   0.171 -0.0466 -0.0430  0.0059
22076W        W38210   6.720   6.572   4.843  0.2553  0.0211  0.3853
22077W        W38211   6.350  12.776  13.536 -0.0713 -0.0825 -0.0501
22078W        W38212   6.723  11.427   3.636  0.1023 -0.0279 -0.0362
22079W        W38213   2.710  16.164  12.120  0.1364 -0.1128  0.0158
22080W        W38214   9.398  15.935  15.671 -0.0242  0.1016  0.3191
22081W        W38215   6.409  17.132  16.391  0.0803 -0.0576 -0.1339
22082W        W38216   1.690  14.046  13.137 -0.4800  0.3843 -0.1926
22083W        W38217  11.635   6.815   0.310 -0.0785  0.0548  0.0450
22084W        W38218  17.929  15.673  13.366 -0.3256 -0.3915  0.0839
22085W        W38219  14.874  12.170  14.921  0.1236 -0.3523  0.2118
22086W        W38220  13.924  16.400  15.259  0.3654 -0.1659  0.3317
22087W        W38221  14.406   0.607  15.200 -0.1929 -0.0900 -0.0181
22088W        W38222   7.012   9.311   4.440  0.2828 -0.1401 -0.2613
22089W        W38223   9.022  12.818  16.607 -0.0400 -0.1343  0.2978
22090W        W38224   6.265  16.421   0.480 -0.1685 -0.1252  0.2856
22091W        W38225  17.585   7.607   4.451 -0.0383 -0.0583  0.2639
22092W        W38226   9.994   1.254  15.922 -0.3872  0.1691 -0.1076
22093W        W38227  10.326   2.526   4.686  0.3029 -0.1122 -0.0645
22094W        W38228   7.637  14.294  12.410 -0.1879 -0.0500 -0.0161
22095W        W38229  13.349   7.394   2.556  0.0384 -0.0526  0.1004
22096W        W38230  12.134  11.471  12.357  0.0879  0.2559 -0.0517
22097W        W38231  17.806   7.603   1.869 -0.1663  0.0432  0.0578
22098W        W38232  11.481   2.830  16.356  0.2496  0.0142  0.1105
22099W        W38233  13.553  14.853  12.162 -0.1749 -0.2315 -0.0959
22100W        W38234   4.598   1.380   4.926 -0.0917  0.3190 -0.0078
22101W        W38235   1.801  15.476   0.674  0.4273  0.0923 -0.0399
22102W        W38236  16.617  14.597   4.519  0.1232  0.0406 -0.0912
22103W        W38237   6.966   5.945  12.457  0.1969  0.2229  0.0297
22104W        W38238  16.299   2.149   4.633  0.2155  0.3280  0.1203
22105W        W38239   7.468  16.043  14.479  0.0663  0.0398  0.1311
22106W        W38240   6.614   6.513  13.260 -0.2581  0.1814 -0.2453
22107W        W38241   0.351   3.513   2.551  0.1939 -0.0806  0.3940
22108W        W38242  15.825  16.101   5.908  0.2769  0.0495 -0.1534
22109W        W38243   3.365  11.692  15.780 -0.1081  0.0451 -0.1669
22110W        W38244   9.801  17.236  13.718 -0.4174 -0.0038  0.2037
22111W        W38245  11.483  13.012  11.256  0.2663 -0.1185 -0.2065
22112W        W38246   2.853   4.151  14.551  0.2231  0.0369 -0.1234
22113W        W38247  14.689   6.545   1.605  0.0031  0.0144 -0.0573
22114W        W38248   3.697   1.892   2.494  0.4085 -0.0856 -0.1622
22115W        W38249   3.281   4.995  15.202  0.3967 -0.3279 -0.0163
22116W        W38250  11.358  16.067   0.038 -0.0323  0.3013  0.0777
22117W        W38251  10.745   4.252  11.910 -0.1095 -0.3189  0.2306
22118W        W38252  13.421   0.990  12.968 -0.1235 -0.0709 -0.0334
22119W        W38253  14.691   7.870   4.916 -0.3101  0.1428 -0.1427
22120W        W38254   0.972  10.662  11.892  0.1046  0.1931  0.3382
22121W        W38255   2.485   1.605   5.086  0.0886 -0.1576 -0.0594
22122W        W38256  14.998   3.246   0.069 -0.0079  0.0733  0.0112
22123W        W38257  13.070  12.334  11.475 -0.2763  0.2227 -0.0011
22124W        W38258   0.546   5.260  13.842 -0.2339 -0.0963  0.0124
22125W        W38259   2.353   6.919   1.338  0.0464  0.2809  0.0115
22126W        W38260  17.394   0.042  15.043  0.1718  0.1983 -0.0750
22127W        W38261   6.773   2.791   1.811 -0.1639 -0.2638  0.0339
22128W        W38262  16.278   9.259  11.977  0.2145 -0.4103  0.1380
22129W        W38263   6.124   6.822  13.635  0.2838 -0.0519 -0.2615
22130W        W38264   0.166   7.286  16.036 -0.3227 -0.5156  0.2018
22131W        W38265   5.253   2.492  16.236 -0.2914  0.0836 -0.1464
22132W        W38266  10.947  13.455  13.426 -0.0035  0.1637 -0.1176
22133W        W38267   0.599   5.457  14.685  0.0908 -0.0092  0.1780
22134W        W38268   5.069   4.597   3.516  0.1800  0.0968 -0.1352
22135W        W38269  13.498   2.741  14.350 -0.1174  0.0411 -0.3156
22136W        W38270   8.942  16.106  14.750  0.2728  0.2779  0.2365
22137W        W38271   4.308   7.299  14.777  0.0474 -0.0947  0.0416
22138W        W38272   5.750   1.762   2.832 -0.1637  0.0138 -0.0174
22139W        W38273  11.074   3.025  12.713 -0.1321 -0.1847  0.1839
22140W        W38274  13.356   9.274   1.594  0.2000 -0.2290  0.0567
22141W        W38275  11.459   2.038  15.238 -0.0977  0.0425  0.2510
22142W        W38276   3.067  14.455  14.060 -0.0593  0.1847  0.1506
22143W        W38277   5.832  12.572   1.446 -0.0628  0.4258  0.0714
22144W        W38278   1.528   8.045  13.614  0.1033  0.2121  0.1531
22145W        W38279  13.280   4.774  14.904  0.1655 -0.0733 -0.0233
22146W        W38280  13.836  12.198  15.916  0.2720 -0.1818 -0.1879
22147W        W38281   2.829   9.686  11.701 -0.0231  0.1218  0.0661
22148W        W38282  13.162   3.411  13.681 -0.0360  0.2652 -0.2707
22149W        W38283  16.492  11.233  12.546  0.0980 -0.0421 -0.3388
22150W        W38284  17.261   5.354   4.575 -0.2017 -0.3170  0.0527
22151W        W38285   8.106   9.672  12.199 -0.0858 -0.1027 -0.0273
22152W        W38286  10.551   4.142   1.262 -0.1563  0.1035 -0.0923
22153W        W38287   0.536   1.112   5.025 -0.1819  0.1342  0.0385
22154W        W38288  17.177  10.560   3.595 -0.2240 -0.0397  0.2000
22155W        W38289  13.732   5.361  12.413 -0.1890 -0.1514  0.0994
22156W        W38290  13.331  13.193   1.266 -0.1715 -0.0643 -0.1918
22157W        W38291  17.260   6.307   4.579  0.1342  0.0960 -0.2775
22158W        W38292  13.623   4.987  15.644 -0.0797 -0.1004 -0.0854
22159W        W38293  15.728   8.941  14.252 -0.3231  0.2267  0.0601
22160W        W38294   3.096  10.687  12.245 -0.1528 -0.3504 -0.2266
22161W        W38295   3.038   4.601  14.790 -0.2288  0.0605 -0.0052
22162W        W38296  11.897  11.033   1.757  0.0675 -0.1265 -0.0984
22163W        W38297   6.257   1.623  14.235  0.0180 -0.0780 -0.1980
22164W        W38298   6.367   8.720   0.769  0.2608 -0.1734  0.2055
22165W        W38299   9.715   3.691   2.987  0.2765 -0.0065 -0.2025
22166W        W38300  16.110   5.621   4.231  0.1807  0.2080 -0.2635
22167W        W38301   7.957   0.884  16.580 -0.0671 -0.1695  0.0222
22168W        W38302   5.139   9.740   4.915 -0.4040 -0.0033  0.1136
22169W        W38303   4.422   2.760   0.478 -0.2592  0.0150 -0.1431
22170W        W38304  17.636  16.925  16.594  0.0457  0.1129  0.1412
22171W        W38305   7.073   3.795   0.150 -0.3060  0.0216  0.3089
22172W        W38306  14.222  13.262   1.203 -0.0671  0.2037  0.3229
22173W        W38307   5.514  13.430  12.622  0.1386  0.1421 -0.1929
22174W        W38308  10.118   7.285  14.579 -0.1935 -0.0284 -0.1082
22175W        W38309  12.968   7.651  13.806 -0.3050  0.0748  0.1555
22176W        W38310   8.369   1.195   1.585  0.0081  0.0325  0.0185
22177W        W38311   1.408  14.026   0.884 -0.3459  0.2104  0.0978
22178W        W38312  17.713  10.575   3.786 -0.0101  0.0299  0.1166
22179W        W38313   7.889  11.953   3.092 -0.0193 -0.2797 -0.0216
22180W        W38314   0.572   9.914   5.569  0.2307  0.1512 -0.1289
22181W        W38315  15.766   5.369   0.943 -0.0878 -0.0667 -0.1117
22182W        W38316  10.764  10.150  12.750 -0.0072  0.1358 -0.0788
22183W        W38317   6.189   2.982  16.118  0.2102 -0.0182  0.3431
22184W        W38318   7.281   7.034   4.278 -0.1163  0.1779 -0.1731
22185W        W38319  17.009  10.848   4.018  0.2504 -0.1892  0.2689
22186W        W38320   0.367   7.814   2.827  0.1655 -0.0805 -0.3756
22187W        W38321  17.382   9.263  13.980 -0.0149 -0.0564 -0.3492
22188W        W38322  12.002  12.611  11.591 -0.3033 -0.0836  0.0987
22189W        W38323   2.751   9.163   3.998 -0.2935  0.1250  0.1312
22190W        W38324   7.261   9.595  11.673 -0.2945 -0.1463 -0.3687
22191W        W38325   4.140  14.780  13.064 -0.0655 -0.1075  0.2157
22192W        W38326  17.666  11.776   0.562  0.0893 -0.2022 -0.1811
22193W        W38327  10.767   4.466  13.934  0.1179 -0.0669  0.0845
22194W        W38328  11.556  17.646   2.970  0.0466 -0.1084  0.2072
22195W        W38329  10.435  17.158  14.256 -0.0263 -0.0066  0.1511
22196W        W38330   5.655   3.958  11.782  0.1996 -0.3009  0.1602
22197W        W38331  10.027   1.108  11.366  0.0727  0.0555 -0.1592
22198W        W38332   4.474  12.446   0.180  0.1236  0.3620  0.3152
22199W        W38333  13.755   0.363  11.849 -0.2406  0.0938 -0.0484
22200W        W38334   5.355  13.639   5.269  0.1427 -0.1255  0.0632
22201W        W38335   5.055   0.838  15.524  0.1574  0.0837  0.1919
22202W        W38336   9.803   7.834  14.950 -0.2021 -0.1559 -0.3178
22203W        W38337   4.260   4.820  14.073 -0.0287  0.0186 -0.0767
22204W        W38338  15.864  15.088   4.166  0.1238  0.0206  0.1722
22205W        W38339  12.626  12.122   1.453 -0.1134 -0.3222  0.0255
22206W        W38340   2.336   8.481   1.877 -0.1466  0.0082  0.0105
22207W        W38341   2.008   4.213  15.655  0.1013  0.1946  0.1197
22208W        W38342  17.426  12.260  13.215 -0.1636  0.1123  0.1572
22209W        W38343  12.366   5.446   4.682 -0.0521 -0.0252  0.1535
22210W        W38344   2.170  12.767  14.761 -0.0190 -0.2500 -0.0131
22211W        W38345   2.008  15.797   2.980 -0.2069 -0.1814 -0.1891
22212W        W38346   9.693  16.368  12.919 -0.0185  0.0448  0.2747
22213W        W38347   4.780   1.256  15.715  0.1058  0.0851 -0.0491
22214W        W38348   1.265   1.754   0.927  0.1558  0.2677  0.1704
22215W        W38349  10.841  10.979   5.719  0.2437 -0.1514 -0.1327
22216W        W38350  17.674   0.933  15.398  0.1187  0.2534  0.2744
22217W        W38351   3.298   4.430  12.139 -0.1146  0.3029 -0.0329
22218W        W38352   7.036   7.098  14.775 -0.0552 -0.1573 -0.1672
22219W        W38353   6.269   4.885   4.247  0.2486 -0.1083  0.1792
22220W        W38354  15.505  12.972  12.125  0.0304 -0.0248  0.0999
22221W        W38355  17.610   4.115  14.447 -0.0120  0.2081 -0.0164
22222W        W38356  15.734   7.859  13.070 -0.0298 -0.0085  0.3486
22223W        W38357   5.294  12.242  15.387 -0.2263  0.1078  0.1075
22224W        W38358   9.291  17.785   1.381  0.2286 -0.1528  0.0356
22225W        W38359  14.108   4.967   3.873 -0.0416  0.1174 -0.1036
22226W        W38360  14.502   4.540  15.549 -0.2350 -0.0435 -0.0468
22227W        W38361   3.398  11.250   5.787  0.0859 -0.0797 -0.1846
22228W        W38362   0.760  15.467   4.286  0.1186  0.0633 -0.0746
22229W        W38363  11.208  14.218  16.292 -0.2613 -0.0096  0.1889
22230W        W38364   6.517  15.203  14.524 -0.0517  0.1150 -0.2397
22231W        W38365  15.938  17.314  11.803 -0.0199 -0.2384 -0.2657
22232W        W38366  17.057   4.839   2.350 -0.2680  0.1269 -0.2290
22233W        W38367  10.252   0.583  14.662  0.3369 -0.1460 -0.0788
22234W        W38368   8.185  16.439  15.577  0.2379 -0.0797 -0.0691
22235W        W38369  13.827  17.875   5.441  0.0127 -0.1346 -0.0005
22236W        W38370  15.350  13.058   5.320 -0.1831  0.0571  0.1811
22237W        W38371   9.058  10.485  14.729 -0.0604 -0.0627  0.1939
22238W        W38372   4.647  14.500   1.007  0.2419 -0.1601  0.0885
22239W        W38373   8.084   2.882   4.968 -0.0215  0.0257  0.0864
22240W        W38374  12.083   7.209   5.148 -0.0506 -0.2336 -0.2113
22241W        W38375   2.756   6.837   1.710 -0.2567  0.0941 -0.2290
22242W        W38376   2.502   3.462   0.586 -0.1146 -0.4335  0.1207
22243W        W38377   2.156   2.105   5.427 -0.4624 -0.2290 -0.3526
22244W        W38378  15.501   6.919  13.855  0.2604 -0.4147  0.0792
22245W        W38379  10.248   2.769  14.443 -0.0189  0.0388 -0.0693
22246W        W38380   0.647   8.544   0.410 -0.0605  0.1308  0.0555
22247W        W38381  10.196  15.137  15.697 -0.1795  0.0140 -0.0020
22248W        W38382  16.357   6.386   0.984 -0.0173  0.2720  0.4152
22249W        W38383   5.060   1.747   4.220  0.0470 -0.0299 -0.0598
22250W        W38384   9.735  16.477   3.726 -0.2131  0.3005  0.0240
22251W        W38385  14.133   9.123  11.207 -0.3076  0.1271 -0.0549
22252W        W38386  13.662   9.250  14.784  0.1239 -0.1293 -0.0031
22253W        W38387   6.547   5.080  16.377 -0.1751  0.0392  0.1232
22254W        W38388   1.471  14.092  15.072 -0.0155  0.2732  0.0427
22255W        W38389  13.287  10.376  15.661 -0.0490 -0.1672 -0.1116
22256W        W38390   4.174  13.266  15.508 -0.2529 -0.0046 -0.0940
22257W        W38391  15.809  15.168   6.044  0.3106 -0.0418 -0.0121
22258W        W38392   0.995  10.788  14.938  0.0113 -0.2261 -0.3028
22259W        W38393  16.128  10.599   4.046  0.0285  0.3436  0.1019
22260W        W38394   6.208  17.580   0.062  0.2157  0.1224  0.0866
22261W        W38395  14.769   1.139  14.821 -0.1918 -0.0382  0.1486
22262W        W38396   2.052   0.120   3.571 -0.3383 -0.0680 -0.0579
22263W        W38397   8.565  10.743   0.479  0.2456 -0.0566 -0.0169
22264W        W38398   0.848   8.234   3.715 -0.2176 -0.1253 -0.2038
22265W        W38399  13.399  13.331  14.627 -0.0189 -0.1834 -0.4514
22266W        W38400  14.104   9.607   3.448  0.0060 -0.1120  0.3434
22267W        W38401   8.828   4.695  12.804 -0.2164  0.0924  0.1656
22268W        W38402  11.015   4.820  12.542 -0.1465 -0.0575 -0.2298
22269W        W38403   4.273   8.160  14.386  0.0637  0.0227 -0.1589
22270W        W38404   9.006  10.634   0.727 -0.1164 -0.2244 -0.0679
22271W        W38405  16.678   8.606   4.483 -0.0574  0.1666  0.0102
22272W        W38406   1.459  16.784   0.467  0.0105 -0.2679 -0.2148
22273W        W38407  17.411   0.574   4.982  0.3582  0.2221  0.0525
22274W        W38408  10.307   9.624  13.827 -0.2178 -0.0334  0.2542
22275W        W38409  17.102   2.193   0.310  0.0539 -0.0398  0.2143
22276W        W38410  13.624  12.161   5.128 -0.0519 -0.1304  0.1407
22277W        W38411  14.437   7.850   2.536  0.0712  0.0637  0.0927
22278W        W38412  16.020   1.233   5.855 -0.1568 -0.1572  0.0003
22279W        W38413  12.518   8.257   2.021 -0.0346 -0.0292 -0.1876
22280W        W38414  10.685   4.259   4.915 -0.2806 -0.0135  0.0063
22281W        W38415   8.044   6.467  14.229  0.1744  0.2560  0.1298
22282W        W38416  15.671   7.495   0.380 -0.0789 -0.0796  0.1283
22283W        W38417   7.442  13.510   4.517  0.4308  0.2721 -0.0338
22284W        W38418   7.844  12.475   2.945 -0.0589  0.2273 -0.0943
22285W        W38419   6.830   6.945  11.360  0.0549  0.4670 -0.2599
22286W        W38420   6.297   6.949   1.897 -0.0948 -0.3024 -0.1702
22287W        W38421   8.155   8.106  14.035  0.1900 -0.4662 -0.0738
22288W        W38422   4.209  15.222  12.887  0.2914 -0.0719  0.0455
22289W        W38423  15.022   4.773  14.285  0.1136  0.0909  0.2041
22290W        W38424  15.305   3.924  11.180  0.1104  0.1935 -0.1061
22291W        W38425   2.107  12.273  15.582  0.2920  0.0839 -0.0601
22292W        W38426   0.252   3.435   0.428 -0.2510 -0.2970 -0.0598
22293W        W38427  14.330   1.090   5.483 -0.0741 -0.0834 -0.3450
22294W        W38428   0.193  13.042  11.932  0.1549 -0.0274 -0.4499
22295W        W38429  17.067  14.448   3.740  0.1497  0.0995  0.0438
22296W        W38430   4.784  10.017  15.462  0.0168 -0.1257 -0.0795
22297W        W38431  16.806  13.509  14.948  0.0013 -0.3242 -0.0907
22298W        W38432  16.509  17.890   3.086  0.2747 -0.1244  0.1624
22299W        W38433   5.118  10.484   5.156 -0.1563  0.1103 -0.0817
22300W        W38434   9.430  15.304  16.424 -0.0647  0.2205 -0.1679
22301W        W38435  12.898   8.654  11.655 -0.3522 -0.1088  0.1450
22302W        W38436  16.667  15.030  12.025 -0.1900 -0.1310  0.3814
22303W        W38437  11.802  15.464   2.354  0.1822 -0.0953  0.2788
22304W        W38438   2.957   8.732   0.602 -0.2058 -0.2066 -0.3406
22305W        W38439   4.211  13.337  13.175  0.1923 -0.0106 -0.1660
22306W        W38440   1.173   4.759  12.405  0.0154  0.1363  0.1374
22307W        W38441   5.672   7.424   5.252 -0.0228  0.1813 -0.0100
22308W        W38442  17.156   1.098  11.755 -0.0181 -0.1959  0.0798
22309W        W38443   2.398  14.596   3.521 -0.0579 -0.0010 -0.1900
22310W        W38444  13.752   0.481   0.372  0.0550 -0.1453 -0.3753
22311W        W38445  10.678  13.416  16.295 -0.0317  0.0079  0.1780
22312W        W38446   1.112  14.789   2.431  0.1002  0.1574 -0.2228
22313W        W38447   5.876   0.243  13.831 -0.1320 -0.4353 -0.2039
22314W        W38448   9.148   5.673  12.473  0.1102 -0.1113  0.0702
22315W        W38449  16.803   3.726  11.497  0.2872  0.0863 -0.1919
22316W        W38450   1.562  11.887  12.696 -0.0706  0.1190 -0.0776
22317W        W38451   2.738   1.066   1.921 -0.0826  0.1493  0.0711
22318W        W38452  16.570   4.803   3.197  0.0301  0.4710 -0.2426
22319W        W38453   8.230   5.733  14.687 -0.0442  0.0268  0.0360
22320W        W38454   5.346  14.616  11.431  0.0638  0.0930  0.0808
22321W        W38455   1.133  11.507  12.434  0.3227 -0.3458  0.2624
22322W        W38456   5.530   9.673  12.974  0.0365 -0.1068 -0.0491
22323W        W38457  14.030  12.179   0.790 -0.2782 -0.0430 -0.2989
22324W        W38458  13.314   4.334   1.029  0.3175 -0.1090 -0.1962
22325W        W38459  14.796   7.155   3.843 -0.1213  0.0241 -0.0597
22326W        W38460   4.871   2.833  14.997 -0.2230 -0.2631 -0.0037
22327W        W38461  11.070   0.767   4.104  0.1687 -0.0822  0.1674
22328W        W38462   7.124   9.364  13.321  0.2080 -0.0341  0.1133
22329W        W38463   2.995  12.508  15.883  0.2676 -0.1388  0.0966
22330W        W38464  12.782   5.241  12.537  0.2157 -0.0894  0.0545
22331W        W38465   8.013  10.306  16.450  0.0741  0.4985  0.1952
22332W        W38466   4.965   1.094  11.512 -0.1000 -0.1740  0.0499
22333W        W38467   1.767  17.152  12.270 -0.2939  0.1169 -0.0566
22334W        W38468  11.701   5.714  14.969 -0.0233 -0.0008 -0.1553
22335W        W38469   4.082  15.162   2.254  0.3328  0.0664  0.4238
22336W        W38470   0.007   4.139   3.208  0.0058 -0.1815 -0.0433
22337W        W38471   7.223  17.548  11.352  0.0329 -0.0827  0.1682
22338W        W38472   8.359  15.347   4.543  0.1428 -0.3763 -0.0226
22339W        W38473   8.904   3.773  16.077 -0.0610  0.2863  0.1170
22340W        W38474  15.388  10.621  15.133 -0.0764  0.2642  0.0191
22341W        W38475   6.424  10.864  15.429  0.1704  0.0151  0.0303
22342W        W38476  16.890   3.084  12.776 -0.0428 -0.0860  0.1454
22343W        W38477   9.671   8.790   5.357 -0.0924  0.1513 -0.1567
22344W        W38478   7.108   4.212  14.290  0.2137 -0.0018  0.1522
22345W        W38479  13.597  16.327   5.088  0.0095  0.2667 -0.3861
22346W        W38480   4.015  17.115   3.945  0.1998 -0.1974 -0.0545
22347W        W38481   7.509  11.832   5.251  0.1649 -0.2678 -0.0721
22348W        W38482  15.688   8.483  12.415 -0.3934  0.0574 -0.1269
22349W        W38483  14.894  16.382   4.646 -0.2065  0.0593  0.0280
22350W        W38484  10.169   8.617  13.305  0.0815  0.0192 -0.3541
22351W        W38485  15.097  13.434  15.244  0.1447 -0.0870 -0.3132
22352W        W38486   4.170   4.576  12.966 -0.0337 -0.0191 -0.2804
22353W        W38487   2.878   3.504  16.310  0.2693  0.3660 -0.2706
22354W        W38488   3.526  17.746  15.192  0.0791  0.0817  0.3719
22355W        W38489  11.328  11.195  16.622  0.0696 -0.0317  0.3468
22356W        W38490  11.223  16.263  13.746  0.1227 -0.1137 -0.1594
22357W        W38491   3.146   7.405   3.174 -0.0726  0.1556  0.1220
22358W        W38492   9.240   5.073  13.280  0.1201  0.1958 -0.1783
22359W        W38493   8.669   2.615  14.693  0.2222 -0.0243 -0.0181
22360W        W38494  14.547   4.219  16.541  0.1467  0.1514 -0.1662
22361W        W38495  11.630  15.293  14.837  0.2812 -0.2921 -0.0764
22362W        W38496  12.008  13.323   3.817 -0.3593 -0.0398  0.0144
22363W        W38497   3.768  12.790  14.373  0.1853  0.0513  0.4626
22364W        W38498   1.441  17.518  12.283 -0.0197  0.2229 -0.0281
22365W        W38499   9.735   6.267   3.285 -0.1752 -0.2964 -0.1468
22366W        W38500  12.408  15.386   0.269  0.1387 -0.5926  0.2257
22367W        W38501   4.627   2.320   0.174 -0.1593 -0.1259 -0.2416
22368W        W38502   2.119   1.253   1.823  0.0084  0.1179  0.1693
22369W        W38503   9.400   9.919  14.247  0.1371 -0.2967  0.0827
22370W        W38504   9.945   2.079  13.200 -0.0343  0.0464  0.2803
22371W        W38505   6.675  11.692   2.372 -0.0142  0.0325 -0.2570
22372W        W38506  15.154  10.835  16.029  0.1333 -0.0183  0.2790
22373W        W38507   7.884  15.580   2.177  0.0688 -0.1729 -0.1158
22374W        W38508   6.632   6.786  12.854  0.2346 -0.2137  0.2561
22375W        W38509   6.071   9.892  16.687  0.2054 -0.0744 -0.0337
22376W        W38510   6.471  10.412  12.433  0.2712  0.1588 -0.3258
22377W        W38511   7.785   6.829   3.112 -0.3448  0.0877  0.0569
22378W        W38512  11.341  14.862  15.762  0.1882 -0.2853  0.1173
22379W        W38513   0.568   0.559  16.467  0.2179 -0.0834 -0.2595
22380W        W38514   6.773  14.979  15.148 -0.1538 -0.1933  0.1525
22381W        W38515   1.250   9.206  12.247 -0.3870 -0.1137  0.2651
22382W        W38516   5.203   1.151  15.049 -0.1642 -0.2581  0.0519
22383W        W38517   5.183  11.117  13.122 -0.1777  0.4661  0.0430
22384W        W38518   9.251  12.976   2.363 -0.0138 -0.0319  0.1066
22385W        W38519   8.299   0.386  14.701 -0.1610  0.2782 -0.0608
22386W        W38520  10.227   0.420   5.655 -0.0344  0.0949  0.1493
22387W        W38521   0.594   0.254  13.824  0.3079 -0.0530  0.1349
22388W        W38522  14.696  14.194  15.008  0.1317 -0.1376  0.0932
22389W        W38523  14.025   3.396   0.095  0.0670  0.0054  0.2089
22390W        W38524  17.164  12.775   1.330 -0.0658  0.0880 -0.1571
22391W        W38525   2.599   8.276  14.039 -0.2857  0.0351  0.0340
22392W        W38526  13.595   9.827   0.255 -0.1941  0.0919 -0.0526
22393W        W38527  17.563   2.768   4.808  0.0340  0.0055 -0.0931
22394W        W38528   1.431   8.703   2.716  0.1775  0.0732 -0.0792
22395W        W38529  13.411   6.704  13.014 -0.1456  0.1340 -0.2161
22396W        W38530  10.509  13.009   1.114  0.0438  0.0278  0.0293
22397W        W38531   8.461   7.821  15.979 -0.1875  0.3600 -0.0445
22398W        W38532   3.896   1.304  15.609 -0.0561 -0.2703 -0.0074
22399W        W38533  13.293  17.701   0.493 -0.0616 -0.0557 -0.0665
22400W        W38534  17.011  15.408   3.241  0.0030 -0.2118 -0.0502
22401W        W38535  17.818  16.186  14.902 -0.0514 -0.0266  0.1816
22402W        W38536   1.178  13.931   4.125  0.0262  0.2197 -0.2477
22403W        W38537   9.047   8.699   2.822 -0.1335  0.0173  0.0595
22404W        W38538  12.218  14.568  14.288  0.0192  0.3245 -0.1186
22405W        W38539  17.265   3.690   3.213  0.0662 -0.1072 -0.2263
22406W        W38540  16.352   3.719   1.528 -0.0667  0.0499 -0.0349
22407W        W38541   8.712   0.410   4.094  0.2680  0.0776 -0.2658
22408W        W38542  10.328  10.376   2.530  0.1696  0.2019 -0.1953
22409W        W38543   8.568   4.881   2.850 -0.2535  0.3368 -0.2949
22410W        W38544  10.263  15.629  15.446  0.0983  0.2152  0.0942
22411W        W38545   3.259  17.051  15.589  0.1797 -0.0701  0.1692
22412W        W38546   9.462   4.807  12.925  0.0197  0.2116  0.0806
22413W        W38547   5.422  14.361  13.920 -0.0278 -0.0140  0.1143
22414W        W38548   0.285   3.835   4.143 -0.1753 -0.1732  0.2535
22415W        W38549   2.224  12.449  16.065  0.5179 -0.1180 -0.0378
22416W        W38550   7.051   8.591   4.267 -0.0134 -0.1041 -0.0169
22417W        W38551   3.495  15.302   0.200 -0.0271 -0.0342  0.0268
22418W        W38552  10.141   8.667   5.720 -0.1819  0.1208  0.0206
22419W        W38553   5.575   1.801  11.966 -0.0058  0.1948  0.0721
22420W        W38554  13.863   1.721  14.470 -0.3104  0.2249  0.3151
22421W        W38555  15.483  16.264   1.252  0.1970  0.3055  0.1147
22422W        W38556   0.783   4.629  15.309  0.0889 -0.1440  0.0097
22423W        W38557   2.670  13.127   1.100 -0.2405  0.1333 -0.1634
22424W        W38558   6.859  14.334   4.661  0.2396  0.0456 -0.1575
22425W        W38559   4.781  11.976  14.718 -0.0924  0.1263 -0.1489
22426W        W38560  12.930   1.084   1.067  0.0760 -0.1449  0.0720
22427W        W38561   7.954  11.123  11.720  0.3244 -0.0207 -0.0025
22428W        W38562   6.288  13.630  12.440  0.1596 -0.2573  0.1416
22429W        W38563  17.910  12.302  15.744  0.0654  0.0153  0.2977
22430W        W38564  13.687   8.900  12.323 -0.2163  0.1069  0.0396
22431W        W38565   6.010   7.721   4.129 -0.2826  0.1498  0.1981
22432W        W38566   4.881   1.494  12.547  0.1666 -0.1877  0.0737
22433W        W38567  15.245  13.680   1.530  0.0667  0.1090  0.1057
22434W        W38568  15.345  13.846   6.038 -0.3121  0.0835  0.0685
22435W        W38569  12.234   4.843   3.325 -0.1812  0.2373  0.0896
22436W        W38570  15.046   3.568  12.235 -0.2444 -0.1853 -0.1362
22437W        W38571  10.507   4.033   5.740  0.2650 -0.2544  0.1447
22438W        W38572   5.363  16.257  13.990  0.1393  0.0302 -0.0938
22439W        W38573  13.837   7.948   3.339 -0.2021  0.1575  0.3393
22440W        W38574  10.356   9.532  14.676  0.0066 -0.1191 -0.4661
22441W        W38575   8.346   6.910   5.330  0.1055 -0.1488  0.0220
22442W        W38576  10.490   1.543   6.085 -0.1223 -0.0404 -0.0151
22443W        W38577   1.404   4.911  13.586 -0.0674 -0.0413 -0.2130
22444W        W38578   3.579   5.362  13.964  0.0178  0.0592 -0.0257
22445W        W38579  15.999   9.845  14.716 -0.0853  0.1054 -0.3724
22446W        W38580  12.065   1.706   5.193  0.2272  0.0936  0.2175
22447W        W38581   3.684   1.092   4.551  0.3006  0.1267  0.1584
22448W        W38582  10.389   2.697  11.865  0.1015 -0.1295  0.2578
22449W        W38583  10.512  16.835  13.278 -0.0367 -0.0207 -0.2621
22450W        W38584  12.952   3.284   2.747 -0.1627  0.0858  0.2380
22451W        W38585  10.795   1.738   5.748 -0.2765 -0.0829  0.4953
22452W        W38586   9.663  10.297  13.822  0.1546  0.2062 -0.0100
22453W        W38587   9.955  16.298   0.363 -0.3448 -0.0880 -0.0296
22454W        W38588  11.275   8.706  15.488  0.0726 -0.2742 -0.1000
22455W        W38589  16.173  10.173   5.024  0.1043 -0.2642 -0.0306
22456W        W38590  15.504  14.961   3.836 -0.3050  0.0102 -0.0633
22457W        W38591   0.651  14.912   5.504  0.0388 -0.6036  0.1698
22458W        W38592   5.327   3.905   2.915  0.2215 -0.4675  0.1237
22459W        W38593   9.295   4.494  12.030  0.1924  0.0438 -0.1086
22460W        W38594  16.541   4.062   1.859  0.2187  0.0464 -0.3191
22461W        W38595   0.797  14.190  14.407  0.1832 -0.1797  0.0233
22462W        W38596   2.835  14.621   1.766 -0.1713 -0.0763 -0.0056
22463W        W38597   6.141   1.610   3.834  0.1950  0.0489 -0.2340
22464W        W38598  15.744  15.515  14.545  0.0172 -0.0420 -0.1799
22465W        W38599   7.863   8.644  16.209  0.0737 -0.1281 -0.1067
22466W        W38600  11.896   5.059   5.400  0.2723  0.0748 -0.2527
22467W        W38601  17.199  14.755   5.845  0.0702  0.1788 -0.0442
22468W        W38602   3.162   3.212  14.558 -0.2219  0.0317 -0.0853
22469W        W38603  17.361  12.874   1.803 -0.1448  0.3258  0.1887
22470W        W38604   0.341   8.511  13.387 -0.3394 -0.0768  0.2705
22471W        W38605   5.696   2.011   1.984 -0.1213  0.0529 -0.0081
22472W        W38606   5.713  15.084  14.274 -0.4287 -0.0889 -0.1259
22473W        W38607  17.113  17.285   1.478  0.0642  0.3248  0.0299
22474W        W38608  12.979   8.265   1.799 -0.0422 -0.3263  0.1527
22475W        W38609   4.633   5.452   3.564  0.1554 -0.0852  0.0936
22476W        W38610   5.655   2.923  12.867 -0.1408 -0.0451 -0.0588
22477W        W38611  11.251   2.483  14.508  0.0203 -0.0741  0.1807
22478W        W38612   9.671   8.468  16.005 -0.2074 -0.0362 -0.4926
22479W        W38613   4.109   6.512  15.276  0.1973  0.2747  0.0293
22480W        W38614   7.210   5.365   4.763  0.0240 -0.0433  0.0249
22481W        W38615  15.922   5.150  13.442 -0.0363  0.2892 -0.0277
22482W        W38616   3.634   3.270  14.339 -0.1228 -0.0706 -0.1146
22483W        W38617   7.397  12.648   1.573  0.3444 -0.1049 -0.0122
22484W        W38618   2.671   3.436   0.088 -0.3622 -0.0773  0.1952
22485W        W38619  12.643  13.192   5.288  0.1603  0.2484  0.1325
22486W        W38620   7.970  15.298  15.771  0.1014 -0.0805  0.0206
22487W        W38621   6.118  11.334   4.165  0.0908  0.1240 -0.0121
22488W        W38622   3.313   3.536   4.360  0.3447  0.1198  0.1544
22489W        W38623   4.284  15.395   5.055  0.0227  0.3413  0.1987
22490W        W38624   9.325   9.629   1.959 -0.0674 -0.0189 -0.2201
22491W        W38625  13.148  17.354   2.160 -0.0431  0.0178 -0.1146
22492W        W38626  10.311   6.525  13.244  0.2089 -0.0044  0.1925
22493W        W38627  11.892   8.615   4.777  0.0099 -0.0934 -0.0077
22494W        W38628  10.221   3.553  15.404 -0.2220  0.2457  0.1510
22495W        W38629   4.578   3.751  15.813 -0.2075 -0.0081 -0.2309
22496W        W38630   9.400  11.046   5.593  0.2283 -0.0735  0.0954
22497W        W38631  12.095  15.857   4.525 -0.1344 -0.2803  0.0520
22498W        W38632   1.789   3.389   5.027  0.2273  0.0540 -0.0128
22499W        W38633  17.289   9.493  11.346 -0.1723  0.1363  0.0853
22500W        W38634   7.608  15.454  12.142 -0.0471  0.0400 -0.1699
22501W        W38635   3.168  17.517   4.008 -0.1665 -0.1444 -0.0600
22502W        W38636  14.106  11.054   5.655  0.1101 -0.0272  0.1716
22503W        W38637   6.352   8.698  12.294  0.2667  0.2626 -0.2556
22504W        W38638  11.433   2.007   1.967  0.1181 -0.0565  0.2033
22505W        W38639   2.720  11.157  16.618 -0.0468  0.0354  0.2222
22506W        W38640   8.547  13.702  14.789  0.1641  0.2400  0.2643
22507W        W38641   0.676  15.278   0.853  0.0484  0.0080 -0.1653
22508W        W38642  11.670  14.501   4.902 -0.0228 -0.0583 -0.0953
22509W        W38643   4.597   4.706   3.801  0.0803 -0.1507  0.2175
22510W        W38644   6.789   1.701   2.518 -0.4187 -0.2167 -0.0197
22511W        W38645  12.089   4.686   1.535  0.1850  0.6218 -0.3263
22512W        W38646  16.051  11.665  13.679 -0.1165 -0.2033  0.0850
22513W        W38647   0.251  13.017  15.076 -0.1764  0.0366 -0.4035
22514W        W38648   3.916  15.154   0.506  0.0767  0.0674 -0.0379
22515W        W38649   0.545  15.741   3.866 -0.6354  0.2608 -0.0585
22516W        W38650  13.222  14.942   5.050  0.0964  0.0108  0.0681
22517W        W38651  17.813   6.925   5.098  0.1103  0.0009  0.1041
22518W        W38652  11.966   8.338  12.522 -0.3261  0.3076  0.0487
22519W        W38653   1.162  16.442   5.347 -0.0789  0.1676 -0.0073
22520W        W38654   7.965  13.158  10.556  0.0208  0.1877 -0.0536
22521W        W38655  13.700  15.918  15.347 -0.2746 -0.0979 -0.2421
22522W        W38656   4.936  11.526   3.074 -0.2121 -0.0612  0.1099
22523W        W38657  16.598  12.808   2.468  0.0906  0.0543  0.0435
22524W        W38658   6.304   4.264   2.656 -0.1406 -0.1354 -0.1588
22525W        W38659  14.497   0.669  14.680  0.0761  0.1972  0.1514
22526W        W38660   9.722  12.513  14.448  0.0611  0.0747 -0.0630
22527W        W38661   2.066   8.776  14.535  0.0309  0.0655  0.2116
22528W        W38662  13.809   7.515  14.835  0.0112 -0.3225  0.2423
22529W        W38663  17.343   3.704   3.762  0.2392 -0.2736 -0.2044
22530W        W38664   8.419  10.093  15.640  0.0545 -0.3902  0.3672
22531W        W38665   4.833  14.372   0.493 -0.1802  0.1530 -0.1719
22532W        W38666   4.672  15.602   3.994  0.0170  0.2955  0.2118
22533W        W38667  15.147  11.711   1.308 -0.2155  0.0824  0.3032
22534W        W38668  15.471  11.545  13.498 -0.1016 -0.2266 -0.4296
22535W        W38669   7.096  12.332  14.476  0.0476  0.1735  0.2750
22536W        W38670   2.651   4.994  14.228  0.1309 -0.0773  0.1193
22537W        W38671   8.191   6.917  13.928  0.2739  0.0576 -0.1108
22538W        W38672  16.769  16.602   2.830  0.0800 -0.1324  0.0519
22539W        W38673   8.042  16.233   4.276 -0.5145 -0.2139  0.1129
22540W        W38674   9.142   1.102  12.491  0.0071 -0.1383 -0.0985
22541W        W38675   4.176   3.591  11.498  0.0108 -0.0350 -0.0409
22542W        W38676  13.412   4.876  13.941  0.0493 -0.1151 -0.0622
22543W        W38677  15.545   8.767   0.583  0.0445  0.2407 -0.4567
22544W        W38678   5.826  11.784  14.191  0.0977  0.1221  0.2606
22545W        W38679   1.767   1.040   3.877 -0.0783  0.0798  0.0568
22546W        W38680  13.898  16.842   3.277 -0.1663  0.0408  0.0899
22547W        W38681   6.664  12.890  15.173  0.1946  0.3637  0.2882
22548W        W38682   3.550  13.572  13.858  0.5315 -0.2689 -0.1896
22549W        W38683  11.371  12.705   3.683  0.2512 -0.0536  0.1144
22550W        W38684   1.521   0.233   3.509  0.1660  0.0518 -0.1680
22551W        W38685  17.870   5.787   0.941 -0.2381 -0.0412  0.2354
22552W        W38686   0.640   6.564   4.650  0.2591  0.3172  0.3708
22553W        W38687  11.423   7.787   0.714  0.1947  0.2745  0.0910
22554W        W38688  13.220  16.829  14.129  0.0249 -0.0366 -0.3252
22555W        W38689  10.415  11.199  16.028  0.0755  0.3935  0.1665
22556W        W38690  12.305   4.541   4.395  0.1993  0.1039 -0.3205
22557W        W38691  15.898  14.239  15.860 -0.2024  0.1149  0.0544
22558W        W38692  10.705  15.939   4.308  0.3198 -0.0552  0.0194
22559W        W38693   4.355   2.222  16.507 -0.0808 -0.0429 -0.1648
22560W        W38694  15.549  12.994   3.422 -0.0024  0.0290  0.0176
22561W        W38695  17.507   0.118   4.202 -0.1909 -0.0793 -0.0395
22562W        W38696  10.702  12.332   5.321  0.1490  0.1877 -0.1744
22563W        W38697   9.532   2.751   3.025 -0.0642 -0.0003 -0.1399
22564W        W38698  10.554   5.065  14.593 -0.0595  0.2453  0.1679
22565W        W38699   0.711  14.363   3.091 -0.1938 -0.4581 -0.0864
22566W        W38700  14.904  15.674  14.870  0.1937 -0.1527  0.0521
22567W        W38701   8.936  17.363  12.191 -0.1389  0.0477  0.1181
22568W        W38702   2.672  12.285   1.784 -0.4074  0.1312  0.1213
22569W        W38703  12.791   7.385  12.578 -0.1788  0.1174  0.1845
22570W        W38704   7.852  17.469   0.673 -0.0416  0.2770 -0.2237
22571W        W38705   5.138   5.758  16.123 -0.3455 -0.0869  0.1632
22572W        W38706   1.072   6.098  15.237 -0.0302  0.2717  0.0145
22573W        W38707  12.867  16.430  15.377 -0.0053  0.1088  0.0674
22574W        W38708   2.363   6.761   5.784 -0.3427 -0.2208 -0.1150
22575W        W38709   4.038  16.235  12.208  0.0838 -0.0454  0.0365
22576W        W38710   8.798   4.421   1.644  0.4172  0.0566 -0.0547
22577W        W38711   6.888   0.927   3.186  0.2410  0.0059 -0.1323
22578W        W38712   4.883   9.080  14.638  0.0863  0.1186  0.2023
22579W        W38713  16.252  17.805   2.129 -0.4367 -0.1516  0.1089
22580W        W38714   1.772  13.150  15.243  0.1391 -0.4057 -0.1935
22581W        W38715   7.558   0.161  11.862  0.1735  0.1082 -0.1749
22582W        W38716   7.538  17.504  15.722 -0.0719 -0.0668  0.0559
22583W        W38717   1.500  11.503   0.052 -0.0850 -0.0110  0.1202
22584W        W38718  11.234  14.873   0.039  0.1533 -0.3142 -0.1977
22585W        W38719  16.655  10.011  11.617  0.3348  0.1171 -0.2187
22586W        W38720   0.251  13.288  13.655  0.1935  0.0365 -0.0500
22587W        W38721   9.732   0.829   1.858  0.0743 -0.0768  0.0451
22588W        W38722   3.050   7.152  12.277 -0.1629 -0.2002 -0.1240
22589W        W38723  11.534  17.739  15.528  0.1005  0.3051  0.2336
22590W        W38724   3.274  16.518  15.700 -0.0857  0.0049  0.0596
22591W        W38725   3.975  16.048  16.337 -0.1492 -0.0394  0.0594
22592W        W38726   5.567  16.058   5.182  0.0037 -0.0061  0.2606
22593W        W38727  12.915   2.095  12.424 -0.0768  0.0430 -0.1672
22594W        W38728   7.864   9.479  13.887  0.2683  0.4168  0.0572
22595W        W38729  11.053  11.014   4.715  0.2300 -0.3944 -0.1610
22596W        W38730  11.748  13.491   1.737 -0.0985 -0.1797 -0.2997
22597W        W38731   5.168   2.754  12.246 -0.2468  0.0415 -0.1819
22598W        W38732   9.742  15.744  16.465 -0.0021 -0.1385 -0.1585
22599W        W38733  13.145   0.857   3.625 -0.1002  0.1069 -0.0546
22600W        W38734   6.579  12.656  15.602  0.1115 -0.1764  0.1494
22601W        W38735  15.330   4.919   5.027 -0.1227 -0.0649 -0.1511
22602W        W38736  17.568   4.336   5.545  0.2196  0.0865  0.1084
22603W        W38737  13.625   7.819   1.403 -0.1563 -0.1386  0.1282
22604W        W38738   6.434   5.108   2.965  0.1610 -0.1166  0.0735
22605W        W38739   7.471  17.638   2.747  0.0210  0.0839 -0.0830
22606W        W38740   7.879  12.794  11.374  0.3357  0.1393  0.0551
22607W        W38741   2.345   5.523   0.210 -0.1057  0.1995  0.0330
22608W        W38742   0.801   8.132   0.697 -0.2194  0.1137 -0.0380
22609W        W38743  16.180   4.696  16.576  0.0878  0.1531 -0.1859
22610W        W38744   9.478  10.820  13.015 -0.0554  0.2103  0.0884
22611W        W38745   2.551  17.866   2.730  0.1707  0.0130  0.0857
22612W        W38746   9.264   4.375   4.969  0.0368  0.0631  0.1407
22613W        W38747   6.445   7.463  11.800  0.1491 -0.2816 -0.4664
22614W        W38748  13.339   2.964   4.131  0.1287 -0.0405 -0.2606
22615W        W38749  11.779   7.506   3.531  0.1942  0.0950 -0.0695
22616W        W38750  15.874  13.431   3.619  0.2587 -0.0662  0.1697
22617W        W38751   6.427   9.148   4.428  0.0285 -0.0731 -0.2614
22618W        W38752   8.853   2.553  16.357  0.2563  0.0591  0.1292
22619W        W38753   2.230   4.221   3.524  0.3760 -0.0017  0.0218
22620W        W38754   0.342   4.233   2.377 -0.1873  0.2207 -0.0446
22621W        W38755   7.749  15.617  13.872 -0.0496  0.2913 -0.1496
22622W        W38756   9.129   0.725   5.153 -0.0304  0.2661  0.0908
22623W        W38757   9.279  13.527  14.103  0.3000  0.1070  0.3468
22624W        W38758  11.067   9.534  14.046  0.1126  0.0518  0.3713
22625W        W38759   3.773  10.979  12.606 -0.2394 -0.1259 -0.1798
22626W        W38760  12.689  11.463   3.595  0.0381  0.0564  0.2229
22627W        W38761   3.920   5.276  11.034  0.4194 -0.3366 -0.0978
22628W        W38762   3.193   6.196  13.635 -0.2250 -0.0740 -0.1593
22629W        W38763  14.156  16.018  11.747  0.0968  0.1369  0.1469
22630W        W38764   1.299  14.324   5.077  0.0993  0.1171 -0.0033
22631W        W38765   3.259   1.936  11.965 -0.0815  0.1556  0.2195
22632W        W38766   1.889  14.679  16.255  0.0810  0.1747  0.0089
22633W        W38767   4.042  16.270   4.069 -0.0761 -0.2836 -0.1455
22634W        W38768   4.090   0.200   1.390  0.1570  0.1750 -0.2861
22635W        W38769   4.197   1.383  15.980  0.1247 -0.0926 -0.1265
22636W        W38770  11.958  12.133   2.526  0.0463  0.2385 -0.1831
22637W        W38771  16.708  15.945   5.035  0.1723  0.1000  0.2670
22638W        W38772   1.844   2.655   0.912 -0.2284 -0.0221 -0.1361
22639W        W38773  15.547   2.170   5.049 -0.0734 -0.0699 -0.1968
22640W        W38774  14.255  10.661  15.045 -0.2912  0.4185 -0.1682
22641W        W38775   7.316   5.217  14.033  0.1320 -0.1391 -0.2093
22642W        W38776  10.994  11.382   5.513  0.2485  0.1455 -0.1818
22643W        W38777   0.462  13.200  12.340  0.0851  0.0804 -0.2154
22644W        W38778   5.741  17.008   4.614 -0.0295  0.0847  0.1984
22645W        W38779   8.067   9.888   5.252  0.2071  0.0202 -0.2386
22646W        W38780   2.363   7.741  12.422 -0.0818 -0.4547 -0.2393
22647W        W38781   9.228  11.442  16.334 -0.1352 -0.2109 -0.1713
22648W        W38782  16.988  15.377  15.230  0.0276  0.0298 -0.1647
22649W        W38783  14.526   5.016   0.485 -0.1309 -0.1877  0.0316
22650W        W38784  15.479  17.381  15.192 -0.0206  0.0368  0.1401
22651W        W38785   3.474  12.123  12.043  0.1907 -0.2158  0.3915
22652W        W38786   2.941   1.190  13.149  0.0986  0.1864  0.0488
22653W        W38787   0.230   1.390   0.998  0.2497 -0.2117  0.0829
22654W        W38788  11.437  16.254   2.559 -0.1928 -0.1241  0.0182
22655W        W38789  10.222   4.691  16.233 -0.0363  0.1717 -0.3406
22656W        W38790   4.593  15.432   1.042 -0.1420 -0.1941 -0.1187
22657W        W38791  12.617  16.870   1.728  0.0069  0.0873 -0.3568
22658W        W38792   3.549   8.103  12.087  0.0371 -0.0095 -0.1431
22659W        W38793  15.099  10.737   2.161 -0.0473  0.2825  0.0507
22660W        W38794  14.037  12.591  14.594  0.1293 -0.1098  0.2438
22661W        W38795  14.957   5.521  15.492  0.2300 -0.0863  0.2961
22662W        W38796  15.358   5.600  15.812 -0.1309 -0.2455  0.1170
22663W        W38797   8.328   2.721  15.702  0.0902 -0.0492  0.1542
22664W        W38798   9.131   4.378   1.210 -0.2343 -0.0343  0.0766
22665W        W38799   1.075  11.718  12.913 -0.0472  0.1752  0.1784
22666W        W38800   4.277  10.184  12.838 -0.0498 -0.0690  0.0047
22667W        W38801  12.463   4.269  12.445 -0.0296 -0.2773 -0.0475
22668W        W38802  12.834  10.140   0.643 -0.3625  0.1560  0.1258
22669W        W38803   7.579  16.880  11.523 -0.0614  0.2811  0.0990
22670W        W38804  11.086   1.869  16.197 -0.0991 -0.3908 -0.0598
22671W        W38805  11.654   6.209   3.075  0.2257  0.0229 -0.1028
22672W        W38806   8.550   1.466   2.472  0.2541  0.2854 -0.1770
22673W        W38807  15.530  14.425  16.227 -0.0752  0.2006 -0.1125
22674W        W38808  16.177  17.460  16.169 -0.0614 -0.0204  0.1527
22675W        W38809   4.953   5.967  11.988 -0.1220  0.3495  0.2659
22676W        W38810   6.130   0.946  15.804 -0.4860  0.0524  0.2683
22677W        W38811   2.835  17.587  13.935  0.1687  0.1660 -0.0033
22678W        W38812   4.049   6.807   0.244  0.0164  0.1039 -0.1690
22679W        W38813  13.290   2.339  12.833 -0.1717 -0.0486  0.3123
22680W        W38814   4.792  17.108  16.404 -0.0990 -0.1056  0.1656
22681W        W38815   2.655   1.033  11.789 -0.0484 -0.0883 -0.1503
22682W        W38816   9.426  10.642   3.806 -0.1485  0.1146  0.0148
22683W        W38817   4.978  14.824   3.418  0.0112 -0.1623  0.0642
22684W        W38818  17.010  14.132   5.301  0.1485  0.0734  0.1438
22685W        W38819   0.270   5.065   0.014 -0.1385 -0.1645 -0.1302
22686W        W38820  15.993  13.422   2.136  0.0246  0.0302 -0.1700
22687W        W38821  11.293   0.401   0.580  0.1172 -0.2969 -0.4052
22688W        W38822   3.411   1.595   5.624  0.0273  0.0386 -0.1028
22689W        W38823   6.853   7.780   4.633 -0.1517  0.1389  0.1165
22690W        W38824   5.969   0.675   4.341 -0.2516 -0.0113  0.1656
22691W        W38825  17.684   8.803  16.506  0.0526  0.0019  0.0003
22692W        W38826  10.368  11.110   1.146 -0.0369 -0.3285  0.2232
22693W        W38827  13.725  14.898   4.778  0.0874  0.0929  0.2966
22694W        W38828  16.240   1.420  16.325  0.4309  0.0634  0.1604
22695W        W38829  17.431   6.059   0.842  0.0813  0.1320  0.1535
22696W        W38830   8.882  16.927  11.918 -0.2273 -0.0583 -0.0181
22697W        W38831  10.204   2.373  12.865  0.2145 -0.0405  0.2637
22698W        W38832   2.773  14.791   2.793  0.3422  0.3805  0.0705
22699W        W38833  14.157   1.379  16.226  0.0743 -0.1388  0.1393
22700W        W38834  10.512  13.889   2.883  0.1869 -0.0530 -0.1791
22701W        W38835   7.657   8.095  12.451 -0.3222 -0.3957  0.0144
22702W        W38836   8.429  17.279   1.357 -0.0488  0.0233  0.0910
22703W        W38837   6.833   8.668   5.221 -0.0180  0.4598 -0.0776
22704W        W38838  12.881  13.170   5.792 -0.1022  0.3013  0.0986
22705W        W38839   3.548   5.219   2.747  0.1345 -0.1802 -0.2704
22706W        W38840   3.369   6.262  13.122  0.1951  0.1323  0.0513
22707W        W38841  10.096   2.131   3.580  0.0931  0.1191 -0.0689
22708W        W38842   1.198   0.555  16.698 -0.0601  0.0696  0.1925
22709W        W38843  13.484  10.728   5.365  0.1111 -0.0755  0.1526
22710W        W38844  11.149  10.433  12.965  0.5741  0.1602 -0.2747
22711W        W38845   0.418   6.677   1.683 -0.0857  0.0527 -0.0914
22712W        W38846  14.986   8.185   1.203 -0.1288 -0.2867 -0.2165
22713W        W38847  13.503   8.428   0.682  0.0723  0.2695 -0.0466
22714W        W38848  13.043  10.490   2.288  0.4305  0.0619  0.0995
22715W        W38849   8.754  17.735  14.230 -0.0653 -0.1259 -0.0363
22716W        W38850   7.060  10.166   3.114  0.1339 -0.0397  0.2453
22717W        W38851   2.393   8.275  12.264  0.0182 -0.1503 -0.1208
22718W        W38852   5.096   3.599   5.110  0.2555  0.1047 -0.1031
22719W        W38853  10.503  14.500  14.033  0.2448 -0.1597 -0.2378
22720W        W38854  15.571   3.382   2.583 -0.0319 -0.0293 -0.1322
22721W        W38855  17.378  15.167   1.795  0.1459 -0.1827  0.0791
22722W        W38856  11.114   3.908   1.039  0.2892 -0.1804 -0.0918
22723W        W38857  11.507   7.580  12.753 -0.0645 -0.1145  0.3139
22724W        W38858  14.113  17.590  13.147 -0.2423 -0.1736 -0.4287
22725W        W38859   8.035  12.028  15.912 -0.0095  0.0114  0.0326
22726W        W38860  12.889   8.777  16.624  0.3112 -0.1559  0.0760
22727W        W38861   8.285   1.320  16.238  0.0110  0.1286  0.0057
22728W        W38862  10.599  14.308  16.138 -0.1381 -0.2322  0.1559
22729W        W38863  17.868  13.093   0.209 -0.2086 -0.1642 -0.0791
22730W        W38864   9.100  16.627   3.695 -0.3191 -0.0098 -0.1508
22731W        W38865   5.033   8.008  15.575 -0.0193 -0.0011 -0.0872
22732W        W38866  16.760   9.734   3.073 -0.2068  0.4053 -0.1568
22733W        W38867  11.812  17.059   2.266 -0.0590  0.0053  0.1954
22734W        W38868   5.016  17.035  13.121  0.1167  0.4565  0.1664
22735W        W38869   1.316   7.995   0.621  0.0796 -0.0273 -0.2738
22736W        W38870  13.373  11.032  13.295 -0.1824  0.0549 -0.0240
22737W        W38871   5.431   6.775   1.039  0.1195  0.0421  0.0092
22738W        W38872  10.270  11.649   1.079 -0.1536 -0.2627  0.0946
22739W        W38873  13.597  12.235   0.966  0.0902  0.0814  0.1321
22740W        W38874   5.237  10.974   1.061 -0.0725 -0.0896  0.1401
22741W        W38875   0.866   2.446  16.015 -0.1686  0.3358 -0.2520
22742W        W38876   1.371  10.342   4.187 -0.0634 -0.1538  0.2752
22743W        W38877  17.941  16.658   3.934 -0.1674 -0.0609  0.1356
22744W        W38878  14.332   0.716   0.333 -0.2522 -0.0938  0.1188
22745W        W38879  17.343  15.234   4.862 -0.0389 -0.1726 -0.4130
22746W        W38880   3.959   0.746   4.822 -0.0597  0.1899 -0.0389
22747W        W38881   6.844  13.182   3.581  0.1395 -0.1951 -0.0543
22748W        W38882   8.546  11.220   4.016 -0.1573  0.2518  0.0034
22749W        W38883  14.511   6.508   4.932  0.2122 -0.3236 -0.1148
22750W        W38884   1.858   7.781   4.422  0.0007  0.3325  0.0447
22751W        W38885  10.640  10.420  16.544  0.0437  0.0758 -0.2084
22752W        W38886  15.460  13.736  14.240  0.0158  0.3817  0.0247
22753W        W38887   3.325  10.739   1.845 -0.0169 -0.1905  0.1773
22754W        W38888   8.147   3.079   1.426 -0.0143  0.1437 -0.1715
22755W        W38889   9.450   1.962  12.975 -0.1631  0.1120  0.1225
22756W        W38890  10.933  17.574  15.100 -0.3606  0.0383  0.0265
22757W        W38891   0.344   3.447   4.762 -0.5037 -0.2931  0.1268
22758W        W38892  13.845  15.169  16.190 -0.3979  0.0856  0.2083
22759W        W38893   5.825   4.710  12.371 -0.2142  0.0652 -0.0441
22760W        W38894   9.463   3.001  14.239 -0.1448 -0.5373 -0.0092
22761W        W38895   8.926   7.808   1.147 -0.0916  0.0406  0.2772
22762W        W38896  10.050   4.200  14.739  0.0429 -0.1286 -0.0460
22763W        W38897  17.817   7.706  13.721  0.2551  0.2864  0.0977
22764W        W38898  14.819   7.118   0.409  0.2375 -0.1100 -0.0184
22765W        W38899   5.841  17.944  12.472 -0.0681 -0.2105 -0.1351
22766W        W38900   3.729   4.735  11.877 -0.0293 -0.1791  0.1110
22767W        W38901   2.995  12.448  14.673  0.1309  0.3076  0.0993
22768W        W38902  14.780  16.899  14.623  0.0235  0.2170 -0.0898
22769W        W38903   0.261   2.457   1.613  0.0212  0.4368 -0.2466
22770W        W38904   5.634  10.419   1.726 -0.0233  0.0011  0.4596
22771W        W38905   7.618  15.236  13.017  0.0300  0.0115 -0.0297
22772W        W38906   5.797   7.318  11.657 -0.0986  0.1976 -0.1715
22773W        W38907  13.279   1.088  13.445 -0.1004 -0.0368 -0.0167
22774W        W38908   2.230  15.985  14.430  0.1452 -0.0167  0.1373
22775W        W38909   8.135   3.886   0.131  0.0476 -0.1941  0.0607
22776W        W38910   3.199   3.583  14.972 -0.3360  0.0375  0.1151
22777W        W38911   5.753   1.924  13.089  0.1018 -0.1471 -0.1530
22778W        W38912  15.791   4.047   4.355 -0.0770  0.0390 -0.3416
22779W        W38913  10.187  10.235  13.957  0.0758 -0.1236  0.0293
22780W        W38914  16.191  17.771  14.128  0.2558  0.2811 -0.0600
22781W        W38915   7.350  16.574  14.458  0.1394  0.0763  0.0907
22782W        W38916   7.592   6.363  16.253 -0.0754 -0.0223 -0.0307
22783W        W38917  12.107  15.321  13.810  0.1768 -0.1234 -0.0714
22784W        W38918  15.975   3.859  13.919  0.4118  0.0476 -0.0579
22785W        W38919   1.898   7.672  13.593 -0.0569 -0.1906  0.3130
22786W        W38920  13.945   0.868   4.757  0.0622 -0.0455  0.2342
22787W        W38921   1.777  16.012   0.014 -0.3061  0.0607 -0.1432
22788W        W38922  14.974   1.645   0.913 -0.1095  0.0770 -0.0979
22789W        W38923   4.805  15.323   3.200  0.0663  0.0898 -0.1330
22790W        W38924   2.465  10.750  12.706 -0.2597 -0.1250 -0.0002
22791W        W38925  14.517   7.816  12.462 -0.0090 -0.3065 -0.0776
22792W        W38926  15.640  16.678   4.429  0.1835 -0.0532 -0.3186
22793W        W38927   1.781   3.409  15.557 -0.1271  0.3044  0.2935
22794W        W38928   4.401  11.788   0.982  0.0547  0.1168  0.1916
22795W        W38929   7.193   6.224  15.344 -0.1154 -0.1673  0.1312
22796W        W38930  17.820  15.258   5.008 -0.2138  0.0464 -0.0180
22797W        W38931   9.437  12.517  10.059 -0.1052  0.0189  0.0625
22798W        W38932  12.007  17.041   5.017  0.2967  0.1131  0.1692
22799W        W38933   1.523   9.270   3.470  0.0693  0.6990  0.2217
22800W        W38934   4.160  10.148  16.602  0.1497  0.0581 -0.1297
22801W        W38935  15.587   6.481  14.145 -0.2716  0.0367 -0.0567
22802W        W38936  15.936  14.108   2.391 -0.2026 -0.2268 -0.0248
22803W        W38937   1.927   8.699  13.612 -0.0988  0.2362 -0.1972
22804W        W38938  14.164  13.050  14.424  0.2748  0.0987  0.1876
22805W        W38939   1.109  14.038  12.545 -0.0701  0.0791 -0.0083
22806W        W38940  14.159  10.085   2.411 -0.1286 -0.1031 -0.0306
22807W        W38941  14.514   9.408   0.252 -0.1677  0.1618 -0.1819
22808W        W38942   0.416   8.781   0.763 -0.0597 -0.1751 -0.4678
22809W        W38943   6.108   9.491   4.333  0.0958 -0.2230 -0.0175
22810W        W38944  16.445   4.912   2.074 -0.2397  0.3451  0.0197
22811W        W38945  14.134   4.158  14.051 -0.0428 -0.0342 -0.3218
22812W        W38946  11.226   9.535   3.636 -0.0402 -0.2998 -0.0751
22813W        W38947  16.584   0.870   1.585 -0.1249  0.0265 -0.2161
22814W        W38948   5.214  16.372  15.204  0.0712 -0.0501 -0.0853
22815W        W38949  12.034  12.323   4.763  0.1335  0.0956 -0.1501
22816W        W38950  16.311   8.935   4.807  0.1072  0.1398 -0.0449
22817W        W38951   0.112  11.501  14.485  0.3697 -0.1139  0.5223
22818W        W38952   3.071  14.667   2.188  0.1508 -0.1782 -0.0407
22819W        W38953  10.844  16.459  13.386 -0.0226 -0.1938  0.0123
22820W        W38954  11.494  11.821  15.487  0.1597  0.1086 -0.1203
22821W        W38955   5.730   4.308  12.109 -0.0167  0.0181 -0.0201
22822W        W38956   1.309  10.288  16.590  0.0973 -0.0024 -0.3690
22823W        W38957  11.200  17.446  16.300 -0.0685 -0.2069  0.1802
22824W        W38958   4.078   5.577   3.827 -0.1548 -0.3830  0.2840
22825W        W38959   1.470   3.312   1.726  0.0297 -0.2669 -0.0362
22826W        W38960  16.206   8.557  12.604  0.0012 -0.3410 -0.0910
22827W        W38961  10.801  11.285  16.376  0.1438  0.3713  0.0627
22828W        W38962   2.287   5.514  10.968  0.0456 -0.1318 -0.0099
22829W        W38963   1.252   3.476  16.283  0.1449 -0.1312 -0.0956
22830W        W38964  11.750  11.923  14.572 -0.1881  0.0185  0.2218
22831W        W38965  11.042   3.468   2.615  0.0944  0.0311 -0.1250
22832W        W38966  10.344   6.186   1.538 -0.1430  0.1020 -0.0108
22833W        W38967  12.478  12.957  16.068 -0.1883  0.1666 -0.1059
22834W        W38968   8.333   8.727  16.185  0.0929 -0.0367 -0.0468
22835W        W38969  16.327   2.152   2.251 -0.0406 -0.3935  0.0568
22836W        W38970   0.870   7.516  16.655  0.0658 -0.2408  0.3717
22837W        W38971   8.611  16.759  15.891  0.0862 -0.1193  0.3961
22838W        W38972  17.606  11.624  13.277  0.1023  0.1703 -0.0557
22839W        W38973   4.102   1.768   3.187 -0.2601  0.0794 -0.0254
22840W        W38974   1.403   5.945   0.505  0.1877  0.2116 -0.0180
22841W        W38975  13.003   6.677   2.672  0.2431  0.0921  0.1083
22842W        W38976  14.094  17.757   4.146  0.1067 -0.2432  0.2169
22843W        W38977   6.069  15.752  15.096 -0.2964  0.0825 -0.0209
22844W        W38978   3.951  10.137  16.026  0.0320  0.2869 -0.0858
22845W        W38979  14.866  16.096   2.444 -0.2355  0.2119  0.1858
22846W        W38980   1.490  17.554   1.481  0.0043  0.1351 -0.0088
22847W        W38981   4.802  16.985  12.392 -0.0882 -0.0881 -0.0954
22848W        W38982   1.426  17.443  15.891 -0.0070 -0.0330  0.1174
22849W        W38983   5.277   0.797  13.469  0.0678 -0.0220 -0.2217
22850W        W38984  15.783  16.936   0.155  0.2197 -0.0890  0.2889
22851W        W38985   0.673   3.805   0.246 -0.1857  0.1588  0.0339
22852W        W38986   2.435   4.918  12.508  0.0932 -0.1874 -0.0206
22853W        W38987   9.014   7.112  12.125 -0.0802  0.1884  0.1191
22854W        W38988   9.721   9.137   0.782 -0.1231 -0.0647 -0.0425
22855W        W38989  14.522   3.832  14.138  0.2720 -0.0067  0.1128
22856W        W38990  17.275   1.334  14.690 -0.0098  0.1030  0.3161
22857W        W38991   7.260   3.510  16.487 -0.0074 -0.4571 -0.0640
22858W        W38992   8.776  15.279   1.241  0.2631  0.0367  0.0534
22859W        W38993  13.840  14.585  13.639 -0.1562 -0.0973 -0.2383
22860W        W38994   0.312  13.013  16.687 -0.0750  0.0873 -0.1532
22861W        W38995  13.364   9.359  15.223 -0.2331 -0.0319  0.2314
22862W        W38996  12.285  16.457  13.957 -0.1925 -0.0832 -0.1429
22863W        W38997  10.176  17.796  15.841 -0.1419  0.2165 -0.1542
22864W        W38998  15.144  10.836   1.230 -0.0060 -0.0004 -0.0343
22865W        W38999   9.446  12.861  16.379 -0.2646  0.1711 -0.4414
22866W        W39000  16.947   8.626   2.399 -0.2854  0.0730 -0.0036
22867W        W39001  15.045  15.542   4.896  0.0714  0.0463  0.1499
22868W        W39002  10.898   1.050   3.691 -0.0367 -0.1041 -0.0727
22869W        W39003   2.767   6.314  16.440  0.2152 -0.0486  0.0325
22870W        W39004  10.661   2.726  13.953  0.0651  0.0755 -0.0221
22871W        W39005  10.386   5.250   5.287  0.3207 -0.1497  0.0270
22872W        W39006  12.752  13.408   0.643  0.2431 -0.0214  0.4147
22873W        W39007   3.632   9.878  14.684 -0.2157 -0.1090 -0.2676
22874W        W39008   5.245  16.159   2.766  0.1557 -0.0988 -0.1307
22875W        W39009   9.149  11.848  15.004  0.1066 -0.0553 -0.1343
22876W        W39010  14.678   4.523  14.656  0.1976 -0.0165 -0.4281
22877W        W39011   7.936   1.860   0.755  0.4012 -0.0979 -0.0302
22878W        W39012  11.329  14.839   2.419  0.1691 -0.0448  0.1413
22879W        W39013   7.039   7.298  14.183  0.0084  0.2544 -0.1980
22880W        W39014  11.927   9.160  15.777 -0.5063 -0.0382  0.1783
22881W        W39015  17.228  12.939  11.973 -0.1114 -0.0968  0.2105
22882W        W39016  12.383  14.335  15.848 -0.0736  0.2413  0.4986
22883W        W39017   3.537   6.106   0.169 -0.0613  0.2221 -0.0609
22884W        W39018   3.338  17.773  11.656  0.0247  0.0151  0.2124
22885W        W39019   4.280   2.632   5.088 -0.1761 -0.1285  0.4330
22886W        W39020  12.941   2.064   1.968 -0.0992  0.0696  0.0483
22887W        W39021  16.869   5.986   4.524 -0.3612 -0.0048 -0.2656
22888W        W39022   4.535   0.461   3.369  0.2589 -0.1496  0.1760
22889W        W39023  14.224   9.778   5.532  0.2908  0.0113 -0.2852
22890W        W39024  17.132  13.137   3.373 -0.0411 -0.2072 -0.0751
22891W        W39025   9.611   8.424  16.528  0.0908 -0.1819  0.0131
22892W        W39026   7.385  15.991  13.959  0.0317 -0.2316 -0.1429
22893W        W39027   4.313  14.500   2.664  0.2854  0.1945 -0.1470
22894W        W39028  14.539  16.844   0.491 -0.0715 -0.0323  0.1429
22895W        W39029  12.389   9.296   2.004 -0.1557  0.0829 -0.1539
22896W        W39030  16.016  14.307   3.689  0.0188  0.0371 -0.0442
22897W        W39031  17.474   7.491  15.848 -0.0859 -0.0645  0.4362
22898W        W39032   1.506   4.199  14.615 -0.2442 -0.1428  0.0121
22899W        W39033  13.669  15.188   0.951  0.1457  0.2054 -0.0286
22900W        W39034   9.980   5.653  14.266 -0.1211 -0.3463  0.0151
22901W        W39035   5.788   1.001  16.195  0.1426  0.1461 -0.1364
22902W        W39036   5.391   5.055   4.927  0.2601  0.1599  0.0918
22903W        W39037   5.434   5.115   3.268 -0.2083  0.2129 -0.2198
22904W        W39038  10.939   4.920  13.475  0.0250  0.1498  0.1312
22905W        W39039   0.864  10.575   3.659 -0.2124  0.1433  0.0571
22906W        W39040   2.774  17.098  11.968  0.2275  0.1533  0.0321
22907W        W39041   0.903  15.813   0.690  0.1488  0.1043 -0.0399
22908W        W39042   0.638   7.248  11.734 -0.3296  0.0250 -0.2459
22909W        W39043   6.935   1.831   6.233 -0.0316  0.0305  0.0712
22910W        W39044   4.187   0.926  12.477  0.0532 -0.1937  0.3270
22911W        W39045   9.458   1.287  15.926 -0.0650 -0.2411  0.1620
22912W        W39046  11.993  17.565  14.791  0.0331 -0.2187  0.2815
22913W        W39047  12.400  15.147   2.813  0.0379  0.1133 -0.0738
22914W        W39048   6.245   1.565   3.360 -0.1526 -0.1154  0.0656
22915W        W39049  13.535   4.829   1.145  0.1139 -0.1008  0.0066
22916W        W39050   3.519   1.938  15.406 -0.1036  0.0371 -0.2604
22917W        W39051  16.142  15.335  15.203 -0.1184  0.2162  0.1645
22918W        W39052  14.641   9.496   1.999 -0.0622  0.0207 -0.0780
22919W        W39053   6.465  11.498  12.962 -0.1015 -0.3201 -0.1739
22920W        W39054   4.624  12.050  13.887  0.0784 -0.1872 -0.1135
22921W        W39055   7.042  12.402  16.495 -0.3019 -0.0077 -0.1424
22922W        W39056   1.404   4.119  13.173 -0.2164  0.0331 -0.1008
22923W        W39057   8.684  13.191  14.615 -0.2206 -0.0728 -0.1878
22924W        W39058  15.659   7.497  12.186 -0.0587  0.1109 -0.0176
22925W        W39059   6.302  15.286  15.033  0.0873  0.2121 -0.2413
22926W        W39060   4.769  17.289  10.663  0.1984 -0.0970  0.1384
22927W        W39061  16.928   0.713   1.958 -0.1102  0.0524  0.1154
22928W        W39062   8.087  11.406   1.826 -0.0084 -0.0803  0.1739
22929W        W39063  17.190  13.118  13.438 -0.4661 -0.1230 -0.0889
22930W        W39064   7.766  16.227  16.223  0.1061  0.0082 -0.0606
22931W        W39065   6.248   4.175   0.025 -0.1927  0.2591 -0.0568
22932W        W39066  11.833   7.165  14.802  0.1268  0.0214 -0.3047
22933W        W39067  15.693   0.811  15.805  0.2275  0.0483 -0.2967
22934W        W39068   0.978   8.692   2.892  0.0463 -0.1659 -0.2476
22935W        W39069   9.889   6.208  16.358 -0.2044 -0.1329 -0.1948
22936W        W39070   3.242  12.672  14.289 -0.1535 -0.1796 -0.0063
22937W        W39071   3.895   8.386   2.896  0.0377  0.0918 -0.0581
22938W        W39072  13.015  17.054   5.077  0.0244  0.0597  0.1698
22939W        W39073   8.123  10.284  14.545  0.1827 -0.3346  0.1277
22940W        W39074  12.496  12.142  14.775 -0.0970  0.0044  0.1757
22941W        W39075   5.523   6.753  14.756  0.0159 -0.0526 -0.0075
22942W        W39076   6.045   2.528   0.422  0.0072  0.1480 -0.1596
22943W        W39077   3.618  11.629  16.236  0.1816 -0.3207  0.1995
22944W        W39078   3.766  16.663  13.014  0.0933  0.2312  0.1187
22945W        W39079   0.864   1.908  13.573 -0.0950  0.2224  0.0965
22946W        W39080  15.113   3.079   3.119 -0.0549  0.0799  0.0221
22947W        W39081   9.563  12.324   0.742  0.0448 -0.0631 -0.1743
22948W        W39082   9.421   2.853   3.551  0.0364  0.0835  0.0633
22949W        W39083   1.070  15.147   0.017 -0.0903 -0.2395 -0.0702
22950W        W39084   2.236   1.814  14.639  0.1588  0.1422  0.0978
22951W        W39085  17.397   5.013  14.226 -0.0491  0.0016 -0.0575
22952W        W39086   9.351  12.391  16.473  0.2023  0.0815 -0.3978
22953W        W39087  12.368  17.295   4.679 -0.4686  0.2374  0.3957
22954W        W39088   5.710   2.682   5.238 -0.1846 -0.4569  0.1818
22955W        W39089   7.017  15.246   0.449  0.1008  0.0579  0.0937
22956W        W39090   4.119  16.161  14.142 -0.1566 -0.2183 -0.1442
22957W        W39091  14.349  16.052   2.254  0.0743 -0.0462 -0.1272
22958W        W39092   4.701   6.379  13.003  0.1254  0.3034  0.0882
22959W        W39093  11.003   5.319  15.793 -0.2782  0.0583 -0.1381
22960W        W39094  17.884   5.904   4.489 -0.0513 -0.0536 -0.0279
22961W        W39095   4.964   8.396   0.300 -0.0023  0.3102 -0.1332
22962W        W39096   0.757  11.612  14.350  0.1552  0.0085 -0.1247
22963W        W39097   9.807  12.573  13.424 -0.0290 -0.0198  0.2480
22964W        W39098  12.981  16.417   5.335  0.0267 -0.0792 -0.0017
22965W        W39099   6.594   1.290  15.736  0.0951 -0.3517  0.0547
22966W        W39100   4.268  12.206   5.721  0.0586 -0.1759 -0.0645
22967W        W39101   8.423  15.352  13.499 -0.0070  0.0458 -0.2529
22968W        W39102   6.193  13.068   0.839  0.1195 -0.1128 -0.1705
22969W        W39103  14.122  13.165   1.740 -0.0981 -0.0216 -0.2049
22970W        W39104   8.011   5.266   3.596  0.0031  0.1114 -0.1026
22971W        W39105  15.020  12.095  15.599 -0.5212  0.1079 -0.1286
22972W        W39106  12.907   9.665  14.216  0.0547 -0.1690 -0.0072
22973W        W39107  16.316   2.450  15.293 -0.1826  0.1561 -0.2800
22974W        W39108  10.626  15.129  15.938 -0.1312  0.1942 -0.0224
22975W        W39109   7.504   8.346  14.848 -0.3640 -0.0827 -0.0787
22976W        W39110   4.811   2.723  16.066 -0.0091 -0.0791  0.0624
22977W        W39111   1.485  11.304  14.043  0.3995  0.2550 -0.0824
22978W        W39112  12.651   9.599  11.067  0.1644  0.3217 -0.0358
22979W        W39113   5.783  17.554  15.735  0.0010  0.0108 -0.4481
22980W        W39114   4.985  11.903   0.955 -0.1176 -0.0449  0.1861
22981W        W39115  15.913   2.706   2.891 -0.0260 -0.0834  0.0827
22982W        W39116   0.728  10.872  11.467 -0.0348  0.1900 -0.1431
22983W        W39117  16.710  15.679   0.731 -0.0075 -0.1260  0.2257
22984W        W39118   5.336  10.377  14.013  0.2136  0.0534  0.2725
22985W        W39119   0.644  17.753  11.871  0.1361 -0.4206  0.3273
22986W        W39120   4.713  17.341   3.954 -0.2144 -0.1142  0.1468
22987W        W39121  15.342   9.414  13.125 -0.1740 -0.1615  0.3561
22988W        W39122   8.564  10.713  15.726 -0.1032  0.1153  0.1078
22989W        W39123   8.272  13.874  16.134  0.1546  0.1027 -0.0512
22990W        W39124  17.143   4.401   2.605  0.1444  0.1089  0.1827
22991W        W39125   8.062  15.927   6.085 -0.0995  0.0417 -0.2452
22992W        W39126   6.596   7.491   2.991 -0.4152  0.0698 -0.1855
22993W        W39127   9.840  16.045  15.332 -0.0723 -0.0144  0.3643
22994W        W39128  12.919  16.993  14.644 -0.0445 -0.1701  0.1052
22995W        W39129  12.886  10.789   5.172  0.1262  0.0648 -0.1009
22996W        W39130   4.897   1.741   4.681  0.2070 -0.2466  0.1827
22997W        W39131  10.957   2.720  16.313  0.1577  0.0338 -0.0887
22998W        W39132   5.936   6.457  14.706  0.0509 -0.0478  0.1213
22999W        W39133   9.911   6.912  13.317 -0.0196 -0.0239 -0.0364
23000W        W39134   8.193  10.804   2.500 -0.0273  0.0679 -0.0869
23001W        W39135   4.695  17.582  16.056 -0.0736 -0.2019  0.0749
23002W        W39136  14.484   9.214  13.995  0.0704  0.3110  0.0579
23003W        W39137   1.109  13.007   0.262 -0.0288 -0.2259  0.0336
23004W        W39138  15.429   3.342  12.750 -0.0582  0.1168 -0.1607
23005W        W39139  15.958   3.378  13.513 -0.2752 -0.0798 -0.4106
23006W        W39140  11.472   9.068   3.399 -0.2547 -0.1313  0.1938
23007W        W39141  15.750   7.308  13.031  0.2260 -0.2272 -0.1190
23008W        W39142  13.330   4.721   4.615  0.0252  0.2702 -0.2646
23009W        W39143   8.389   0.297  11.532 -0.1931  0.0398 -0.0940
23010W        W39144   4.618  11.530  12.346 -0.0153 -0.2541 -0.0297
23011W        W39145  12.148  15.227   3.845  0.1604  0.0976  0.1684
23012W        W39146   4.338  14.038   2.373 -0.0438 -0.0905 -0.1334
23013W        W39147   6.182   4.577   4.883  0.2468 -0.1515 -0.0110
23014W        W39148   7.232  11.030   0.840 -0.0389 -0.0694 -0.0293
23015W        W39149  15.575   2.238   0.528  0.1462  0.0461 -0.0556
23016W        W39150  14.445   1.568  12.221 -0.0523 -0.2290 -0.2784
23017W        W39151  15.346  14.919  16.204 -0.1762  0.2171  0.4386
23018W        W39152   5.405   8.081   3.131 -0.2406  0.0090 -0.0433
23019W        W39153  13.291  10.102   1.504 -0.1056 -0.0289  0.1830
23020W        W39154   8.702   6.146   4.095  0.0018 -0.2877  0.1154
23021W        W39155   8.732  17.800  12.112  0.0638  0.1705 -0.1041
23022W        W39156   6.258   4.677  13.771 -0.1403 -0.1390 -0.0659
23023W        W39157   3.376   6.110  15.779  0.2156  0.1882 -0.3567
23024W        W39158  17.285   9.216  11.832  0.1086 -0.1140 -0.1872
23025W        W39159   0.280  15.486  15.490 -0.0063  0.0482 -0.1159
23026W        W39160   4.611   3.615  13.197 -0.4062  0.0776  0.0485
23027W        W39161  12.020   6.233  12.280 -0.0480  0.0183  0.1154
23028W        W39162   7.922   2.138  11.370  0.0595 -0.1600 -0.2979
23029W        W39163  17.022   7.195  16.168 -0.1222  0.1801  0.0401
23030W        W39164  14.715  14.528   0.229 -0.2362 -0.0452 -0.1117
23031W        W39165   8.599   2.149  16.188  0.4124 -0.1066  0.1699
23032W        W39166   7.604  17.087   2.498  0.1500  0.0683 -0.0599
23033W        W39167  12.718   3.974   3.720  0.3995 -0.1924 -0.2152
23034W        W39168   3.445  13.341   0.556 -0.3286 -0.3489  0.0525
23035W        W39169   1.077   2.304  15.358 -0.1164  0.2319 -0.0028
23036W        W39170   8.257   7.926  13.140  0.1556 -0.1933 -0.3735
23037W        W39171   0.829  17.712   4.762 -0.1913 -0.6927 -0.1558
23038W        W39172  16.398  15.237  12.453  0.2620  0.0245 -0.0294
23039W        W39173  13.928  16.055   5.425 -0.0946  0.3673 -0.1166
23040W        W39174  17.815  14.376  15.700  0.4006  0.3746  0.2471
23041W        W39175   8.221  13.489   3.390  0.2542 -0.1069 -0.0598
23042W        W39176   2.803   9.983  12.648 -0.1720  0.2066 -0.2470
23043W        W39177   4.238  10.344  15.097 -0.1455  0.2847  0.1726
23044W        W39178   8.622  15.307   4.126  0.3756  0.2735  0.0093
23045W        W39179   6.429   1.052  13.677  0.2181 -0.2934  0.0746
23046W        W39180   1.053  15.689   2.939 -0.1348  0.0759  0.1872
23047W        W39181  11.625   2.219  14.119 -0.1580  0.0223  0.0480
23048W        W39182   1.883  10.511   3.012 -0.0034  0.2449  0.1726
23049W        W39183  16.191   1.153   5.407 -0.3096 -0.1173 -0.4044
23050W        W39184  15.140   7.049  13.419 -0.3031 -0.1013  0.0274
23051W        W39185  16.087   0.727   0.090  0.2099  0.0763  0.1372
23052W        W39186   7.127  15.314  12.994  0.1767 -0.1243 -0.0152
23053W        W39187  14.187  10.709   5.302  0.0208  0.1808 -0.2603
23054W        W39188  11.682   8.887  14.195  0.0179 -0.2346  0.2678
23055W        W39189   6.541   0.114   1.754  0.2200 -0.1332 -0.3097
23056W        W39190   5.902   3.127   0.261 -0.0211  0.0354 -0.1986
23057W        W39191   0.589  14.963  16.430 -0.1965  0.1320  0.1888
23058W        W39192  10.028  14.195   4.446 -0.0539  0.0314  0.0825
23059W        W39193  12.706   6.077  16.696  0.1880  0.1336 -0.0774
23060W        W39194  10.707  12.040   1.176 -0.1047  0.0599  0.0001
23061W        W39195   6.922  11.493  16.497  0.5266 -0.0527  0.0767
23062W        W39196  15.493  17.327   0.234 -0.0652 -0.0115 -0.3114
23063W        W39197  10.053   9.346  16.704 -0.1084  0.2434 -0.3387
23064W        W39198  14.628   1.451  13.850  0.0574 -0.0218 -0.1280
23065W        W39199  17.922   0.163  13.034 -0.0980  0.0714 -0.0629
23066W        W39200   6.090  16.637   2.380 -0.1645  0.0255 -0.0238
23067W        W39201   0.127   9.821  15.754  0.2009 -0.1346  0.0561
23068W        W39202   9.601  11.942   1.806  0.2589 -0.1594  0.0197
23069W        W39203  15.164   5.210   1.097  0.0989  0.0368  0.0618
23070W        W39204   5.493   9.932  11.752  0.0465 -0.0091 -0.3273
23071W        W39205   9.579   0.498   3.519 -0.1601 -0.0704  0.1932
23072W        W39206  16.077  14.281  12.976 -0.2367  0.2077 -0.1128
23073W        W39207  14.968   2.275   5.554 -0.4598  0.0850 -0.1982
23074W        W39208  13.150   9.529   2.444 -0.0137  0.3313 -0.2750
23075W        W39209   9.885   6.876  12.180 -0.0338  0.0628 -0.1903
23076W        W39210  16.215   3.413   5.387  0.1322  0.1652 -0.3619
23077W        W39211  13.881   2.022   0.846  0.3355  0.0587 -0.1217
23078W        W39212   2.829   1.404   4.707  0.0857  0.2450  0.1754
23079W        W39213   2.288  16.377  13.056  0.0805  0.0585  0.2470
23080W        W39214  14.444  11.928   0.187 -0.2456  0.0631 -0.1732
23081W        W39215   4.489  16.611  15.587  0.3323  0.1591 -0.0841
23082W        W39216  16.750  14.701  16.696 -0.2129  0.1594  0.0495
23083W        W39217   6.569  13.434  14.376 -0.1435 -0.3684 -0.0147
23084W        W39218   3.012  15.916   5.171  0.0595 -0.0573 -0.1013
23085W        W39219  15.797  16.861   3.992  0.0059 -0.4231  0.1437
23086W        W39220   8.815   4.428   2.204 -0.2535  0.1510 -0.1639
23087W        W39221  15.690  17.087  14.706  0.2201  0.0707  0.2528
23088W        W39222   0.765  12.892   3.950 -0.1244 -0.0036 -0.0373
23089W        W39223  13.978  17.903  15.677  0.0967  0.2932  0.0027
23090W        W39224  17.353   9.046  16.164 -0.0839  0.1089  0.0989
23091W        W39225   4.455   6.169   2.722 -0.0050  0.0366  0.1385
23092W        W39226   6.059   9.860   1.782 -0.2042  0.0004  0.2581
23093W        W39227   0.046  15.526  15.947  0.0128 -0.1968  0.0789
23094W        W39228  15.283  17.504   2.842  0.0581  0.0568 -0.0877
23095W        W39229   9.178   6.649   2.507 -0.0735 -0.0670 -0.1098
23096W        W39230   9.250   7.624   2.909 -0.0295 -0.0725 -0.0223
23097W        W39231   7.627  16.487   2.057 -0.1809 -0.3447  0.1703
23098W        W39232  13.280  13.977  13.243 -0.1772 -0.1468  0.2823
23099W        W39233   2.042  11.102  16.072  0.3453 -0.0188 -0.0343
23100W        W39234  17.098  10.772  11.852  0.2414  0.2933 -0.2774
23101W        W39235   2.689   5.691   1.516  0.3009 -0.1565 -0.2107
23102W        W39236   3.693   0.320  13.646  0.1760  0.2594 -0.2214
23103W        W39237  11.786   2.796   5.259 -0.0727 -0.0259  0.0428
23104W        W39238   4.024   2.418   4.056  0.1715  0.1569 -0.2356
23105W        W39239   7.021   2.451  15.654 -0.0481  0.1503 -0.3525
23106W        W39240   0.631  17.865   0.441 -0.0516 -0.2373  0.2256
23107W        W39241   2.156  13.448   0.982 -0.2277 -0.1879 -0.0280
23108W        W39242   8.288  14.916  14.400 -0.0009  0.1186 -0.3870
23109W        W39243  10.204  10.967  15.153 -0.0452 -0.1039 -0.0690
23110W        W39244   2.508  10.459  16.015 -0.1711  0.0265  0.2350
23111W        W39245  13.165   3.168   5.237  0.0811 -0.1142 -0.0753
23112W        W39246   9.943   5.637   0.784 -0.3125 -0.0118  0.2624
23113W        W39247  16.839   1.927  12.674  0.2273  0.0462  0.2340
23114W        W39248   6.684  13.507  12.704  0.0256  0.3618  0.0302
23115W        W39249  15.321  12.858  13.847  0.2737 -0.2047  0.4666
23116W        W39250   1.745  15.137   1.973 -0.1623 -0.0535  0.0235
23117W        W39251  14.803   1.412   0.520 -0.1172 -0.0702  0.1217
23118W        W39252   3.701  13.423  15.032  0.2355  0.0930  0.0115
23119W        W39253   6.327   3.453   1.916  0.0090  0.1745  0.0463
23120W        W39254   2.635   8.042  11.412 -0.2239 -0.0553 -0.2451
23121W        W39255   4.999  17.491  13.279  0.0585 -0.1216  0.0276
23122W        W39256  14.630  15.847  15.292 -0.2853  0.1450  0.1363
23123W        W39257   9.451  14.954  11.883  0.0323 -0.3085 -0.1498
23124W        W39258   8.910  15.460  13.535  0.2057  0.3784 -0.0795
23125W        W39259  16.673   6.679   4.201 -0.3247 -0.1143  0.0387
23126W        W39260   1.477  13.665  11.790  0.0477  0.2938 -0.0164
23127W        W39261  17.108   6.473  14.448 -0.1029  0.0254  0.0500
23128W        W39262   9.692   3.686  16.510 -0.1089 -0.0180  0.1206
23129W        W39263  17.888   4.074   5.872 -0.0441  0.0949  0.2015
23130W        W39264  12.112   5.941   5.490 -0.0675 -0.0532  0.1508
23131W        W39265   0.922   2.132  16.410 -0.1466  0.3144 -0.2242
23132W        W39266  17.681   6.544  15.232 -0.0781  0.2384  0.0684
23133W        W39267  11.341  13.288  13.623  0.1532 -0.0136 -0.3387
23134W        W39268   6.569   1.149   1.734 -0.4862 -0.2273  0.0863
23135W        W39269   9.979   6.206   2.814  0.0698 -0.0111  0.1119
23136W        W39270   3.291   8.981   3.199 -0.0929 -0.0523 -0.0820
23137W        W39271  11.163   5.994  16.568  0.0651  0.1199  0.0849
23138W        W39272   1.353   5.992  13.535  0.1630  0.0710  0.3196
23139W        W39273  11.696  16.766  11.749 -0.1822  0.2339 -0.1349
23140W        W39274  17.319   1.158   1.889 -0.1651 -0.0513  0.1100
23141W        W39275  13.465   0.612  13.342  0.4221 -0.1269  0.0177
23142W        W39276   4.619   8.674   4.251 -0.0003  0.0382 -0.0023
23143W        W39277  15.877   2.859   1.754 -0.1623 -0.0887 -0.1871
23144W        W39278  13.532   8.234   4.596 -0.0588  0.1379 -0.1444
23145W        W39279  10.912   3.218   0.385 -0.3420  0.3203 -0.2921
23146W        W39280   9.918   6.587  12.904  0.0590  0.1334 -0.2791
23147W        W39281  14.553  17.402   3.562 -0.0247  0.0414  0.0965
23148W        W39282  12.512   9.928  16.130  0.1829  0.1797  0.1614
23149W        W39283   7.379   5.636   5.826  0.1680  0.4175  0.1378
23150W        W39284  15.168  17.839   5.389  0.0722 -0.1677  0.3782
23151W        W39285   6.038  13.012  14.490 -0.2535  0.0236 -0.2921
23152W        W39286   0.772  10.097  12.726  0.0439 -0.2008 -0.2557
23153W        W39287   3.820  14.927  15.489 -0.2759 -0.1839  0.0206
23154W        W39288  12.821   8.899  14.598  0.1862 -0.0050  0.1794
23155W        W39289  17.298   6.010   0.374 -0.2390 -0.3275  0.1491
23156W        W39290   6.638  11.967   3.439  0.0858 -0.0218 -0.0133
23157W        W39291   7.512   8.035  13.893 -0.4370  0.3543  0.1137
23158W        W39292  14.850   4.520   2.322 -0.2881  0.1990  0.0591
23159W        W39293  11.552  17.869   1.697  0.0516 -0.2275  0.4451
23160W        W39294  12.653  13.593   1.528  0.4195  0.2866 -0.2288
23161W        W39295   9.763   7.831  14.459  0.0338 -0.2421 -0.3061
23162W        W39296  16.786  16.526   4.990 -0.0621 -0.2752  0.1601
23163W        W39297  11.283  14.955  14.598  0.0982  0.0346 -0.0662
23164W        W39298  17.020   6.875   4.572 -0.1214 -0.0595  0.0323
23165W        W39299   9.286  10.350  12.968  0.1464  0.0460 -0.0515
23166W        W39300   0.420  13.913   5.095 -0.0330 -0.0309 -0.0161
23167W        W39301   8.748  15.149   1.710  0.3261  0.0152  0.0207
23168W        W39302   1.440   0.961   0.755  0.1783  0.2035 -0.1456
23169W        W39303   9.983  12.533   1.684 -0.1368 -0.2040 -0.4027
23170W        W39304  13.868   2.149  15.307 -0.0030 -0.1828  0.1265
23171W        W39305  15.804   7.329   4.975 -0.0108 -0.1493  0.1147
23172W        W39306  12.401   6.797   5.013 -0.1371 -0.0752  0.0502
23173W        W39307  15.640   9.469   5.600 -0.2848  0.0370 -0.2581
23174W        W39308   0.198   0.056   2.565  0.1216  0.3121  0.1074
23175W        W39309   2.003  17.913  13.752  0.1823 -0.0278 -0.0184
23176W        W39310  16.431  11.004   3.329  0.1241  0.1834  0.2725
23177W        W39311  12.187  14.444  13.785  0.1686  0.1859 -0.1206
23178W        W39312  14.807  16.942   5.491 -0.1401 -0.2785 -0.0654
23179W        W39313   4.819   1.893   0.447 -0.2997 -0.2119 -0.0041
23180W        W39314  12.039  16.204  11.893 -0.2173  0.2267  0.0155
23181W        W39315  15.845  17.145   1.207 -0.2299  0.1119 -0.0801
23182W        W39316   9.407  10.270   4.683 -0.0542  0.1371 -0.1360
23183W        W39317   8.611  14.640  11.672  0.3363  0.0820  0.2155
23184W        W39318  12.217   0.240   4.428 -0.1919 -0.0080  0.0046
23185W        W39319   8.705   8.442  14.971 -0.0160  0.1649 -0.5315
23186W        W39320  14.671   6.442   5.422  0.0701 -0.0604 -0.1669
23187W        W39321   8.877  11.393   3.460 -0.1497 -0.0838  0.2051
23188W        W39322   0.330   8.135  14.714  0.0102 -0.2990  0.1967
23189W        W39323  12.681   8.401  13.219 -0.3345 -0.0909 -0.1996
23190W        W39324   8.240  10.693  10.968 -0.0139 -0.1933  0.0047
23191W        W39325   6.945  10.812   4.639  0.0494  0.0275  0.0081
23192W        W39326  10.472  17.659  11.769 -0.3484 -0.0882  0.0615
23193W        W39327   3.461  15.310   1.696 -0.1716 -0.1489  0.0043
23194W        W39328  16.138   7.914  14.625 -0.0182  0.1271  0.0513
23195W        W39329   0.324   8.285   0.824  0.0831  0.1292  0.0912
23196W        W39330   0.242   9.521   1.370  0.0528 -0.1662 -0.0227
23197W        W39331   2.336  11.328   3.907  0.0535  0.1154 -0.0137
23198W        W39332  13.368  17.466  15.278  0.0979 -0.1242  0.0120
23199W        W39333   9.171   9.138  11.233  0.2941  0.2183  0.1373
23200W        W39334  10.641   8.992   1.944  0.1527  0.2011 -0.1142
23201W        W39335  16.058  14.009   5.085 -0.2654 -0.1347  0.1018
23202W        W39336   0.836  15.663   5.837 -0.0151  0.0941  0.1108
23203W        W39337  13.972  12.280   3.339 -0.0593 -0.4080 -0.0690
23204W        W39338  14.298   7.290   0.578  0.1310  0.3512  0.0091
23205W        W39339   7.191   2.108   2.772  0.3373  0.0013  0.3123
23206W        W39340   4.456   1.302  11.703  0.2167  0.1129  0.3348
23207W        W39341   3.848   9.029  12.123 -0.4773  0.0677  0.1953
23208W        W39342  17.009   4.091  11.821 -0.2579  0.1751 -0.2331
23209W        W39343  11.080  13.054   2.304 -0.0409  0.5789 -0.2005
23210W        W39344  16.662  16.819  14.768  0.1329  0.2955 -0.0018
23211W        W39345  15.605   5.774   5.431 -0.0396  0.2905 -0.3257
23212W        W39346  15.787   6.764   4.480  0.1382 -0.3229 -0.1201
23213W        W39347   8.315  16.775   2.622 -0.2509 -0.0768 -0.2111
23214W        W39348  15.866   7.831   5.146  0.1303 -0.0529  0.1320
23215W        W39349   1.356  15.773  14.809  0.0443  0.0508  0.0936
23216W        W39350  14.645   0.813  14.234 -0.1970 -0.1206  0.3424
23217W        W39351   2.580  15.573  16.600 -0.1829 -0.0890 -0.3044
23218W        W39352   9.098  16.338  15.955 -0.1839 -0.1665 -0.0880
23219W        W39353   9.091   3.839   2.131 -0.0114  0.1314 -0.1753
23220W        W39354  10.071  10.459  13.524 -0.0242  0.2166  0.2855
23221W        W39355   2.265   9.964  16.216 -0.0294 -0.1622 -0.1122
23222W        W39356   5.835  11.326   5.020  0.1518  0.1233 -0.0383
23223W        W39357  17.599  11.416   3.737  0.2331  0.1168 -0.2126
23224W        W39358   6.882   1.227  16.634  0.1771  0.1460 -0.1927
23225W        W39359  17.108  11.822  13.262  0.0247  0.0212  0.0276
23226W        W39360   7.773  12.242   2.035  0.2771  0.1888 -0.0833
23227W        W39361  11.422   2.947  11.838  0.0069 -0.2657  0.0031
23228W        W39362   2.770   6.057   2.851 -0.5181  0.3467 -0.0249
23229W        W39363  14.738  17.749  15.216  0.1839 -0.1426  0.1971
23230W        W39364   0.497  17.926   5.691 -0.2684  0.0080  0.2150
23231W        W39365   9.943  14.853   4.282 -0.1240  0.1853 -0.2422
23232W        W39366   4.164  11.327   2.401 -0.2140  0.0139 -0.0130
23233W        W39367   5.172  10.648   4.171 -0.1787  0.2252  0.1179
23234W        W39368   0.785  15.555   0.021 -0.6761  0.2880  0.1365
23235W        W39369   4.407  12.481  16.304  0.2637 -0.1172 -0.0134
23236W        W39370  12.436   9.086  12.855  0.2047 -0.1880 -0.2979
23237W        W39371  11.318   9.687  11.711  0.2102 -0.0465 -0.3922
23238W        W39372  15.645   7.185  16.599  0.0276 -0.1372  0.0298
23239W        W39373  11.952   1.998  16.276  0.2155  0.0958  0.1169
23240W        W39374  12.558   5.677   5.456  0.0701 -0.0099  0.0446
23241W        W39375  11.271   9.676  13.509 -0.1374  0.3199 -0.0240
23242W        W39376  11.734  10.658   3.173  0.0732 -0.0393  0.0683
23243W        W39377  11.645  12.310  15.326  0.1327  0.0789  0.0139
23244W        W39378  12.893   3.759  11.921 -0.1263  0.2675  0.0951
23245W        W39379   2.105   4.590   0.987 -0.0091 -0.0771 -0.2795
23246W        W39380   8.635   2.839  13.913 -0.0913  0.1946  0.1564
23247W        W39381  14.013   3.859  14.477 -0.1056 -0.0462 -0.1206
23248W        W39382   8.057   1.233  12.041  0.2428 -0.0268 -0.2676
23249W        W39383  15.277   2.816   4.334  0.0229  0.1719 -0.2672
23250W        W39384  12.685  10.653   4.165  0.2464  0.1910  0.0177
23251W        W39385  11.668  15.631  14.071 -0.1177  0.1468 -0.1993
23252W        W39386  13.692   8.664   1.842  0.2143  0.1674  0.0294
23253W        W39387   5.674   3.501   0.064  0.1263 -0.2836  0.0476
23254W        W39388  10.020  12.261  16.383  0.2350 -0.0868  0.0683
23255W        W39389  10.613  15.461   4.475  0.0878  0.2100  0.3770
23256W        W39390  16.950  15.808   4.116 -0.2224 -0.2142 -0.2076
23257W        W39391  16.510  17.361  12.762  0.1952 -0.1406  0.0641
23258W        W39392  17.242   8.231   0.435 -0.0030  0.1002 -0.0158
23259W        W39393  12.846  10.152  14.313  0.0225  0.1390  0.2062
23260W        W39394  15.544  12.595  13.458  0.1123  0.0180  0.2736
23261W        W39395   1.308  17.049  12.021  0.0082  0.1294  0.4141
23262W        W39396  11.435  11.767   1.945 -0.0874  0.0450  0.1690
23263W        W39397  10.067  14.658  13.284  0.0669 -0.1656  0.1027
23264W        W39398   9.704   4.698   2.855 -0.0233 -0.0271 -0.2659
23265W        W39399   2.345   5.777  14.788 -0.2222 -0.0547  0.0798
23266W        W39400   7.308  14.167  15.371  0.1945 -0.1259 -0.4448
23267W        W39401   8.470  17.621  12.906 -0.0812 -0.3568 -0.0581
23268W        W39402  11.973  17.651  14.167  0.0956 -0.0600  0.3630
23269W        W39403   6.436   0.886   5.177  0.1625 -0.1894  0.0974
23270W        W39404   6.358  16.553  10.162  0.2500 -0.3521 -0.1754
23271W        W39405   8.129   5.924  11.649  0.1247 -0.0179  0.0357
23272W        W39406   2.357   9.854  14.002 -0.1200 -0.1130 -0.0544
23273W        W39407   4.396   2.895  15.214 -0.1078 -0.0550  0.4509
23274W        W39408   4.783   0.173   2.024 -0.0655  0.0829 -0.2297
23275W        W39409  12.395  10.856   5.110 -0.0230  0.1383 -0.0647
23276W        W39410  15.177  14.444   4.177  0.0686  0.1227 -0.2228
23277W        W39411  16.965   6.032  11.356 -0.1012 -0.0084  0.5127
23278W        W39412   0.543  16.278   4.763  0.0285 -0.2184 -0.1313
23279W        W39413  10.196   2.871   0.111  0.2249  0.2225 -0.0606
23280W        W39414   9.243   8.270   2.277 -0.1079  0.0240  0.1029
23281W        W39415   2.055   1.795  16.501 -0.0838 -0.3990 -0.0645
23282W        W39416  12.085   3.240   2.253 -0.1076  0.0899 -0.1032
23283W        W39417  16.382   9.941  15.038  0.0777  0.1800 -0.0550
23284W        W39418  11.272   3.511   2.198  0.0991 -0.2244  0.1107
23285W        W39419   9.550   3.041  13.585 -0.2326  0.0999 -0.3094
23286W        W39420   1.719   1.376  16.333 -0.2382  0.3435  0.0070
23287W        W39421  14.403  11.223   1.011  0.0543  0.0401  0.2799
23288W        W39422   6.941   5.493  12.676  0.1360  0.1170 -0.2628
23289W        W39423  16.256  12.494  16.719  0.1290 -0.0249  0.4314
23290W        W39424  11.351  15.285   4.269 -0.2379  0.0680  0.1533
23291W        W39425  10.972   7.427  13.471 -0.2329  0.0227 -0.0189
23292W        W39426   5.814  14.771   3.766  0.0430 -0.1241  0.0470
23293W        W39427   0.252  15.312   2.788 -0.0476  0.0802 -0.3220
23294W        W39428  12.009   8.986   5.182  0.0266 -0.2264 -0.1100
23295W        W39429  14.041  12.947  15.547  0.1245 -0.0558 -0.1509
23296W        W39430   9.015  12.294  14.856  0.1301 -0.2219 -0.0781
23297W        W39431  10.391   1.269   2.629 -0.1306  0.0905 -0.1056
23298W        W39432  16.655  17.959   3.968 -0.0894 -0.0889 -0.0074
23299W        W39433   4.691   8.215   2.044 -0.2085 -0.1136 -0.1551
23300W        W39434   5.925  16.229   2.176 -0.0469 -0.0287  0.1774
23301W        W39435  12.061   7.745   3.141  0.0464  0.2140 -0.1617
23302W        W39436   3.435   4.119  13.022 -0.1607  0.0776  0.1106
23303W        W39437   5.281  15.686  15.075  0.1055 -0.0377  0.1330
23304W        W39438   8.539   9.653   0.850  0.0532 -0.1240 -0.0257
23305W        W39439   4.619  11.445  14.731  0.1499  0.0274  0.0784
23306W        W39440   7.894  13.026  15.672 -0.0420  0.2941  0.1461
23307W        W39441  16.642  11.573   4.636 -0.0702 -0.1974  0.1932
23308W        W39442   8.028   3.465  15.995  0.1532 -0.0236 -0.1726
23309W        W39443  15.975  11.160  12.843 -0.1955  0.2510 -0.0366
23310W        W39444  14.001  12.443  16.323 -0.0300  0.0870 -0.0069
23311W        W39445   6.419   6.391   0.147 -0.1741  0.0881  0.1720
23312W        W39446   3.871  15.320   4.250  0.0618  0.2565  0.3365
23313W        W39447  12.804   0.005   1.817 -0.1433 -0.1094 -0.0644
23314W        W39448  12.712  16.218  13.917 -0.1527 -0.1630 -0.2118
23315W        W39449   8.358   7.591   5.052  0.0237 -0.0693  0.3166
23316W        W39450   9.185  14.885  16.691 -0.0369 -0.2670  0.0098
23317W        W39451   3.007  14.529   4.179 -0.2822 -0.2521  0.1060
23318W        W39452   3.592  14.938   3.595  0.0434 -0.0584  0.0387
23319W        W39453   7.260  15.237   4.371 -0.0443  0.2679  0.2035
23320W        W39454   0.873   3.243   0.732  0.1150  0.1001  0.0977
23321W        W39455  12.666   2.206   1.033  0.0473  0.0559 -0.2778
23322W        W39456  10.128   2.556   5.885  0.2187  0.1852  0.1946
23323W        W39457  13.772   1.944  13.869 -0.1537  0.0506 -0.2767
23324W        W39458  15.764  14.035  16.495  0.0118 -0.2782 -0.1834
23325W        W39459  16.865  10.176   2.903 -0.0587 -0.0861 -0.0125
23326W        W39460  13.103  11.070   3.417  0.0850 -0.0647 -0.0820
23327W        W39461  12.735   8.697   2.660 -0.3137  0.2235  0.0427
23328W        W39462   8.324   5.273  13.454  0.5097 -0.3309 -0.1883
23329W        W39463   7.812  14.552   0.437  0.1490  0.1870 -0.0063
23330W        W39464   4.661   5.281   0.262  0.1348  0.0822 -0.2304
23331W        W39465   2.681   8.170  14.553 -0.0226 -0.1300  0.2036
23332W        W39466   4.810   7.497  11.532 -0.0435 -0.0160  0.0596
23333W        W39467   1.197  15.504   5.196 -0.0283  0.3986 -0.0548
23334W        W39468   4.632   4.150   2.832  0.2611  0.1327 -0.2543
23335W        W39469  11.602   0.966  13.336 -0.1425 -0.0413 -0.1325
23336W        W39470  13.571   4.076  14.215 -0.1607 -0.1172  0.3569
23337W        W39471  11.382   0.075  12.227  0.1272 -0.1314  0.1018
23338W        W39472  14.840  16.214  13.901  0.0817 -0.1094  0.2018
23339W        W39473   3.784  10.065  14.222 -0.2396  0.1579  0.0844
23340W        W39474  11.935   4.739   0.361 -0.1779  0.3471 -0.0855
23341W        W39475   0.644   6.768   4.123 -0.3512 -0.0137  0.1238
23342W        W39476  12.816   0.077  12.143 -0.0883 -0.0750  0.0044
23343W        W39477  11.888   4.360  14.228  0.1809 -0.0102 -0.3478
23344W        W39478  15.812  14.486  12.477  0.2967 -0.1528  0.1376
23345W        W39479   5.134  15.175  14.293 -0.0032 -0.1068 -0.0529
23346W        W39480  15.009   6.071   5.462 -0.2785  0.2894 -0.0119
23347W        W39481   1.446  15.332   2.369 -0.1512 -0.0366 -0.2146
23348W        W39482   6.178  11.290  16.651  0.1059 -0.1262 -0.0930
23349W        W39483  10.849   3.191   2.283 -0.0026  0.1964 -0.5567
23350W        W39484  12.849   5.494   5.842 -0.0616  0.2566  0.1518
23351W        W39485  11.818   2.547   2.164 -0.2488  0.0067 -0.0466
23352W        W39486  14.832   3.317   2.123  0.1502 -0.1924  0.1846
23353W        W39487   3.494  15.069  12.262 -0.3866 -0.0529 -0.2912
23354W        W39488  15.198   3.700   5.453  0.1871  0.0594 -0.3116
23355W        W39489   2.515  13.452  15.989  0.1802  0.1847 -0.4841
23356W        W39490   9.611  13.437  14.455  0.0491 -0.3130  0.0392
23357W        W39491   2.566   5.791   5.645  0.0206 -0.0454 -0.1121
23358W        W39492   4.236   6.505  13.229  0.1694  0.0387 -0.2386
23359W        W39493   6.784  10.049   0.754  0.1274  0.0911 -0.0888
23360W        W39494   9.955  16.766   1.517 -0.0284 -0.0231 -0.5447
23361W        W39495  10.176  13.647  14.508  0.1101 -0.0240 -0.0663
23362W        W39496   0.641   2.386  14.254 -0.0515  0.0782  0.2010
23363W        W39497  10.546   4.404  14.424 -0.2206  0.3531  0.0947
23364W        W39498   1.273  11.306  15.808  0.1439  0.0056 -0.2482
23365W        W39499  16.637  17.430   3.099 -0.2499 -0.1439  0.0867
23366W        W39500  16.239  16.610  15.551  0.0758 -0.1064 -0.4854
23367W        W39501   8.213  17.300   3.037  0.2594 -0.0984 -0.0152
23368W        W39502   4.182   4.302   2.730  0.0508  0.1318 -0.0077
23369W        W39503  17.293   3.705   4.361  0.0719  0.3878 -0.1274
23370W        W39504  11.155   5.433   2.444  0.3720 -0.0896  0.1918
23371W        W39505  15.273  17.185  13.941  0.0386  0.0096 -0.1698
23372W        W39506   7.790  13.599   6.185 -0.0131 -0.1539  0.0370
23373W        W39507   1.602  11.108  13.471 -0.0512 -0.0605  0.0865
23374W        W39508   0.652   7.087   3.731 -0.0906  0.0862  0.1363
23375W        W39509  11.142  17.005  12.030 -0.1130 -0.1895  0.1934
23376W        W39510  15.289   9.808  14.108 -0.0478 -0.1200  0.1236
23377W        W39511  15.650   6.276   3.656  0.2576  0.0723  0.2225
23378W        W39512   0.046  10.926  13.459 -0.0552  0.2016  0.0475
23379W        W39513  12.427  11.458   0.614 -0.1336  0.1442  0.1516
23380W        W39514  16.367  17.741  13.087  0.3570  0.1226 -0.2787
23381W        W39515  10.664  16.378   4.625 -0.2248  0.0922  0.0474
23382W        W39516  15.301  14.241   2.901 -0.1750 -0.2664 -0.1118
23383W        W39517   7.723  12.252  12.482  0.3739  0.1199  0.2394
23384W        W39518  10.866   5.400   4.505  0.0366 -0.2724  0.0992
23385W        W39519   7.148  17.787  12.725 -0.1718  0.4636 -0.3260
23386W        W39520   1.672   0.003   1.317 -0.2278 -0.0002  0.0392
23387W        W39521  15.201   7.093  12.424  0.5166 -0.0055  0.5097
23388W        W39522   0.443   6.467  13.554 -0.0694  0.1368  0.2278
23389W        W39523  12.649   6.759   2.259  0.0183 -0.0002 -0.0645
23390W        W39524   4.595  13.306   0.436  0.2354 -0.1669  0.0198
23391W        W39525   8.057  17.551  16.233 -0.0599 -0.1043 -0.0389
23392W        W39526   5.315  13.719  13.145  0.0128 -0.1526 -0.2053
23393W        W39527  14.952   4.093   3.617  0.2268 -0.3492  0.1939
23394W        W39528   8.032   5.277  11.983  0.0757 -0.0714  0.0581
23395W        W39529  11.296   0.264  14.790  0.0127 -0.0263 -0.2280
23396W        W39530  11.796   7.296   3.041 -0.0001  0.2286  0.2728
23397W        W39531  12.776  17.816  12.638  0.2770 -0.0537 -0.0761
23398W        W39532  14.954  15.183  13.305 -0.3591  0.1003  0.0100
23399W        W39533  10.981  15.750   1.996 -0.2176  0.0685 -0.2025
23400W        W39534   0.497  14.319  13.324  0.0688  0.4769  0.1715
23401W        W39535  13.568   9.641   1.271  0.4259 -0.0028 -0.2424
23402W        W39536   2.282   7.211   2.840  0.1424 -0.3184  0.0390
23403W        W39537  14.338   5.134  16.217  0.1791  0.1008 -0.0118
23404W        W39538  10.460  11.904  16.520  0.0298  0.1790 -0.0772
23405W        W39539  11.343   5.571  14.698  0.1761 -0.0120 -0.0444
23406W        W39540   0.388  17.450   1.322 -0.0057 -0.4320 -0.1062
23407W        W39541   9.745  16.830   4.860  0.1221 -0.0861  0.0166
23408W        W39542   9.965   9.186  12.090  0.2224 -0.3270 -0.0578
23409W        W39543  17.181  17.362  13.523  0.2880 -0.0044  0.0928
23410W        W39544   7.479   8.839   3.571  0.1408 -0.2184  0.1458
23411W        W39545  16.686   4.601  16.488 -0.1653 -0.2124 -0.1109
23412W        W39546   0.929   2.299  13.190  0.0516 -0.4435  0.2209
23413W        W39547   4.517   3.068  13.474 -0.1063  0.1756  0.1532
23414W        W39548  10.476   8.536  15.405  0.0640  0.0509  0.1654
23415W        W39549  11.975   6.000   0.933 -0.2069  0.0003  0.2875
23416W        W39550   7.698  10.277   4.400 -0.0984 -0.3523 -0.2390
23417W        W39551  15.328  15.556   0.164  0.1161 -0.0089 -0.5129
23418W        W39552  16.711  13.862   2.127  0.0247 -0.0499  0.0228
23419W        W39553   4.112   0.019  15.409  0.1059 -0.0345 -0.2448
23420W        W39554  12.178   6.985  12.355  0.0261  0.0445 -0.0559
23421W        W39555   8.358  15.944   5.695 -0.1888 -0.1169  0.0605
23422W        W39556   6.203   9.310  14.792 -0.0068  0.0787 -0.1497
23423W        W39557  12.396   3.673   2.229  0.2469 -0.0243  0.0250
23424W        W39558  17.536  17.676  13.827 -0.1215 -0.0159  0.0270
23425W        W39559   8.164   5.410  15.892  0.0606 -0.0205 -0.0233
23426W        W39560  12.372   3.424   4.264 -0.0401  0.0383 -0.3724
23427W        W39561   1.550   2.275   6.180 -0.1068  0.1666  0.1740
23428W        W39562   6.442  10.166  13.188 -0.1570 -0.1681  0.0797
23429W        W39563   0.137   4.300  14.281 -0.0294 -0.0509 -0.0229
23430W        W39564   1.709   5.716  13.219 -0.0096 -0.1073  0.1860
23431W        W39565   9.898   4.723  11.826  0.0438  0.1055 -0.4634
23432W        W39566   6.207   9.552  14.125 -0.1700  0.0991 -0.1546
23433W        W39567   4.591   0.125   1.123 -0.2270  0.1082  0.2065
23434W        W39568   6.525   7.620  13.122 -0.1810 -0.2413  0.1293
23435W        W39569   9.974   8.987   0.358 -0.2237  0.2164 -0.0717
23436W        W39570   2.937   9.718  14.919 -0.0054  0.1764  0.1731
23437W        W39571   2.744   6.063  13.347  0.1641  0.3971  0.1572
23438W        W39572   0.732   5.998  11.241  0.0882  0.3674 -0.0963
23439W        W39573   0.226   2.480   3.160 -0.2041  0.0629  0.0688
23440W        W39574  13.074  12.725   5.619 -0.2196  0.1674  0.1722
23441W        W39575  15.228  14.018  12.782  0.1136 -0.2710  0.0676
23442W        W39576   4.497  11.475  13.613  0.1974  0.0700  0.1617
23443W        W39577   7.440   3.055  13.304  0.5148 -0.2443  0.3290
23444W        W39578   8.556  16.268   4.261 -0.2265  0.0273 -0.2115
23445W        W39579   2.827   6.834  14.664 -0.0315  0.0316  0.1359
23446W        W39580  11.399   4.910  12.048  0.0563 -0.0637 -0.2460
23447W        W39581   0.861   9.685   4.466 -0.1512  0.0914 -0.2119
23448W        W39582  17.622   7.331   0.840  0.0964  0.0626 -0.0415
23449W        W39583  15.250   5.775   5.032 -0.0409 -0.0554 -0.0097
23450W        W39584  10.574   0.436   5.191 -0.0262 -0.1206  0.0326
23451W        W39585   2.862   1.595  13.465 -0.1403  0.1601  0.0074
23452W        W39586   0.357   0.266  12.813 -0.0368  0.1683 -0.0044
23453W        W39587   1.924   2.335   5.797  0.1364  0.0286  0.0103
23454W        W39588   6.691   0.829  12.151  0.0251 -0.1057 -0.0410
23455W        W39589  14.942   9.000  13.776  0.1579 -0.0391  0.0165
23456W        W39590  12.833   0.234   2.377 -0.2340  0.2208 -0.0045
23457W        W39591  15.042  17.160  12.224  0.1062  0.1709  0.0950
23458W        W39592   9.649   9.855  15.633 -0.0053  0.0833 -0.0951
23459W        W39593   8.110  13.552   2.007 -0.3603  0.0518 -0.1031
23460W        W39594  17.892  10.637  16.526  0.1263  0.0377 -0.1216
23461W        W39595  14.122  10.945  14.677  0.2560 -0.0858 -0.2477
23462W        W39596   4.243   1.535  13.331 -0.0178  0.0142 -0.0769
23463W        W39597   1.503   5.456   0.479  0.1566  0.0803 -0.0546
23464W        W39598   3.230  12.747   4.322 -0.2094 -0.0322  0.2124
23465W        W39599   2.302   6.751  11.192  0.3072 -0.0140  0.2722
23466W        W39600  11.579  14.558   3.475  0.5145 -0.0430  0.0239
23467W        W39601   5.253  17.518  14.123 -0.1462 -0.2595 -0.0567
23468W        W39602  10.055  12.199  14.697  0.0942 -0.0456  0.1119
23469W        W39603   7.758   3.263  12.933  0.0488 -0.3608  0.2284
23470W        W39604   2.896   2.731   2.093 -0.1381 -0.1924  0.4549
23471W        W39605   4.702  10.596   2.229  0.1852 -0.0108  0.1225
23472W        W39606  10.276  17.050   5.874 -0.2512 -0.1475  0.0488
23473W        W39607  13.284   4.397  13.832 -0.0180 -0.1853  0.0004
23474W        W39608  15.721   8.624   1.022 -0.0791 -0.1620  0.3517
23475W        W39609  13.082  10.574  15.131 -0.0142 -0.0258 -0.2340
23476W        W39610   6.103   1.621  12.840 -0.2966  0.0921  0.2104
23477W        W39611  11.107   9.187  13.579 -0.0685 -0.2727  0.0441
23478W        W39612   4.170   5.342   3.405  0.0275 -0.2259  0.1742
23479W        W39613   6.686  14.049   2.791  0.1490  0.1892  0.1514
23480W        W39614  10.895  15.750  15.987 -0.3026 -0.4818  0.0178
23481W        W39615   7.353  17.283   1.670  0.1974  0.0437 -0.1167
23482W        W39616  13.929   1.718  15.877 -0.0197  0.1001 -0.0574
23483W        W39617   2.492   3.354  14.356  0.0778  0.0916  0.1050
23484W        W39618   8.719   8.653   4.283 -0.0232  0.2458  0.1705
23485W        W39619   6.713   6.026   0.014  0.0552 -0.0658 -0.0412
23486W        W39620   2.843  17.182   0.868  0.1648  0.0083  0.1728
23487W        W39621   2.270  14.970   4.377 -0.1860  0.0410 -0.3244
23488W        W39622   0.616   4.402  12.734 -0.1616  0.1172 -0.0837
23489W        W39623  17.283   8.470   3.418 -0.1864 -0.2332  0.0361
23490W        W39624  14.817   1.697   3.250  0.0005  0.0368 -0.2835
23491W        W39625  10.906  11.241   2.853 -0.3612  0.0146 -0.1215
23492W        W39626   6.677  12.393   3.791  0.0037 -0.0846  0.0061
23493W        W39627   1.948  15.862  11.966  0.0877  0.2235  0.1016
23494W        W39628   7.265   0.263   4.149  0.2230  0.1055 -0.0800
23495W        W39629  16.823   1.869  13.294 -0.4383  0.1041 -0.0542
23496W        W39630  15.487  15.483  15.480  0.1228 -0.1559  0.3765
23497W        W39631  14.623   7.366  13.794  0.0160  0.1544 -0.0898
23498W        W39632  12.326  16.220   1.085  0.0331  0.0260  0.0310
23499W        W39633   7.556  16.319   0.858 -0.1277  0.0664  0.0435
23500W        W39634  16.845   7.606  12.466  0.0324  0.0611 -0.6066
23501W        W39635   6.659   5.813  13.566  0.2017 -0.1486  0.0459
23502W        W39636  16.511   5.180   1.601  0.0350  0.3027  0.1808
23503W        W39637  14.473  17.260  14.031 -0.1031  0.3030  0.0498
23504W        W39638  16.271  17.410  13.808 -0.0211 -0.1029 -0.3603
23505W        W39639  10.244  11.870  12.072 -0.0388  0.1777  0.0709
23506W        W39640   0.270   1.663  14.512 -0.3646  0.0108  0.0929
23507W        W39641   4.545  14.304  11.252  0.0504 -0.0351  0.0814
23508W        W39642  14.082  17.438   3.692 -0.1140 -0.0356  0.1383
23509W        W39643   4.098   7.314  12.417  0.2051 -0.0124  0.0371
23510W        W39644   3.459   0.861  13.068 -0.1303 -0.1367 -0.0456
23511W        W39645  15.544   9.870   3.760  0.1273 -0.1535 -0.1079
23512W        W39646   0.166  16.117  14.377 -0.1493 -0.1655 -0.0037
23513W        W39647   8.138  14.787  13.503 -0.1079  0.0032 -0.0270
23514W        W39648   7.854  13.034   3.376  0.0670 -0.0675 -0.0456
23515W        W39649  14.885   9.558   2.829 -0.0668  0.3106 -0.0241
23516W        W39650   9.284   3.333   3.776 -0.0999 -0.1312 -0.1915
23517W        W39651   6.743   0.630   1.777 -0.2195  0.1209 -0.2477
23518W        W39652   4.709  14.162   2.717  0.0094 -0.0932  0.0248
23519W        W39653  17.678   1.909  15.302  0.1906 -0.2497  0.0764
23520W        W39654  13.355  14.207   0.539 -0.3141  0.1965 -0.2071
23521W        W39655   4.441   4.275  13.231 -0.1828  0.2094  0.0994
23522W        W39656   9.814  15.349  13.961 -0.0317 -0.1229  0.3372
23523W        W39657  16.345   2.810  16.195  0.0832  0.1708 -0.1152
23524W        W39658  17.770  10.064  12.739 -0.0575 -0.1177 -0.0812
23525W        W39659   4.686  10.525   3.809 -0.1049  0.0594  0.0451
23526W        W39660  14.976  11.291   2.284  0.0409 -0.2162  0.3440
23527W        W39661   8.704   7.267   0.396  0.0099  0.2509  0.0302
23528W        W39662   2.625   3.725   3.686 -0.0351 -0.0856  0.1662
23529W        W39663  16.567  11.946  13.072  0.2917  0.1573 -0.0043
23530W        W39664   8.277  16.732   1.356  0.1341  0.2554  0.0700
23531W        W39665  11.927  12.172   3.031  0.1416  0.1379  0.0558
23532W        W39666   4.849   9.517   5.371 -0.3011 -0.1242 -0.0685
23533W        W39667   8.416   7.716  12.252  0.1483  0.2507 -0.0114
23534W        W39668  15.790  11.293  16.239 -0.0632 -0.2481  0.0095
23535W        W39669   6.680  16.236  13.573 -0.1380 -0.1362 -0.0178
23536W        W39670   3.648  12.981   3.525 -0.0969  0.1012 -0.1436
23537W        W39671   2.789   0.898   0.947  0.1033 -0.3005 -0.3063
23538W        W39672   8.106   0.071  16.346 -0.0719  0.0640 -0.0231
23539W        W39673   3.697  13.781  11.496 -0.3793 -0.0865 -0.4082
23540W        W39674  17.271   1.798  15.568  0.0073  0.0693 -0.0529
23541W        W39675  13.603   8.963   4.305  0.3191  0.0215 -0.2784
23542W        W39676  14.486   3.982   4.536  0.1058 -0.1263  0.1227
23543W        W39677   4.361   4.787  13.379 -0.1227 -0.0536  0.3460
23544W        W39678  17.408   8.522  11.694  0.0170  0.1021  0.3128
23545W        W39679   4.214  15.787   1.137  0.0395  0.0288 -0.1959
23546W        W39680   9.424   1.451   3.565 -0.4832 -0.0826  0.0059
23547W        W39681  15.928  15.930   3.785  0.0505 -0.1661 -0.0906
23548W        W39682  16.360  10.725   0.034 -0.1554 -0.0352  0.0785
23549W        W39683   8.385   5.094   2.468  0.2163 -0.0045  0.0825
23550W        W39684   3.907   1.198   2.759  0.2560 -0.0294 -0.1399
23551W        W39685   5.765   0.118   4.438 -0.3430  0.0303  0.1957
23552W        W39686   6.013   1.615   1.905 -0.2123  0.2950 -0.1156
23553W        W39687   0.933   6.809   1.519  0.2454 -0.1837  0.2917
23554W        W39688   9.180   1.959   1.398  0.1265 -0.0104 -0.2253
23555W        W39689   0.870  14.096   4.903  0.0199  0.1196 -0.3319
23556W        W39690  16.606  15.485  14.947 -0.1272 -0.2134 -0.0180
23557W        W39691   0.336  14.431  14.225 -0.3857 -0.0042 -0.2405
23558W        W39692   0.595   1.544  15.027 -0.0797  0.1166  0.2069
23559W        W39693  12.112   8.480  14.936  0.0088  0.2367  0.0359
23560W        W39694  15.307   9.349   0.685  0.0305 -0.1600 -0.1946
23561W        W39695   5.869   6.068  15.059  0.0725 -0.1102  0.0041
23562W        W39696  14.250   1.592  13.139 -0.2491  0.1184 -0.0282
23563W        W39697  11.339  15.318   2.578 -0.2414  0.0958 -0.0331
23564W        W39698   3.708  14.889   0.059 -0.1599 -0.0616 -0.1304
23565W        W39699  16.445   3.203  15.933  0.0366 -0.1724 -0.4335
23566W        W39700   2.365  15.812   3.711  0.0603 -0.0901  0.1571
23567W        W39701   6.484   6.260   2.275 -0.0016  0.2081  0.0242
23568W        W39702   9.202   4.166  14.313  0.0753  0.1733 -0.2868
23569W        W39703   4.079   1.726   5.187 -0.0895  0.0939 -0.0945
23570W        W39704   1.680  14.254   1.321  0.1276  0.3360  0.1228
23571W        W39705   0.506   5.654   3.076  0.1231  0.2017  0.0349
23572W        W39706  16.607   4.336   3.417  0.1276 -0.2914  0.3981
23573W        W39707   4.395   7.912  11.678  0.0510  0.2821  0.2462
23574W        W39708  17.823  16.397  12.192  0.2693  0.1102 -0.1423
23575W        W39709   8.388   6.055  12.903  0.0013 -0.2501 -0.0942
23576W        W39710  15.080   7.808   0.924  0.2433 -0.1749  0.4369
23577W        W39711  11.649   4.658  16.678  0.1827 -0.2187  0.0763
23578W        W39712   1.267  11.436  16.315 -0.0097  0.3595  0.0182
23579W        W39713  11.575   9.614   3.985  0.1196  0.0531  0.0896
23580W        W39714   0.914  15.538  14.513 -0.0926  0.2498  0.0460
23581W        W39715  10.174   7.829  12.717  0.1289 -0.1740 -0.2164
23582W        W39716  15.564  10.168  13.133  0.0212  0.2472 -0.1237
23583W        W39717   5.197  12.353   2.745 -0.2526 -0.0507 -0.3062
23584W        W39718   5.499   1.245   0.279 -0.0870  0.0260  0.1941
23585W        W39719   5.063   7.585   1.490 -0.0272 -0.2617  0.2462
23586W        W39720  13.371  14.812   5.966  0.1331  0.0198 -0.2278
23587W        W39721   7.122  17.006  12.094  0.0539 -0.0574 -0.0238
23588W        W39722   1.081  13.090  14.224  0.0764 -0.0283  0.1421
23589W        W39723  17.957   0.864  14.634 -0.4821  0.2990  0.0262
23590W        W39724   0.434  11.053  16.021  0.2616  0.1559 -0.2098
23591W        W39725   4.143   4.666   2.354  0.2514  0.1848  0.2065
23592W        W39726  12.574   6.118  13.550 -0.0063  0.0171  0.0733
23593W        W39727   1.816  16.374   4.015  0.1560  0.3550 -0.0679
23594W        W39728  17.344  14.587   4.266 -0.0219 -0.2254  0.1190
23595W        W39729  12.787  11.045   1.409  0.1982  0.2705 -0.2222
23596W        W39730   3.539   2.208  14.262 -0.0375 -0.0052  0.0631
23597W        W39731  10.176  11.296   1.546 -0.1087  0.2210  0.1658
23598W        W39732   3.059  15.019  11.838  0.0264 -0.1494  0.3064
23599W        W39733  11.113  14.424  11.496 -0.0787  0.1428  0.0772
23600W        W39734   2.704   6.486   0.174  0.0952  0.1373  0.0879
23601W        W39735   7.381  13.711  10.951 -0.0079  0.0512 -0.0774
23602W        W39736  17.367  16.403  12.382 -0.1363  0.0486  0.0342
23603W        W39737   1.818   1.875   5.743 -0.3041  0.4729 -0.0201
23604W        W39738   8.858   2.358   5.413 -0.0648 -0.3118 -0.2111
23605W        W39739  12.204  14.881  12.550 -0.0003  0.3376  0.1419
23606W        W39740  12.029  14.009  12.520 -0.0029  0.0644  0.2850
23607W        W39741   5.286  17.330  16.531 -0.1694  0.1185 -0.0856
23608W        W39742  14.577   5.266   1.616  0.1687  0.1716 -0.0612
23609W        W39743  17.795   6.180  11.716 -0.0353 -0.1029 -0.2041
23610W        W39744  15.842   6.858  12.860 -0.0730 -0.0550 -0.0825
23611W        W39745   7.313   1.765   3.205 -0.1954  0.0626  0.0287
23612W        W39746   8.466   4.848  11.726 -0.0837  0.3207  0.0820
23613W        W39747   8.860  13.206  12.750 -0.0180 -0.3545  0.3681
23614W        W39748  10.566   9.549   1.126  0.2127  0.2124  0.1023
23615W        W39749  15.645  15.228  15.908  0.1324  0.0381  0.2100
23616W        W39750   4.956   3.793   0.267  0.0250 -0.1308 -0.0188
23617W        W39751   7.483   6.355   1.005  0.1410 -0.1726 -0.1706
23618W        W39752  11.626  10.692  16.439 -0.0734 -0.3663 -0.3647
23619W        W39753   7.186   4.221  12.529 -0.1512  0.2660 -0.1453
23620W        W39754  11.116   3.572  16.265  0.1502 -0.0470  0.1325
23621W        W39755   7.947   1.477   4.040  0.1481 -0.2779  0.0499
23622W        W39756  12.705   3.690   2.620  0.2690 -0.3717  0.1508
23623W        W39757  15.462  11.079   2.055 -0.0842  0.0656 -0.0009
23624W        W39758   7.415  12.351  13.379  0.0625  0.1101  0.2076
23625W        W39759  13.484  15.842   3.205  0.0345 -0.0979  0.1874
23626W        W39760  16.625  13.286   1.066  0.3557 -0.1048 -0.1688
23627W        W39761   0.980   4.545  14.626  0.2847 -0.2121  0.1880
23628W        W39762   8.438  14.369   0.110 -0.3451 -0.3010 -0.3446
23629W        W39763  16.050   8.676  15.665  0.1289  0.3623  0.0417
23630W        W39764   2.919   7.821   3.582  0.0383  0.1223 -0.1397
23631W        W39765  11.939  11.566   1.932 -0.0482 -0.0516  0.2281
23632W        W39766   4.390  13.916   4.197 -0.0535  0.1967 -0.0192
23633W        W39767   2.985  11.031   1.558 -0.2345  0.0594 -0.1203
23634W        W39768  10.016   5.086   4.833 -0.0788  0.3668 -0.2019
23635W        W39769  17.879   5.817   1.655  0.3010 -0.2061  0.1470
23636W        W39770  13.528  10.287  12.235 -0.2472  0.0938 -0.0876
23637W        W39771   8.161   7.566   1.577 -0.1795  0.2558  0.2786
23638W        W39772  16.591   0.635   0.086 -0.0939  0.0888  0.5079
23639W        W39773  15.883  10.911   0.001 -0.0175  0.2075 -0.0191
23640W        W39774   8.012   4.074  13.872  0.1214  0.0703 -0.0206
23641W        W39775  17.696  12.702   1.284 -0.2973 -0.1799  0.0100
23642W        W39776   7.264   4.424   2.298  0.2439  0.3370  0.0336
23643W        W39777   6.288   6.301  15.818  0.0538  0.0273 -0.0512
23644W        W39778   3.422   6.318  12.526  0.1530 -0.0222  0.1337
23645W        W39779  12.313   2.452   0.816 -0.1185  0.1381 -0.0953
23646W        W39780   2.458   9.642  14.783 -0.0942 -0.3040  0.1771
23647W        W39781  14.785  16.807  11.460 -0.1872 -0.0670 -0.0523
23648W        W39782  16.263  15.952   0.615 -0.0441  0.0095 -0.2726
23649W        W39783   7.067  13.725   3.150 -0.0830 -0.1182 -0.4652
23650W        W39784  13.784  16.550   4.140 -0.1725 -0.4031  0.1552
23651W        W39785   2.601   7.111  13.019 -0.0503  0.1583 -0.2074
23652W        W39786  13.456   4.483  15.729  0.3943 -0.0135 -0.1504
23653W        W39787   6.226  15.239  12.402  0.2601  0.1886  0.2551
23654W        W39788  14.742   3.142   4.204 -0.2648 -0.1797 -0.2526
23655W        W39789  12.738   9.951  13.859  0.3858 -0.0722  0.0636
23656W        W39790   5.049   2.710  11.163 -0.2162  0.1137 -0.1410
23657W        W39791   4.711  17.251   0.188  0.3884  0.2200  0.0504
23658W        W39792   8.697  16.778   3.957 -0.3650 -0.2010 -0.1627
23659W        W39793   5.390  14.227  15.518 -0.2918 -0.0674 -0.4438
23660W        W39794  12.747   6.497   1.763  0.0473 -0.0130 -0.0361
23661W        W39795   9.577  11.831  11.336 -0.0444  0.1961 -0.1610
23662W        W39796   1.696  17.289  14.556  0.1889 -0.3600  0.3247
23663W        W39797   0.793   7.941   4.686  0.0257 -0.2314 -0.2835
23664W        W39798  10.111   9.417  14.235  0.0726  0.0549  0.1738
23665W        W39799   0.045   9.139   0.647 -0.2032  0.1066  0.0942
23666W        W39800  13.548  15.688   1.084 -0.0597  0.1517 -0.0261
23667W        W39801  13.939   3.484   1.059  0.2118 -0.3535  0.1056
23668W        W39802  17.603  17.342   0.568  0.0631  0.1075 -0.2165
23669W        W39803  12.513  17.765   4.733  0.2487 -0.0949 -0.0106
23670W        W39804  17.568   1.433   2.987  0.0477 -0.1744  0.0356
23671W        W39805  13.388   6.303   1.300  0.0141  0.2100  0.0491
23672W        W39806  11.192   9.209  15.305  0.0739  0.2558  0.0240
23673W        W39807  10.909   1.154  12.669 -0.1278 -0.0728  0.2265
23674W        W39808  15.444  11.230  15.283 -0.0059 -0.2885  0.2068
23675W        W39809  13.154   1.718   2.909 -0.1861 -0.2916 -0.2598
23676W        W39810  10.514   4.326  12.362  0.1139 -0.2277 -0.1909
23677W        W39811  10.885   8.430  11.734  0.2072 -0.1938  0.1087
23678W        W39812  13.445   4.125  11.433 -0.1266  0.0049 -0.1005
23679W        W39813  17.305   0.802   5.494 -0.1069 -0.1350  0.3106
23680W        W39814   0.859  10.836  15.446 -0.2354 -0.3850 -0.0669
23681W        W39815   6.498   5.437   0.488 -0.0423  0.2651  0.0541
23682W        W39816   5.613  16.571   5.359  0.1439  0.0471 -0.2005
23683W        W39817   1.716   2.860  12.735 -0.0456 -0.0783 -0.0471
23684W        W39818  17.836   0.645  16.493  0.0046  0.3329 -0.1749
23685W        W39819   7.430  13.839  14.034  0.2298 -0.1602 -0.0171
23686W        W39820   0.363   7.965  13.262 -0.1021  0.0007 -0.1791
23687W        W39821  14.245  12.170   5.580  0.3089  0.0592  0.1605
23688W        W39822  17.654   3.166   1.324  0.2825 -0.0631  0.2578
23689W        W39823  13.406   6.912  15.756  0.1263 -0.2596  0.0012
23690W        W39824   8.654  11.447   3.031 -0.1501 -0.4262 -0.0871
23691W        W39825  10.413  13.656  12.154 -0.2585  0.0038 -0.1199
23692W        W39826   6.486   0.805   4.085 -0.1126  0.1770  0.0622
23693W        W39827   9.779   7.538  12.568  0.0003 -0.2562 -0.0552
23694W        W39828  12.308   7.407  12.565  0.1431  0.2559 -0.0801
23695W        W39829  17.330  15.969   2.803 -0.0552 -0.0631 -0.2128
23696W        W39830  17.086   5.834  14.540  0.1434 -0.0281 -0.2319
23697W        W39831  14.261   1.294  11.843 -0.1376  0.4568  0.1442
23698W        W39832   1.501   7.217   4.443  0.1078  0.2585 -0.0807
23699W        W39833   5.664  12.545   2.727 -0.0622  0.2289 -0.1767
23700W        W39834   4.461  14.665  13.461 -0.2173 -0.0257 -0.1921
23701W        W39835  14.869   6.647  15.278 -0.2384  0.0401  0.2864
23702W        W39836   1.955  15.432   5.775 -0.1356 -0.0859 -0.0399
23703W        W39837   6.404  13.815  11.101  0.1323 -0.0382 -0.1682
23704W        W39838   3.678  11.367   2.607  0.2701  0.2573  0.0789
23705W        W39839  14.270  11.334   1.490  0.0588  0.1891 -0.2170
23706W        W39840  12.346  13.505  13.249 -0.2022  0.1802 -0.0876
23707W        W39841  10.505   0.420   3.253 -0.0689  0.1268 -0.2472
23708W        W39842   4.886  17.284   2.325  0.1140  0.1849  0.0817
23709W        W39843   4.751   6.015  16.457 -0.0847  0.0580  0.1378
23710W        W39844   9.391   3.407  13.977 -0.0161 -0.1668  0.1778
23711W        W39845  17.191   1.938  15.039  0.1365 -0.0975  0.1252
23712W        W39846   6.666  10.490  16.332 -0.1411 -0.3426  0.0156
23713W        W39847  13.155  17.815   2.403 -0.0106 -0.0405 -0.0309
23714W        W39848   4.023   6.846  12.675  0.2979  0.0589  0.0046
23715W        W39849  17.804  10.863   2.134  0.1559  0.1922  0.1297
23716W        W39850   9.119   7.050   5.089 -0.0162  0.1707  0.1771
23717W        W39851   8.641  14.867   3.661 -0.0760  0.0039  0.1950
23718W        W39852  16.826  12.022  14.818  0.2054 -0.0748  0.0559
23719W        W39853   5.505   9.296  14.336  0.0840 -0.1348 -0.0709
23720W        W39854  13.931  13.763  15.350 -0.1277 -0.1397 -0.0226
23721W        W39855  13.319   9.121   4.797  0.1176 -0.0518 -0.1758
23722W        W39856   4.528   7.008   0.242  0.0775  0.0503 -0.0179
23723W        W39857   7.941   8.566   3.538 -0.1747 -0.1652 -0.0599
23724W        W39858   3.306   4.982  11.956  0.1681 -0.0000 -0.4846
23725W        W39859   1.818  12.661   2.200  0.0377  0.1591 -0.1645
23726W        W39860  13.245  13.389  12.770 -0.2172  0.0069 -0.0090
23727W        W39861  14.932  11.118   4.715  0.0877 -0.1212  0.0402
23728W        W39862   9.697   7.089  12.855 -0.1701 -0.2116  0.1686
23729W        W39863  14.654  11.371  12.229  0.1022 -0.2556 -0.2224
23730W        W39864   4.149   1.664   2.720  0.0215 -0.1936 -0.1050
23731W        W39865   3.249   9.490   3.279 -0.1034 -0.5188 -0.0070
23732W        W39866  13.955   3.946  15.342  0.1454 -0.0467  0.0977
23733W        W39867  14.358  17.769   3.082  0.1367 -0.0307 -0.1088
23734W        W39868  15.873   4.037   6.027 -0.1171  0.1788  0.0349
23735W        W39869  16.388   5.915  14.642 -0.3212  0.0246 -0.2249
23736W        W39870   8.427   8.233  14.487  0.1562  0.1421  0.0633
23737W        W39871  17.229   2.738   4.338 -0.0112 -0.0546 -0.2191
23738W        W39872  15.424  17.053   3.645 -0.0953  0.2935  0.0974
23739W        W39873   5.574   4.772   2.791  0.0641 -0.1503  0.2067
23740W        W39874  10.154   1.798  14.566 -0.0343 -0.1529  0.1172
23741W        W39875  16.780  10.619   1.628 -0.0126 -0.1081 -0.0544
23742W        W39876  13.831   3.836  11.452 -0.0010  0.0844  0.0728
23743W        W39877   4.156   0.715   2.688 -0.0993  0.1909 -0.1981
23744W        W39878  12.369   1.567  15.941 -0.0813 -0.1999  0.0712
23745W        W39879  17.639   0.367  11.598 -0.0138  0.0291  0.4309
23746W        W39880   5.453   4.206  15.148  0.0661  0.4699  0.2007
23747W        W39881   0.084  13.886  14.931 -0.0341 -0.0214  0.0255
23748W        W39882  16.525  17.191   5.573 -0.0449 -0.0624  0.0747
23749W        W39883   4.451   7.631   4.425  0.0430  0.0261  0.1130
23750W        W39884   1.878  16.597   0.059 -0.1933 -0.0837  0.4450
23751W        W39885   7.362   4.181   4.669  0.0592 -0.0334  0.1386
23752W        W39886   0.412   3.922  15.088 -0.0418 -0.1809 -0.2414
23753W        W39887  11.310   8.093  11.819 -0.0530  0.2824 -0.1498
23754W        W39888  17.410  17.707   4.450 -0.2103 -0.0806  0.0247
23755W        W39889  15.523   6.477  13.003  0.0426  0.1967 -0.1543
23756W        W39890   5.545   4.272   2.601 -0.1558  0.0183  0.3196
23757W        W39891  12.322  12.501   2.249 -0.4481  0.2892 -0.2134
23758W        W39892   7.278  10.204   1.684  0.1102  0.1602 -0.2291
23759W        W39893   1.714  17.251  15.474 -0.1734  0.2295  0.1909
23760W        W39894   4.674   3.244   0.313 -0.3218  0.3196 -0.0676
23761W        W39895   2.931   4.576  10.426 -0.1765 -0.1837 -0.1074
23762W        W39896   5.295  12.489  14.109  0.0755  0.0829 -0.3579
23763W        W39897   8.334  15.443   2.478  0.1302  0.1734  0.1080
23764W        W39898   0.197  14.878   5.758 -0.0865  0.1147  0.4778
23765W        W39899  12.021   7.974   5.319 -0.3386 -0.0335 -0.3401
23766W        W39900   7.733  12.499  12.953  0.0812 -0.2037  0.0720
23767W        W39901   2.378   9.486  16.690 -0.0281 -0.3758  0.2215
23768W        W39902   4.203   3.337  15.039 -0.0120  0.0372 -0.0270
23769W        W39903   3.418  11.313   5.264  0.1147 -0.0314  0.0627
23770W        W39904   6.800   4.732   1.483 -0.2143  0.0442  0.1529
23771W        W39905  17.425   7.169   3.089  0.0345 -0.0782  0.2710
23772W        W39906   6.409   3.647  14.476  0.1175  0.3408 -0.1266
23773W        W39907   5.136  10.835  15.922 -0.0686  0.1498 -0.1953
23774W        W39908  10.163   6.636  16.712 -0.2273 -0.0730  0.0183
23775W        W39909   3.837   2.059  16.654  0.2452  0.1120 -0.1565
23776W        W39910  14.369   1.595   3.568 -0.0275  0.1199  0.4075
23777W        W39911  12.793   5.793   2.236 -0.3667 -0.2439 -0.1176
23778W        W39912  11.907  14.123   3.694  0.2338  0.2453  0.1068
23779W        W39913  12.092   9.015   4.374 -0.3530  0.1530  0.0725
23780W        W39914   7.239   9.869   2.393  0.1707 -0.0732 -0.1561
23781W        W39915   5.020   8.834   4.656 -0.1073  0.0448  0.0454
23782W        W39916   0.960  17.305  12.474  0.0438 -0.3438 -0.0416
23783W        W39917   7.381  16.795   1.053  0.1568 -0.0453 -0.1093
23784W        W39918   0.517   7.894  15.304 -0.3608 -0.0006 -0.0458
23785W        W39919  15.113   2.143   1.887 -0.0466 -0.1300 -0.0149
23786W        W39920   4.065   3.763   2.099  0.3521  0.1094  0.1784
23787W        W39921   3.349  13.908  13.436  0.2481  0.2273 -0.3742
23788W        W39922   6.411  12.201   5.314 -0.0325  0.2887  0.0562
23789W        W39923  17.266   9.746  11.847 -0.3515  0.1936  0.1496
23790W        W39924   8.441  16.313  16.577  0.0060  0.0105 -0.3177
23791W        W39925   6.368   9.304  12.964 -0.1162 -0.1479 -0.0414
23792W        W39926   2.555  10.534   1.176  0.1081 -0.2802 -0.3438
23793W        W39927  10.609  14.878   2.271 -0.1823 -0.1260  0.0805
23794W        W39928  14.021   9.596  11.794  0.2532  0.2457 -0.0351
23795W        W39929   1.535   9.751  12.890 -0.0562  0.1073 -0.5149
23796W        W39930  17.335  13.038   2.290 -0.1031 -0.2701  0.0108
23797W        W39931   7.842   8.847   4.806  0.1305  0.3428  0.2537
23798W        W39932   3.685  12.496   0.835 -0.1829  0.0117 -0.0812
23799W        W39933   5.069   5.053   0.017 -0.1512  0.1772 -0.0742
23800W        W39934  11.920  15.788   3.153 -0.2676 -0.0546  0.1089
23801W        W39935   1.459   4.023   4.460 -0.0902 -0.1366  0.0785
23802W        W39936   1.292  17.708   3.253  0.2912 -0.1008  0.2405
23803W        W39937   7.694   2.487   4.277  0.0206 -0.2325 -0.1822
23804W        W39938  13.185   2.853   2.918  0.0324 -0.3181  0.0544
23805W        W39939   0.112  12.788  14.496 -0.0586  0.0815  0.0984
23806W        W39940   8.896   6.351  13.856 -0.4449  0.2073  0.0512
23807W        W39941   2.729   5.668   3.625 -0.3246 -0.2802 -0.1745
23808W        W39942  15.617  17.586   4.575 -0.2517 -0.1277  0.0362
23809W        W39943   5.020   1.323   2.721  0.2320  0.2369 -0.0274
23810W        W39944  14.259   4.677   0.690 -0.1549 -0.0873  0.0537
23811W        W39945   4.659   4.497  11.639  0.1302  0.0871 -0.2252
23812W        W39946  17.506  13.244   2.854 -0.2243 -0.1127  0.1259
23813W        W39947  17.658   7.590  12.117 -0.2914 -0.2882  0.1459
23814W        W39948   3.762  11.623   1.541  0.3110  0.1911  0.1142
23815W        W39949   0.949   1.685  12.617  0.1134 -0.2012 -0.0579
23816W        W39950  17.550  12.790  12.412  0.3360  0.0298  0.2703
23817W        W39951   9.486  13.276  12.175 -0.2854 -0.2362  0.0626
23818W        W39952  16.365   1.527  11.276  0.2601 -0.3247  0.0790
23819W        W39953   3.103   2.010  16.079 -0.0377  0.0609 -0.0472
23820W        W39954   1.105   6.988  12.011  0.3335 -0.0672 -0.1201
23821W        W39955   0.152   0.921   0.755 -0.0241  0.0510  0.2657
23822W        W39956   9.325   9.130   1.152  0.1074 -0.1639  0.0126
23823W        W39957   0.367   7.044   4.579  0.4367  0.3701  0.0913
23824W        W39958   2.405   0.874   3.026 -0.0317  0.0734 -0.0784
23825W        W39959   0.156  17.443  12.501 -0.3222 -0.0325  0.1643
23826W        W39960   8.316   3.520  11.637 -0.1586  0.0155 -0.1255
23827W        W39961  10.065   6.421  12.494 -0.0292 -0.0665  0.0418
23828W        W39962  15.267  14.155   6.483  0.1238  0.2628 -0.0556
23829W        W39963  11.257   8.277  14.757 -0.2119  0.1270 -0.1341
23830W        W39964  11.923  17.627   5.563 -0.1120 -0.0543 -0.1715
23831W        W39965  13.258  13.143   5.384  0.0969  0.0198 -0.2024
23832W        W39966   7.332   4.421   1.462  0.2869 -0.1246 -0.0213
23833W        W39967  13.177   7.832  15.804  0.2065  0.1209 -0.4190
23834W        W39968  13.187   2.672  15.714 -0.1372 -0.1102 -0.0245
23835W        W39969  11.189   6.246  15.576 -0.0292 -0.2810 -0.1232
23836W        W39970  15.550   1.703   4.174  0.0140 -0.3132 -0.3375
23837W        W39971  13.551  16.804   2.897  0.0388  0.0459 -0.0951
23838W        W39972   1.574   7.098  11.624 -0.0073  0.0279  0.0552
23839W        W39973   5.526   7.971  14.589  0.0526  0.1177  0.5712
23840W        W39974   4.449   4.110  12.671  0.4556 -0.0991 -0.1890
23841W        W39975  10.627   1.356  12.298 -0.0316  0.0495  0.1522
23842W        W39976   2.544   8.519  16.652 -0.0213  0.2372 -0.0596
23843W        W39977  16.960  17.833   3.105  0.1630  0.2313 -0.2788
23844W        W39978   4.805   9.733  12.139 -0.0391 -0.0130  0.1881
23845W        W39979  10.245  10.513  12.643 -0.0181  0.1869  0.0340
23846W        W39980  12.681   9.271   0.652 -0.1698 -0.0995  0.3609
23847W        W39981   6.964  13.762  13.935 -0.2625  0.0514 -0.0729
23848W        W39982   3.731   5.013   0.686  0.1835 -0.0313 -0.3237
23849W        W39983   9.454  14.958   4.444  0.0623  0.0842  0.2081
23850W        W39984   3.517  17.662   5.752  0.3100  0.0326  0.2076
23851W        W39985   8.437   7.101   3.571  0.1785 -0.2097 -0.0602
23852W        W39986   7.674   5.950  12.443 -0.0293  0.1002 -0.0500
23853W        W39987   6.361  14.991  15.481  0.0512  0.0034 -0.4073
23854W        W39988   5.041   2.420  12.563 -0.2856 -0.2434 -0.1883
23855W        W39989  10.558   6.272  16.646 -0.0965  0.1494  0.1575
23856W        W39990  14.408  12.321  14.810 -0.1428  0.2063  0.1165
23857W        W39991   5.923   3.012   4.716 -0.0986  0.0954  0.0260
23858W        W39992   3.320  10.243  14.133  0.1393 -0.3335 -0.1787
23859W        W39993  14.089   4.309   2.747  0.1197 -0.2757 -0.4363
23860W        W39994  11.689  10.278   5.608  0.1139  0.1694 -0.0004
23861W        W39995   3.599  11.251  15.897  0.0651  0.2918  0.0123
23862W        W39996   1.639  13.054   1.954 -0.1288  0.1842 -0.0544
23863W        W39997   6.680   0.151   2.691  0.3571 -0.3032  0.0837
23864W        W39998   1.992   1.149   4.504 -0.0322 -0.1038  0.0470
23865W        W39999  10.805   8.282  10.352 -0.0392  0.1847  0.1102
23866W        W40000   3.123  14.055   1.446 -0.3674  0.1664 -0.1128
23867W        W40001  10.711   1.791  15.874  0.1214 -0.3327  0.3092
23868W        W40002   1.075  12.556  12.476  0.2255  0.3712 -0.1940
23869W        W40003   0.080   4.002  13.386  0.0207  0.0300  0.1264
23870W        W40004   8.990  14.517  11.989 -0.0628  0.0989  0.3257
23871W        W40005  15.619  16.210   5.160  0.0468 -0.1309  0.2483
23872W        W40006   6.981  13.341  12.285 -0.0241 -0.2314 -0.0951
23873W        W40007   9.176  12.111   0.187  0.3521  0.1069 -0.1717
23874W        W40008   2.780  15.610  12.522  0.0907  0.4101  0.0310
23875W        W40009  14.753   7.066  12.172 -0.1029  0.1714  0.1608
23876W        W40010   7.969   2.537   5.347 -0.0392  0.1091  0.0675
23877W        W40011   8.973   2.114  13.550  0.0797  0.1795 -0.1655
23878W        W40012  14.481   0.151  16.324 -0.2483  0.3062  0.1694
23879W        W40013  11.782   4.856  15.827 -0.0616 -0.1746 -0.2369
23880W        W40014   7.923   2.973   4.167 -0.0649 -0.0960  0.2847
23881W        W40015  13.096  13.449  15.056 -0.0656 -0.1262 -0.1559
23882W        W40016   5.121   0.985   0.905  0.2475 -0.1270  0.1530
23883W        W40017  11.804   2.975  15.017  0.4302 -0.1185 -0.1690
23884W        W40018  11.399  12.064  14.913 -0.1727  0.2168 -0.1477
23885W        W40019   6.335  14.732  14.851 -0.1526  0.1813 -0.0567
23886W        W40020   6.987  17.503  12.144 -0.2117 -0.0134  0.0030
23887W        W40021  11.346   0.966   1.832 -0.0185  0.2870  0.1268
23888W        W40022   8.023   7.967  13.575 -0.0980  0.0204  0.3462
23889W        W40023   7.620   3.223  15.379  0.0584  0.1838 -0.1759
23890W        W40024   1.789   3.907   1.528  0.0179 -0.1509  0.2098
23891W        W40025   8.881   1.331   1.460 -0.2559 -0.2819 -0.0428
23892W        W40026  10.053   8.718   2.513 -0.3553  0.1305  0.0395
23893W        W40027  17.566   6.034   1.957  0.1855  0.0592  0.3013
23894W        W40028   6.572  10.358  15.471  0.1608 -0.1511  0.1398
23895W        W40029  13.234  14.386   1.870 -0.1870 -0.2939  0.0088
23896W        W40030  16.218   1.182   3.720  0.0022  0.1533 -0.0810
23897W        W40031   5.449   0.874  11.512  0.0109 -0.1719  0.3669
23898W        W40032   4.601  17.735  13.005  0.1234  0.1164 -0.2394
23899W        W40033   3.165  11.225  12.322 -0.0115 -0.1093 -0.2220
23900W        W40034   3.657  14.087   1.136 -0.0503  0.2017 -0.3428
23901W        W40035  11.509  13.385   4.260 -0.0874  0.1196 -0.2534
23902W        W40036   6.740  16.640   1.973 -0.0272  0.1964 -0.1803
23903W        W40037   7.284   8.159   4.159 -0.0015  0.1054  0.0410
23904W        W40038  16.903  17.027   4.663  0.2138 -0.0235  0.1968
23905W        W40039  10.854   5.580   0.428 -0.0971 -0.1062 -0.0275
23906W        W40040   3.634  14.977   2.703  0.2941  0.1452  0.2235
23907W        W40041  12.581   1.381   1.361 -0.0239  0.2695  0.1103
23908W        W40042   3.954   8.579   5.480 -0.0431  0.0905 -0.0789
23909W        W40043   0.169   5.466   0.383 -0.2119  0.1789 -0.0224
23910W        W40044   7.353   1.953  14.618  0.0254  0.0518 -0.2182
23911W        W40045  15.513   1.634   5.085 -0.0270 -0.2114  0.0385
23912W        W40046  17.249  11.966  12.371 -0.0144 -0.1596 -0.2167
23913W        W40047  17.004  14.617  12.899  0.2090  0.0627 -0.2717
23914W        W40048  12.910  11.021   0.825 -0.1563 -0.0447  0.1088
23915W        W40049   4.116   2.231   2.492  0.0197  0.2750 -0.1613
23916W        W40050   1.648  14.819  14.287 -0.1673 -0.0740 -0.0050
23917W        W40051   1.855   4.259   0.448  0.1549 -0.0912  0.0037
23918W        W40052  13.316   8.428   2.122  0.1857  0.0615 -0.4559
23919W        W40053   4.090  14.078   0.182 -0.1020  0.0734 -0.0497
23920W        W40054  12.757   0.201   1.190 -0.2761  0.1436  0.0280
23921W        W40055   8.507  16.833  15.388  0.0825  0.0089  0.0105
23922W        W40056   2.034  10.697   2.403  0.0397 -0.0374  0.1441
23923W        W40057  13.432   3.598  11.289  0.0544  0.0070  0.0842
23924W        W40058  12.472   0.115  15.339  0.0837  0.0274  0.1588
23925W        W40059  17.622   8.986   1.922 -0.1551 -0.5182 -0.0320
23926W        W40060  14.652   5.180   0.999 -0.3833  0.1050  0.1574
23927W        W40061  14.810   7.434   1.390 -0.1772  0.1900 -0.2271
23928W        W40062   2.717   0.016   1.860  0.3196 -0.2064 -0.0936
23929W        W40063  16.119   7.467   2.740 -0.1055 -0.2296  0.0114
23930W        W40064  10.982   0.289   4.949  0.3016  0.1379 -0.2046
23931W        W40065   6.859  11.686   5.666  0.0277  0.0999  0.0049
23932W        W40066   1.495   9.256   5.372  0.1886 -0.0181  0.2591
23933W        W40067   2.436   0.754  15.310  0.2469  0.0853  0.0038
23934W        W40068   2.348   9.740  11.816 -0.0932 -0.1035 -0.2161
23935W        W40069   9.709  16.734   0.704  0.0422  0.0338  0.0056
23936W        W40070   5.645  10.845  14.066  0.3607  0.0229 -0.1586
23937W        W40071   3.309   7.118  14.492  0.0717 -0.2246  0.2096
23938W        W40072  14.059  17.136   2.437  0.2353  0.1063 -0.2378
23939W        W40073   8.713  16.070   0.420  0.1933  0.0406  0.2218
23940W        W40074  11.931   7.150  11.804 -0.0219 -0.0900  0.0018
23941W        W40075   0.594  11.603   5.912 -0.0525  0.1924  0.2683
23942W        W40076  14.269  15.618   3.760 -0.0247  0.0529 -0.0052
23943W        W40077  16.470  17.726  15.815  0.3819 -0.0086  0.1795
23944W        W40078  11.849   4.540   3.149  0.1791 -0.2167  0.0884
23945W        W40079   3.944   9.434   5.136  0.0875 -0.0168  0.2048
23946W        W40080  14.871   9.337   3.905 -0.1630 -0.1547 -0.3342
23947W        W40081  10.040  11.422  15.259 -0.2442  0.1353 -0.2725
23948W        W40082  14.802  14.196   0.619  0.2351  0.4564 -0.2956
23949W        W40083   3.638   8.909   1.635 -0.1812  0.3447 -0.1353
23950W        W40084  16.221   0.371  14.833 -0.1563  0.2059  0.0251
23951W        W40085   9.093   5.920   4.650 -0.2790  0.0334  0.1101
23952W        W40086  10.030   9.107   5.495  0.0717 -0.4003 -0.2449
23953W        W40087  11.466   1.238   3.081  0.0837 -0.0862 -0.0533
23954W        W40088  17.237  13.734  15.216 -0.1653 -0.2172 -0.2298
23955W        W40089  11.886   4.388   4.148  0.2677  0.1547  0.1890
23956W        W40090  10.971   4.816  15.745 -0.0848  0.0118  0.1168
23957W        W40091  17.467   8.483  14.762 -0.3217 -0.2459  0.0156
23958W        W40092  17.059  11.359   1.271  0.1237 -0.0048  0.0362
23959W        W40093  16.619   9.843   1.944 -0.0015 -0.0395 -0.0546
23960W        W40094   8.490   2.057  14.612 -0.1373  0.0683 -0.0262
23961W        W40095   3.153  16.502  16.635 -0.0053 -0.2220 -0.1779
23962W        W40096  10.559  10.944  14.402 -0.0236  0.0212 -0.2916
23963W        W40097   2.527   0.161  11.395 -0.2490 -0.1316  0.2069
23964W        W40098  13.447  12.089   4.103  0.0674  0.2692  0.1499
23965W        W40099  17.556   7.002  15.040 -0.3559 -0.0843  0.5092
23966W        W40100   1.968  15.970  13.092 -0.2905  0.0633 -0.1951
23967W        W40101  17.053  15.785   0.303 -0.0713 -0.0671 -0.0937
23968W        W40102   2.747  10.774  15.553  0.0524  0.0190 -0.2290
23969W        W40103  15.911  12.529   0.765  0.1577 -0.1003 -0.0626
23970W        W40104   9.157  16.639  11.557 -0.1856  0.3838 -0.2547
23971W        W40105   1.187  12.616   2.491 -0.1129  0.3148 -0.0686
23972W        W40106   4.778   9.140   0.570  0.0076  0.0858  0.1260
23973W        W40107   1.087  12.117  14.657 -0.1502  0.0538  0.0080
23974W        W40108  16.140   1.486  15.359 -0.1476 -0.0689  0.2309
23975W        W40109   2.111   8.658   4.651 -0.1517  0.1570  0.1640
23976W        W40110  12.896  14.635   5.507  0.1707  0.0495  0.0053
23977W        W40111  13.234   6.054  15.844  0.1338 -0.0004 -0.1599
23978W        W40112   3.720   4.921  14.114 -0.0730  0.1986 -0.1666
23979W        W40113   0.520   4.293   0.170  0.1807  0.1307 -0.0581
23980W        W40114   2.927   2.769  14.692 -0.0713  0.0228  0.1104
23981W        W40115  11.215  10.766  12.560  0.2952 -0.3729  0.1218
23982W        W40116   0.660   2.160   6.152 -0.3336 -0.0119  0.1239
23983W        W40117  11.953  12.190   4.277  0.2521 -0.0935 -0.3217
23984W        W40118   9.304   9.375  12.756 -0.0444 -0.1002 -0.0248
23985W        W40119   9.259   9.084   3.304  0.2607 -0.2946 -0.0413
23986W        W40120   7.729   0.338   4.429  0.1334  0.1938 -0.1325
23987W        W40121   3.217  12.357   0.161 -0.1260  0.0290 -0.2679
23988W        W40122   0.924   3.901  11.900  0.1223  0.0060 -0.0940
23989W        W40123  10.834   0.123   3.828 -0.2634 -0.0769  0.1524
23990W        W40124  10.011   4.661   0.627 -0.0592  0.1320  0.4112
23991W        W40125  14.131  17.040  15.330  0.0033  0.0477  0.0762
23992W        W40126  12.330   8.884   4.820  0.0888 -0.2446 -0.1076
23993W        W40127  14.513  16.834   2.514  0.0049 -0.1875  0.1120
23994W        W40128  17.111  12.035   0.363  0.3723  0.0042  0.2733
23995W        W40129  12.270  16.507   2.954  0.0914 -0.1587  0.1702
23996W        W40130   8.868  13.765   1.852  0.3196  0.0945 -0.1170
23997W        W40131   4.090   9.531   4.115  0.0904 -0.0468  0.3974
23998W        W40132   8.083   9.501   2.062  0.0347 -0.1404  0.0637
23999W        W40133  13.164  17.470  16.692  0.0544 -0.2682  0.3445
24000W        W40134   8.577  12.512   2.584 -0.1541  0.0294 -0.1058
24001W        W40135   7.091   6.616   4.521  0.1530  0.3455 -0.1551
24002W        W40136  15.329   9.324   1.850  0.3279 -0.0083 -0.1020
24003W        W40137  14.260  16.764  13.794  0.1434  0.0083 -0.0588
24004W        W40138  11.901  14.258  14.099  0.3514  0.0435  0.2308
24005W        W40139   7.118  16.191   5.165  0.1616  0.2046 -0.0488
24006W        W40140   1.323   9.867   4.157 -0.1048 -0.0810  0.2419
24007W        W40141   4.947  10.559  14.793  0.1070 -0.0849 -0.2181
24008W        W40142  13.174   0.696   5.383  0.3649  0.1200 -0.5344
24009W        W40143  16.877   7.050   2.962  0.3343 -0.2204 -0.1199
24010W        W40144  16.001  13.101   3.124 -0.3170 -0.0743 -0.2332
24011W        W40145  11.972  12.918   1.400 -0.3334 -0.0706 -0.2244
24012W        W40146  13.102  11.978  15.275 -0.3269 -0.0000 -0.1411
24013W        W40147  15.789   1.652  15.690 -0.0755  0.3819  0.1037
24014W        W40148   2.730  12.859  13.057  0.1814  0.0507  0.2608
24015W        W40149   1.970  16.953   2.259  0.2162  0.1917  0.3657
24016W        W40150  10.907   2.218   6.039  0.0140  0.2184  0.0053
24017W        W40151  16.759   9.572   1.418  0.1467  0.1457  0.1794
24018W        W40152   7.041   8.165  14.806  0.1577  0.4017 -0.1333
24019W        W40153   1.127  11.435   5.772 -0.0318 -0.1543  0.1550
24020W        W40154  16.281   9.143  13.479  0.1255  0.0289 -0.2250
24021W        W40155   6.099   7.558  12.187  0.0437 -0.1591  0.1337
24022W        W40156   1.141  17.401  14.624 -0.3181 -0.0845 -0.0284
24023W        W40157   9.955   9.030   1.240 -0.2524  0.0023 -0.3530
24024W        W40158  11.547   4.972   5.789  0.1406 -0.1632  0.2585
24025W        W40159   3.047  16.863  11.524  0.0318 -0.1819 -0.1114
24026W        W40160  11.857   1.791   0.927  0.1323 -0.0485  0.1288
24027W        W40161   3.641  12.893  15.341  0.2838 -0.0470  0.0110
24028W        W40162   1.174  14.629   0.181 -0.0523 -0.1593  0.2749
24029W        W40163  12.791   5.986   3.940 -0.1744 -0.1797  0.0701
24030W        W40164   8.256  10.921   2.001 -0.0397  0.1674  0.1277
24031W        W40165   5.412   7.218   1.330 -0.1657  0.1056  0.1375
24032W        W40166   5.728  17.533   3.342 -0.3115  0.1651  0.2296
24033W        W40167  16.312   7.475  14.970 -0.1446  0.0209  0.0676
24034W        W40168  10.713   9.419  13.279  0.2798  0.1488  0.3016
24035W        W40169   1.013   5.251  13.696  0.0809  0.0561  0.1388
24036W        W40170  16.765  17.692   2.145  0.1561  0.2256 -0.0753
24037W        W40171   5.387   6.001  12.277 -0.1141  0.0636 -0.0484
24038W        W40172   3.909  16.152   0.549 -0.0565  0.2092  0.1352
24039W        W40173  13.659   2.216  13.373 -0.3198 -0.0990  0.1813
24040W        W40174  16.470   6.525   1.862 -0.4265 -0.0061 -0.1368
24041W        W40175   9.816   7.638   4.412 -0.4323  0.0022  0.1382
24042W        W40176   6.521   3.281   4.380 -0.0168 -0.4044 -0.0569
24043W        W40177  13.774  15.069  11.720 -0.0473 -0.2641 -0.0478
24044W        W40178  12.889   6.349   1.163  0.1425 -0.2003 -0.2086
24045W        W40179  13.907   8.806  15.434  0.0435  0.0051  0.1419
24046W        W40180   1.134  12.966   1.987 -0.1540 -0.0173 -0.1517
24047W        W40181  15.602  17.303  13.221  0.0640  0.3694 -0.0611
24048W        W40182   2.584   7.486  14.926  0.1306  0.0907 -0.3378
24049W        W40183   5.628  17.334  13.867 -0.1292 -0.3207 -0.0249
24050W        W40184  11.397   7.737  11.486 -0.0633 -0.1420  0.0506
24051W        W40185   4.957   3.789   1.705 -0.1569  0.3301  0.2397
24052W        W40186  16.986   3.487  14.567  0.0145  0.0412  0.0121
24053W        W40187   5.922   0.590   2.356 -0.2227  0.0526 -0.0376
24054W        W40188  13.641   3.378  12.456  0.0016 -0.2665  0.1096
24055W        W40189  12.140  15.267  14.702  0.2036  0.0008  0.1284
24056W        W40190  12.447   8.322  15.378 -0.1622  0.1774 -0.1790
24057W        W40191  13.871  14.123  13.221 -0.0742  0.0862  0.1794
24058W        W40192   4.669  13.087  15.684  0.1187 -0.1285 -0.0549
24059W        W40193  13.475   6.291   3.564 -0.3428 -0.3699  0.2310
24060W        W40194   5.602  16.002  14.337 -0.1190  0.1568 -0.1606
24061W        W40195   0.605  15.287  13.154 -0.1916  0.0814  0.0970
24062W        W40196   3.952   3.221  11.869  0.0385 -0.0587  0.2344
24063W        W40197   2.340   2.156  16.631 -0.0159  0.0091 -0.3852
24064W        W40198   5.662  14.825   2.793 -0.3769 -0.1889 -0.2232
24065W        W40199   5.694  16.238   1.683  0.2291  0.0085 -0.1497
24066W        W40200  17.023  15.801  12.286 -0.0758  0.0504 -0.1802
24067W        W40201  11.284  13.595   3.448 -0.0341  0.0187 -0.0786
24068W        W40202  13.436  11.482   1.579 -0.0096 -0.1888 -0.4495
24069W        W40203   4.531   6.495  14.148  0.2833  0.1150 -0.0917
24070W        W40204   2.301   9.201   3.100  0.0140 -0.1723 -0.0244
24071W        W40205  10.005   1.022   5.020 -0.1851  0.1935 -0.0480
24072W        W40206   8.687  17.145  11.402  0.0985 -0.0032 -0.0594
24073W        W40207   9.898  11.422   0.124 -0.0019  0.0361  0.1161
24074W        W40208  14.423  17.420  15.398  0.1097  0.0709 -0.0263
24075W        W40209  10.894   2.748   5.478  0.1619  0.1071  0.1711
24076W        W40210   7.016  10.620  15.482 -0.1999  0.2718  0.0513
24077W        W40211   1.436  11.878   3.200 -0.0370 -0.0634 -0.0298
24078W        W40212  16.418  17.241  13.277  0.0836 -0.0993 -0.1696
24079W        W40213  10.269   5.064   1.570 -0.0000 -0.1105 -0.0551
24080W        W40214   7.540   8.571  11.651  0.1783 -0.1343 -0.2154
24081W        W40215  16.983  10.359   5.288 -0.3235 -0.0604  0.2291
24082W        W40216  15.632  11.258  15.697  0.0886  0.0324  0.0015
24083W        W40217  13.766  10.822   4.893  0.0768  0.0210 -0.0151
24084W        W40218  13.338  16.030  15.704 -0.1525  0.0726 -0.2860
24085W        W40219  12.317  17.488  16.268  0.0927  0.0356  0.2544
24086W        W40220  14.068   7.107  11.268 -0.2720 -0.2521 -0.3389
24087W        W40221  13.830  15.528   3.478  0.0982 -0.0415  0.1583
24088W        W40222   5.425  10.626  14.466  0.1974  0.0652  0.0081
24089W        W40223  13.553   8.357   3.049 -0.0988 -0.1913 -0.0236
24090W        W40224   7.531  12.726  15.800  0.2287  0.0831  0.0812
24091W        W40225  10.508   6.599  12.753  0.1335 -0.2729  0.0458
24092W        W40226  13.948  11.693  15.739 -0.0328  0.1287 -0.1417
24093W        W40227   2.629  10.267   3.980  0.2380 -0.3264  0.3838
24094W        W40228  13.733   2.928   1.949  0.0201  0.3241  0.0325
24095W        W40229  13.372  14.959  12.991 -0.3110  0.0011 -0.0469
24096W        W40230   3.148  16.342   1.076  0.0821  0.1911  0.2241
24097W        W40231   9.031   5.751   1.410  0.0327 -0.0613  0.0499
24098W        W40232  17.116  16.268   0.164  0.0389 -0.1269  0.0116
24099W        W40233  15.517  10.178   1.891  0.1003 -0.0868  0.3006
24100W        W40234   0.667  17.003  14.421 -0.1327  0.1953  0.1825
24101W        W40235  12.227   9.141   5.651 -0.2963  0.0759 -0.2356
24102W        W40236  14.951   3.602  12.763 -0.1969 -0.1477 -0.0196
24103W        W40237   4.866  16.253  11.699  0.0514  0.0160  0.0367
24104W        W40238   4.857   1.367  16.573 -0.0803 -0.2303  0.2751
24105W        W40239   6.214  11.535   1.699  0.2240  0.1018 -0.2342
24106W        W40240   9.214  14.258   4.040  0.0511  0.0751 -0.2530
24107W        W40241  13.538  16.927   2.400  0.0030 -0.1648  0.1114
24108W        W40242   2.368   2.724  13.501  0.1954 -0.2763  0.0201
24109W        W40243   7.204   6.849  11.661 -0.1164  0.1541 -0.1190
24110W        W40244   9.106  13.465  14.591 -0.0994 -0.2743 -0.1664
24111W        W40245  17.613   8.766  12.821 -0.2565 -0.0774 -0.2682
24112W        W40246   9.443  10.030  12.166 -0.4789  0.0944  0.0267
24113W        W40247  16.192   9.597   3.169 -0.0189 -0.1356  0.1244
24114W        W40248   3.247   4.141   0.706  0.2177  0.0530 -0.0785
24115W        W40249   0.585   2.254  15.216 -0.0914  0.0048  0.0425
24116W        W40250   7.439   5.998   0.364  0.1124 -0.0829  0.1569
24117W        W40251   3.091   3.466   5.171  0.0204 -0.0279 -0.0814
24118W        W40252  15.931   3.941   0.523 -0.1087 -0.4197  0.3739
24119W        W40253   3.191  17.840   2.051 -0.0662  0.0546 -0.0075
24120W        W40254  10.401   4.667  13.664 -0.0254  0.0236 -0.2473
24121W        W40255   5.977   8.075  13.844 -0.0460 -0.3741 -0.0937
24122W        W40256  10.551  10.731   2.937  0.3628 -0.0365 -0.3181
24123W        W40257  11.499   2.592  15.056  0.0129  0.0663 -0.2073
24124W        W40258  11.445   2.944   1.562 -0.1972  0.0024  0.0838
24125W        W40259   8.707  12.453   5.472  0.2821 -0.1601  0.1248
24126W        W40260   4.841   8.542   6.133 -0.2406  0.2743  0.0137
24127W        W40261  13.643   8.428  12.725  0.1371 -0.0928  0.1534
24128W        W40262   7.235  10.742   3.135  0.1052  0.2015 -0.2163
24129W        W40263   8.277  15.750   5.004 -0.2586 -0.1566  0.1763
24130W        W40264   9.218   6.358   1.832 -0.1960  0.0823  0.1108
24131W        W40265   8.776  14.096  15.937  0.0582 -0.1331  0.0032
24132W        W40266  16.992  17.817   4.923 -0.1944  0.3681  0.1452
24133W        W40267   2.854   8.867   5.509 -0.0592  0.3962 -0.1147
24134W        W40268  17.979   6.784  14.838  0.0226  0.2052  0.0225
24135W        W40269  16.025   5.778  16.601 -0.2436 -0.3080 -0.0622
24136W        W40270   3.264  11.252  15.406  0.0040 -0.2179  0.1413
24137W        W40271   6.782   4.680  14.975  0.0658  0.1011 -0.2509
24138W        W40272   3.653  17.060   1.811  0.1444 -0.3406  0.0742
24139W        W40273   9.915   4.652  14.102  0.3188 -0.0654  0.1318
24140W        W40274   1.170  16.440  12.128 -0.3969  0.0840  0.1620
24141W        W40275   5.718   3.410   2.700 -0.0664  0.1947  0.4129
24142W        W40276   2.729   0.619  14.038  0.2470  0.2270  0.0618
24143W        W40277   3.862   8.714  15.487  0.0674 -0.0017 -0.1078
24144W        W40278   2.421   2.380  12.603  0.0678  0.1303  0.1013
24145W        W40279   6.248  14.398   2.167 -0.2039  0.1306  0.0863
24146W        W40280  11.030   5.029   6.533  0.1242  0.0194  0.0734
24147W        W40281   0.417  16.565  13.242 -0.1884 -0.1341  0.1679
24148W        W40282   9.841   4.532  13.463  0.2675  0.0874  0.0807
24149W        W40283   4.448  12.395  12.679 -0.0197 -0.0380 -0.0326
24150W        W40284   8.944  13.432  10.998 -0.2818  0.0640  0.0173
24151W        W40285  10.903   5.558  13.796 -0.0654 -0.2210 -0.0014
24152W        W40286  15.307   5.800  15.210 -0.1650 -0.0817 -0.2456
24153W        W40287   4.993  13.922  14.691  0.1350 -0.2026  0.4682
24154W        W40288   0.484  10.320   3.359 -0.2533 -0.0108  0.2433
24155W        W40289  13.998  16.378  14.548 -0.0280  0.0189  0.0103
24156W        W40290   6.513   8.047  13.910  0.0153  0.2435 -0.3945
24157W        W40291   2.619  11.439   0.958  0.0557 -0.0397 -0.1461
24158W        W40292   0.137   9.055  14.280 -0.0939  0.3292  0.1108
24159W        W40293  10.185   9.166  11.615 -0.2378  0.1154  0.1590
24160W        W40294   1.482  15.286  14.589  0.3464 -0.4003 -0.1081
24161W        W40295   6.135   4.862  15.143 -0.0743 -0.3127 -0.2604
24162W        W40296  16.709  15.733  14.491 -0.0850  0.0354  0.2789
24163W        W40297   4.167  13.179  12.649 -0.1051 -0.1091 -0.2709
24164W        W40298  14.925  16.958   3.514 -0.0076 -0.3244 -0.0650
24165W        W40299  14.275   5.411  15.735 -0.0069 -0.1860 -0.3271
24166W        W40300  16.473   1.306   1.293 -0.1731  0.1975 -0.0993
24167W        W40301   2.550   8.908   1.167 -0.0262  0.0666 -0.1534
24168W        W40302  11.876   9.919   4.395  0.0575 -0.1313  0.2412
24169W        W40303   0.749   6.509   1.021 -0.3848  0.3055  0.0140
24170W        W40304  13.505  13.898   4.268 -0.1001 -0.0262 -0.1931
24171W        W40305   3.430   9.560  16.691 -0.0169 -0.2801  0.0079
24172W        W40306  15.613   8.087  14.985 -0.1650 -0.1970  0.1789
24173W        W40307  10.993  10.863   4.232  0.0197 -0.1435  0.0257
24174W        W40308  15.223  11.174  14.045 -0.2319  0.1112 -0.0301
24175W        W40309   0.468  10.764   5.232  0.2122  0.1560  0.0725
24176W        W40310   8.986   4.981   4.524  0.0928 -0.1028  0.0606
24177W        W40311  10.374  11.267   2.063 -0.2218  0.1058 -0.3171
24178W        W40312  10.299   5.096  12.700 -0.1007  0.2793 -0.2159
24179W        W40313  15.131  12.996  14.930  0.0675  0.1755  0.1941
24180W        W40314   9.734   5.318  13.686  0.1772 -0.2196  0.2037
24181W        W40315  13.513   1.634   4.022 -0.1464 -0.1833  0.2266
24182W        W40316  11.900  17.093   1.313  0.0088  0.1650  0.0038
24183W        W40317   1.664   3.701  13.225 -0.1452 -0.3743 -0.0471
24184W        W40318   0.840   6.845  15.916 -0.2188 -0.1050  0.1191
24185W        W40319   3.282  13.335   2.020 -0.0193 -0.2785  0.1793
24186W        W40320   3.601   0.484  15.945 -0.1180 -0.0049 -0.0368
24187W        W40321   6.866  11.163  13.690  0.0159  0.0334  0.1352
24188W        W40322  11.729  17.590   3.987 -0.1018  0.4539  0.4264
24189W        W40323  15.817  13.518  14.563 -0.0510  0.3954  0.1194
24190W        W40324   0.425  12.612  15.921  0.0813  0.0879 -0.3084
24191W        W40325  17.675  15.978  16.465 -0.2087 -0.2344  0.2252
24192W        W40326  13.273   3.112   2.375 -0.0209 -0.2160 -0.0409
24193W        W40327  12.417   8.627  16.719 -0.0145 -0.0030 -0.1071
24194W        W40328   3.986   5.423  15.442  0.0278  0.3121 -0.3677
24195W        W40329   6.504  11.227  11.884 -0.3217 -0.1813 -0.0627
24196W        W40330   2.486  16.867   3.452 -0.3643  0.0580  0.0093
24197W        W40331   4.821   7.748  12.612  0.2154  0.1219  0.1608
24198W        W40332  15.665   1.181   0.742 -0.1226 -0.0349 -0.1853
24199W        W40333  17.306  17.174   2.641 -0.3054 -0.1567 -0.3751
24200W        W40334   9.514  12.918   4.092 -0.1000 -0.1097 -0.2065
24201W        W40335   2.461   8.181  15.895 -0.0117  0.0285  0.4491
24202W        W40336  17.211   5.936  15.717  0.2111  0.0178 -0.1798
24203W        W40337   3.009  10.506  12.770  0.1187  0.2169  0.1755
24204W        W40338  16.267  12.224   0.432  0.0897  0.0167  0.1948
24205W        W40339   5.328  12.468  11.299  0.0338  0.0944  0.6228
24206W        W40340  15.703   6.081  11.707  0.0629  0.3102  0.0469
24207W        W40341   2.386  15.175   1.325 -0.0188  0.1147 -0.1505
24208W        W40342  15.751   5.078  15.826 -0.1293 -0.0637 -0.2492
24209W        W40343  16.450   3.986   0.536 -0.1260  0.3281 -0.1474
24210W        W40344  12.402  11.055  12.509  0.0757 -0.2016  0.1854
24211W        W40345   1.880  13.896   1.035  0.0084  0.0168  0.2754
24212W        W40346   3.965  15.416  15.681  0.0241  0.1794  0.0272
24213W        W40347  11.786   1.930   5.943  0.2348 -0.0628  0.0302
24214W        W40348  17.613   6.216   2.424 -0.0454  0.0464 -0.0287
24215W        W40349  10.244  16.522  16.719  0.1918 -0.3148  0.0188
24216W        W40350   6.741   3.207  15.723  0.1536  0.0082 -0.0516
24217W        W40351  16.724  12.843   1.595 -0.2720 -0.1394  0.0265
24218W        W40352  14.150  13.898  14.362  0.0383  0.2355 -0.1950
24219W        W40353  15.685  14.890   3.355 -0.0948  0.2991 -0.3486
24220W        W40354  14.929  10.678   1.668 -0.0377 -0.0994  0.1794
24221W        W40355  13.093  17.848   4.488 -0.0742  0.0979 -0.1353
24222W        W40356   8.756  14.771  15.335 -0.2184 -0.0417 -0.1204
24223W        W40357   8.624   9.164  16.552 -0.3380 -0.2354 -0.2194
24224W        W40358   3.184   9.969  14.520 -0.3942 -0.0378 -0.1029
24225W        W40359   6.215  15.312   1.170 -0.2814 -0.3385  0.3303
24226W        W40360  14.868  14.416   5.527  0.1606  0.2756  0.0049
24227W        W40361   2.704   4.107   2.629  0.2694  0.0308 -0.0956
24228W        W40362   2.306   8.932   0.162 -0.0115 -0.2425 -0.0789
24229W        W40363   2.989   6.008   3.340 -0.0439 -0.0029  0.1230
24230W        W40364  12.951  12.004   4.510 -0.0107  0.1121 -0.1281
24231W        W40365  11.663   9.791  14.740  0.1685 -0.2003  0.4658
24232W        W40366  17.092   8.210  12.162  0.1427 -0.1409  0.0805
24233W        W40367  13.159   8.645  15.090 -0.0491 -0.2114  0.4114
24234W        W40368   5.724   7.346   4.187  0.3961  0.1473 -0.1780
24235W        W40369  14.095  13.344  15.210 -0.3833  0.1152  0.2988
24236W        W40370   2.454   0.233   5.424 -0.0722  0.3125 -0.6566
24237W        W40371  15.157  11.108   1.672  0.1229 -0.1938  0.1531
24238W        W40372  11.328   6.206  13.902 -0.3324 -0.2908  0.1479
24239W        W40373  11.077  13.907   1.334  0.2343 -0.3938  0.0351
24240W        W40374   2.473   4.454  14.406 -0.4291 -0.1556 -0.0271
24241W        W40375   0.083   1.243   2.939 -0.1602 -0.0390  0.1887
24242W        W40376  13.080   1.917  16.564 -0.0940  0.1483  0.1912
24243W        W40377   4.022  17.569  15.126 -0.1449 -0.1653  0.0980
24244W        W40378  15.427  16.420   5.919  0.2135  0.0209 -0.0410
24245W        W40379   2.390  17.173   3.823  0.3092 -0.0213 -0.0606
24246W        W40380   3.892   8.875   3.585 -0.2451 -0.0703  0.1446
24247W        W40381   4.929  17.092   1.840  0.1541 -0.2410  0.2520
24248W        W40382   6.568  12.455  14.290 -0.0982  0.3412 -0.1571
24249W        W40383  12.946  11.416   1.713  0.1009  0.0329  0.2130
24250W        W40384  10.460   8.221   3.930 -0.2051 -0.2497 -0.1318
24251W        W40385  13.506  10.925   2.509  0.0113  0.4437  0.1335
24252W        W40386  14.720  10.899   1.006  0.0898 -0.1734 -0.0552
24253W        W40387  14.877  16.930  14.129  0.2351 -0.1735 -0.2682
24254W        W40388   4.730  15.220   5.907  0.1140  0.4182 -0.4092
24255W        W40389   9.355  16.578  16.559  0.2498  0.0271  0.0538
24256W        W40390   5.998  15.399  12.797  0.2396 -0.2962 -0.0410
24257W        W40391   9.798  17.051  12.142  0.1256  0.0624 -0.0620
24258W        W40392   8.172  17.509  15.199  0.1339  0.1017  0.1292
24259W        W40393  12.008   3.199   2.902 -0.1916  0.1419 -0.0988
24260W        W40394  15.631   3.645   4.125  0.0728 -0.0106  0.2110
24261W        W40395   1.129  15.331  14.122 -0.0623 -0.2992 -0.2223
24262W        W40396  15.192   2.907  13.407  0.0735  0.0075  0.1550
24263W        W40397   3.924   5.094   3.869  0.1385 -0.1653 -0.0924
24264W        W40398   8.435  12.995  15.596 -0.2652  0.0443 -0.0683
24265W        W40399  14.817  16.008   2.950 -0.2416  0.0343 -0.1831
24266W        W40400   9.664   4.481   3.374  0.0216  0.1352  0.0509
24267W        W40401   9.863   6.604   5.371 -0.0580 -0.1149  0.1767
24268W        W40402  13.017   5.040   0.330 -0.0324 -0.0014  0.1917
24269W        W40403  11.793  10.165  15.068 -0.1100 -0.0128  0.2442
24270W        W40404   8.404   9.139  12.527  0.2021 -0.1682  0.0993
24271W        W40405  13.717  13.588  11.562 -0.2334 -0.0106 -0.0326
24272W        W40406  16.836  16.283  16.213  0.0103 -0.0805  0.4359
24273W        W40407   0.749  10.420   0.114 -0.1924  0.2235  0.1220
24274W        W40408   7.676   2.388   1.839  0.0911  0.2614  0.0280
24275W        W40409   6.154   8.556   2.109 -0.1713 -0.0197  0.1581
24276W        W40410  16.500   6.946   3.542 -0.2142 -0.0010 -0.0280
24277W        W40411   2.910   1.314   1.240  0.0109 -0.0585 -0.2560
24278W        W40412  10.995  14.427   2.324 -0.0739 -0.0392  0.0938
24279W        W40413  12.191  12.848   3.545 -0.1827  0.0682  0.0603
24280W        W40414  16.687  10.696  10.726 -0.0703 -0.0559  0.1127
24281W        W40415  16.175   8.228  15.978  0.1661 -0.0073  0.1341
24282W        W40416   1.621  15.859   2.105 -0.1136  0.0464 -0.0318
24283W        W40417   2.863   1.583   4.208 -0.0279 -0.2077 -0.0763
24284W        W40418   6.441  14.573   5.013 -0.1767 -0.2321 -0.0444
24285W        W40419  11.138  11.966   4.897 -0.0872  0.2007  0.0940
24286W        W40420   3.192   6.526   5.432 -0.1610  0.0369 -0.1495
24287W        W40421  10.617  17.900   4.718 -0.2921 -0.2176  0.2175
24288W        W40422  11.065  12.601  16.509  0.1074 -0.0420  0.0245
24289W        W40423   2.405   9.411  12.974 -0.1157 -0.1025  0.0576
24290W        W40424  13.479   5.861   0.577  0.0442 -0.0767  0.2041
24291W        W40425   5.800   3.390  15.699 -0.2437  0.3086 -0.3074
24292W        W40426  13.219   8.111   4.243  0.0897  0.1841 -0.0632
24293W        W40427  12.796  11.954  11.618  0.0404 -0.0164 -0.0452
24294W        W40428   0.790  15.492   1.874  0.0827  0.0583 -0.0420
24295W        W40429   8.387  13.905   2.530 -0.0804  0.3381 -0.2835
24296W        W40430  17.001   0.973   4.267 -0.6546 -0.0288 -0.2255
24297W        W40431  17.337  16.256  16.110  0.2798  0.2832 -0.1015
24298W        W40432   8.072   7.242  14.318 -0.0174 -0.0654  0.1311
24299W        W40433   9.133  17.956   2.818 -0.0155  0.0103  0.0689
24300W        W40434  11.960  16.151  14.836 -0.1428  0.0147 -0.1228
24301W        W40435   2.452  14.976   0.559  0.1848  0.0830 -0.2436
24302W        W40436   4.966   8.145  13.683 -0.2999 -0.0319 -0.0440
24303W        W40437   0.624  12.522   5.472  0.2013  0.1120  0.3834
24304W        W40438   6.853   7.456  11.461  0.0269  0.2099  0.4223
24305W        W40439   9.303   5.055   0.491 -0.1112  0.0027  0.2549
24306W        W40440   3.222   9.998  16.717 -0.1253 -0.2217  0.0549
24307W        W40441   3.234   6.317   4.409 -0.1151  0.1706 -0.1270
24308W        W40442   8.242  14.926   4.255 -0.1911  0.2640  0.3626
24309W        W40443   8.357  11.632  15.333 -0.2032 -0.2460 -0.1003
24310W        W40444   0.165   8.239  16.471  0.1130 -0.0337 -0.1051
24311W        W40445  16.894  13.975   4.863 -0.2182  0.0715 -0.0032
24312W        W40446  11.926  11.055  14.404  0.0222  0.0949 -0.0500
24313W        W40447  14.278   0.856  12.679  0.1512 -0.2055 -0.0880
24314W        W40448  12.119   1.467   1.203  0.1315 -0.1415 -0.2637
24315W        W40449   0.427  14.252  14.740 -0.0070  0.4157  0.0355
24316W        W40450   5.371   6.838   1.686  0.0866 -0.1809 -0.2237
24317W        W40451   2.151   2.948   2.413  0.1429 -0.1535  0.0419
24318W        W40452  12.501   1.944   4.978 -0.3463  0.1221  0.2220
24319W        W40453   1.132  16.766   4.210 -0.1686 -0.0832  0.1613
24320W        W40454  15.242   5.668  12.899  0.2996  0.0278  0.1288
24321W        W40455   5.867  11.903   3.361 -0.1496  0.0873  0.2099
24322W        W40456  10.593   2.488  14.912 -0.0268 -0.0012  0.1004
24323W        W40457  10.305  16.800   1.116 -0.0969  0.0755 -0.0413
24324W        W40458  14.950   3.981  14.340  0.0256  0.3431 -0.2706
24325W        W40459   4.974   6.626   0.927  0.3475 -0.3217  0.1507
24326W        W40460   3.504   2.787  16.437  0.2782 -0.2127  0.3868
24327W        W40461   5.802   3.994   0.000  0.0377  0.3307 -0.0596
24328W        W40462  11.472  15.693   1.824  0.2437 -0.1902  0.0036
24329W        W40463   4.357   5.473   1.788 -0.0944  0.0977  0.1075
24330W        W40464   0.105   0.467  11.370  0.0734  0.0494 -0.1611
24331W        W40465   3.023   0.005   2.607 -0.2243 -0.0031  0.2119
24332W        W40466  12.687  17.102   2.199 -0.2899  0.1260 -0.4011
24333W        W40467   3.003   5.535  11.754 -0.1537  0.2876  0.1505
24334W        W40468   8.566  11.546  12.650  0.0853 -0.3026 -0.2842
24335W        W40469   0.086   6.624   3.365  0.1688  0.1531  0.0355
24336W        W40470  15.050   5.351  11.736 -0.5282 -0.3098  0.0791
24337W        W40471   1.176   1.699  10.293 -0.6260  0.0921  0.0125
24338W        W40472   2.380   2.573   2.987  0.4124 -0.0531  0.3032
24339W        W40473  14.759   1.791  11.931 -0.0433 -0.1062 -0.1934
24340W        W40474  15.235   7.901   2.306  0.0096  0.1736  0.0288
24341W        W40475   4.957   0.870  16.452 -0.2207 -0.0727  0.0555
24342W        W40476  15.439   2.909   2.824  0.2335 -0.0393  0.1189
24343W        W40477  14.126   4.792   1.257  0.1476  0.3766  0.0784
24344W        W40478   3.219  16.357  16.151  0.0067  0.0470 -0.1312
24345W        W40479   8.200   0.170   2.342  0.0924  0.0161  0.0436
24346W        W40480  16.368  12.285   5.385  0.3134  0.2442  0.0705
24347W        W40481  10.670  14.194  15.555  0.0391 -0.0961 -0.0213
24348W        W40482  11.236  13.937   2.229 -0.1616 -0.1267  0.1805
24349W        W40483  16.748   6.638  16.053  0.0211  0.0058 -0.2402
24350W        W40484   8.022   1.824  13.357 -0.1217  0.0372 -0.2444
24351W        W40485  17.973   7.044   1.087  0.0892  0.3079 -0.2034
24352W        W40486  12.114  10.505   5.366  0.2719  0.0251 -0.0376
24353W        W40487   4.633  16.196   1.609 -0.2409 -0.0142  0.0534
24354W        W40488  13.811  15.628   3.964 -0.1165  0.0515 -0.1732
24355W        W40489  17.344  11.225   5.872 -0.2392 -0.1093 -0.0720
24356W        W40490   2.540   3.557   2.668  0.0647 -0.0568  0.1084
24357W        W40491   1.578   4.576  13.203 -0.2397 -0.0593 -0.0685
24358W        W40492  13.693  15.075  15.317  0.0172 -0.1307  0.0633
24359W        W40493   9.514   9.871  12.998 -0.1125 -0.0518  0.1969
24360W        W40494   8.418   5.604   0.484 -0.0818 -0.0018  0.2262
24361W        W40495   4.106   3.931  16.493  0.2543 -0.1593  0.1273
24362W        W40496  12.032   3.431  12.894  0.0122  0.1471 -0.2881
24363W        W40497   0.567   7.952  12.409  0.1106  0.0525  0.1395
24364W        W40498   3.667  12.035  14.905  0.0022  0.2832  0.2301
24365W        W40499  14.394  14.657   2.679 -0.1306 -0.2945  0.0639
24366W        W40500   3.527  11.066   4.198  0.3156 -0.4413  0.1051
24367W        W40501   1.572  11.377  12.665  0.1511  0.2053 -0.0237
24368W        W40502   7.787   8.442   1.548  0.0854 -0.2269  0.0399
24369W        W40503  10.456   1.582   0.159 -0.1866 -0.1665  0.0831
24370W        W40504   9.885   0.650  11.067 -0.2538 -0.0716 -0.0762
24371W        W40505   7.669   8.499   5.777 -0.2300  0.0862 -0.1502
24372W        W40506  12.111  17.443   4.307 -0.1065 -0.2258  0.2470
24373W        W40507   8.024   6.385   5.224 -0.1426  0.0807 -0.1445
24374W        W40508   7.923  15.258   4.876 -0.0948  0.0439 -0.0988
24375W        W40509  15.235   8.794  14.100 -0.0386  0.0423  0.0424
24376W        W40510  12.134   1.470   1.767  0.0736  0.3545  0.1020
24377W        W40511  13.514   6.484  13.438 -0.5590 -0.0587 -0.2319
24378W        W40512  16.488  11.736   4.051 -0.0104 -0.1151 -0.0212
24379W        W40513  16.575  10.858  11.769 -0.3794  0.4505  0.1131
24380W        W40514   1.410   4.814  16.050  0.1061  0.0812  0.0534
24381W        W40515   0.808  11.353  15.614  0.1956  0.1848  0.1095
24382W        W40516   2.362  12.989   2.159 -0.0316  0.0039 -0.4250
24383W        W40517  12.565  11.650  13.497  0.0750  0.1691  0.4022
24384W        W40518  12.060   1.962   0.090 -0.2341 -0.1649 -0.4578
24385W        W40519   9.083   4.929  16.343 -0.0351 -0.2609 -0.0362
24386W        W40520  17.713   1.176  15.808 -0.1197  0.2936 -0.0570
24387W        W40521   5.899   3.904   2.691 -0.1184 -0.1790 -0.0165
24388W        W40522  12.403  16.722   1.207 -0.2540 -0.4307 -0.1082
24389W        W40523   3.428   0.877  15.623 -0.0667 -0.0253  0.0225
24390W        W40524   0.221  14.770   1.436  0.3128  0.0700 -0.0578
24391W        W40525   9.587  14.297   2.244  0.0516 -0.3143 -0.1139
24392W        W40526  12.465  11.886  12.976  0.0772 -0.0553  0.1407
24393W        W40527  17.633  12.739  15.868  0.1544  0.2082  0.0316
24394W        W40528  11.135   4.008   0.046  0.0559  0.1116  0.0339
24395W        W40529   9.303  10.994  11.339  0.0650 -0.0597  0.1595
24396W        W40530  16.542  11.933  13.657  0.3136 -0.1083 -0.1632
24397W        W40531  16.839  17.796  15.063 -0.2554 -0.0262 -0.1741
24398W        W40532  16.712  16.567   4.480 -0.0611 -0.0350  0.0006
24399W        W40533  14.161  15.278   1.854  0.2589  0.2256  0.1937
24400W        W40534   7.306  14.869   4.975 -0.2920  0.0126 -0.0695
24401W        W40535  15.789  10.486  11.699  0.0341 -0.0181  0.0866
24402W        W40536   8.509   8.169   2.115 -0.2722  0.1183  0.1236
24403W        W40537  13.812   6.833  11.987  0.0235  0.2601  0.3541
24404W        W40538   8.072   0.571   4.118 -0.0106  0.3379 -0.1363
24405W        W40539   7.832  11.074  13.240 -0.1625 -0.1654  0.3328
24406W        W40540   0.569   4.860   3.471  0.1212  0.0994  0.1993
24407W        W40541   2.648  17.812  16.585  0.1840 -0.0051  0.0683
24408W        W40542  12.371   2.956   5.412  0.1168  0.1275 -0.0127
24409W        W40543   9.408  15.827   5.602 -0.0585 -0.1999  0.0558
24410W        W40544   3.243  13.082  15.632  0.2712 -0.1823 -0.1993
24411W        W40545   8.547   0.421  13.401 -0.1654 -0.0669 -0.1640
24412W        W40546   8.023  14.338  12.691  0.0281 -0.1668 -0.1260
24413W        W40547   6.949   1.908   4.002 -0.1076  0.0279  0.1934
24414W        W40548  11.014  17.578   2.415 -0.3636  0.0479  0.0965
24415W        W40549   6.815  12.806   6.013  0.2194 -0.2422 -0.1130
24416W        W40550   7.993  17.919  15.913  0.2377 -0.1167  0.2988
24417W        W40551  17.017   0.315  14.837 -0.2146  0.0638  0.0430
24418W        W40552  17.035   6.470  15.574 -0.0005  0.1365  0.0612
24419W        W40553  12.900   5.353   0.705 -0.0451  0.2421  0.1204
24420W        W40554  15.803  12.088   3.569 -0.3034  0.2118 -0.0741
24421W        W40555  13.190  12.606  15.427 -0.0745  0.1034  0.4215
24422W        W40556  17.141   1.664  14.305  0.0760 -0.0411  0.0325
24423W        W40557   8.735   1.437  13.214  0.3144  0.1760 -0.2224
24424W        W40558  13.985  10.838  11.466 -0.0493 -0.2008 -0.0592
24425W        W40559  11.918  17.121   0.214 -0.1791 -0.0696 -0.0854
24426W        W40560   0.793  14.604   4.979  0.0763 -0.0808 -0.0257
24427W        W40561  10.118  13.729   4.183  0.2011  0.1470 -0.0285
24428W        W40562   9.023  15.306  14.003 -0.0374 -0.4432  0.3235
24429W        W40563  11.818   7.524   2.227 -0.1530 -0.0486  0.0525
24430W        W40564   4.865   3.467  11.974  0.3146 -0.3287  0.2178
24431W        W40565   6.947  10.483  11.508 -0.0830 -0.1706  0.2956
24432W        W40566  11.903  14.294   1.428 -0.1089 -0.0002  0.0241
24433W        W40567   4.937  11.932  15.160  0.1555  0.0298 -0.0115
24434W        W40568   6.267   0.588  12.410  0.1847 -0.2370  0.3019
24435W        W40569   8.258  16.206   4.704 -0.0163 -0.0028 -0.2842
24436W        W40570  16.422  11.870  15.100  0.1255 -0.0138  0.0884
24437W        W40571   0.023  12.141   1.880 -0.0236  0.1345  0.1609
24438W        W40572  15.953   0.050  14.562  0.0585  0.0950  0.1340
24439W        W40573  17.252   3.745  14.917 -0.1049  0.2509  0.1475
24440W        W40574  16.071   2.141   0.285  0.0379  0.0501 -0.0202
24441W        W40575  11.421   3.001   0.541  0.2921 -0.0798 -0.0021
24442W        W40576   0.865  12.708   1.659  0.2269  0.2444  0.0921
24443W        W40577   5.078   8.986  12.615  0.1860  0.2534 -0.4387
24444W        W40578   3.872  10.405   4.670 -0.0104  0.2285  0.2265
24445W        W40579  14.745  16.705  12.291 -0.1602  0.2761  0.0769
24446W        W40580   0.220   0.547   3.737  0.1570  0.0627  0.0631
24447W        W40581  17.313   8.063  11.747 -0.2398 -0.2740 -0.0437
24448W        W40582   9.167   3.747  14.602  0.2115  0.3687 -0.2143
24449W        W40583  15.483  15.434  12.373 -0.0750  0.1565 -0.0357
24450W        W40584  13.482   8.154   2.580 -0.1827 -0.1455 -0.0236
24451W        W40585  11.666  10.181  16.102  0.0298  0.1027  0.0858
24452W        W40586  11.936   1.480  13.047  0.1547  0.0759  0.0307
24453W        W40587   2.966   6.482   1.987  0.1662  0.0809  0.1139
24454W        W40588   9.697  10.703   3.387  0.1944 -0.2007 -0.0786
24455W        W40589   3.255   9.628  12.494  0.2212  0.0005  0.0922
24456W        W40590  11.740   0.177   6.151 -0.1474 -0.0470 -0.0534
24457W        W40591  12.342  16.266   0.440  0.1816 -0.2577 -0.0589
24458W        W40592  11.595  17.939   1.067  0.1746  0.2526  0.0944
24459W        W40593   8.340   3.535  14.955 -0.1141 -0.0545  0.2100
24460W        W40594  10.144  16.412  12.540  0.2012  0.1744 -0.1111
24461W        W40595   4.305  11.276   0.704  0.0417 -0.3790 -0.0122
24462W        W40596  12.043   9.285  14.060  0.0120  0.0836 -0.0691
24463W        W40597  15.087   9.113  12.703  0.1213 -0.2482  0.2267
24464W        W40598  16.518   3.789  14.677 -0.0425 -0.2950 -0.1707
24465W        W40599  16.104   9.582  16.340  0.0387 -0.0248 -0.0372
24466W        W40600   2.470   0.729   3.887 -0.0450  0.1388  0.0932
24467W        W40601   7.241   7.795   5.610  0.2183 -0.4062 -0.3510
24468W        W40602   0.679  17.924   4.031 -0.0860 -0.0506 -0.1467
24469W        W40603   5.582  15.443  13.868 -0.1717  0.1036 -0.3669
24470W        W40604   6.609   2.674  14.712 -0.0788 -0.4782 -0.0739
24471W        W40605  15.056  16.574  14.858 -0.0384 -0.2382 -0.0453
24472W        W40606   5.254  11.976  16.408 -0.0011  0.1641 -0.2661
24473W        W40607  16.865   2.996   5.048  0.2890  0.0509 -0.1124
24474W        W40608  15.288   6.102  16.122  0.1669  0.0030 -0.0339
24475W        W40609   2.668   1.978  14.305  0.1012  0.0040  0.2413
24476W        W40610   5.734   5.114  15.448  0.1532  0.0381 -0.0666
24477W        W40611  13.736   9.278  15.841  0.0777 -0.0592 -0.1622
24478W        W40612  11.607   9.432   4.492 -0.1599 -0.0839  0.0766
24479W        W40613  16.974  15.437  11.894  0.1048 -0.1587  0.1020
24480W        W40614  10.350   9.795  13.253  0.2947  0.1669 -0.1415
24481W        W40615  16.665   5.632   4.096 -0.0591  0.1937 -0.1742
24482W        W40616   4.564   2.525  11.806 -0.1296 -0.1488  0.1582
24483W        W40617  15.939   5.063  16.294  0.1247 -0.1473  0.0531
24484W        W40618  12.498  17.013   5.163 -0.0669  0.2054 -0.4155
24485W        W40619   8.031   9.416  13.241  0.0119  0.2089 -0.0606
24486W        W40620   5.536  13.693   2.170 -0.1180  0.0420  0.2014
24487W        W40621   3.924   1.057  12.902  0.0958 -0.2239  0.1612
24488W        W40622   1.108   1.857  12.117  0.0434  0.1399 -0.4972
24489W        W40623  11.200  15.275   3.752  0.2185 -0.0727  0.0741
24490W        W40624  15.128  12.556   0.420 -0.1248  0.1899 -0.0869
24491W        W40625   6.657   5.104   1.112 -0.0481  0.0393  0.0460
24492W        W40626   3.760   8.371  12.602 -0.0930 -0.2133  0.0936
24493W        W40627   1.920  10.655   5.311 -0.0786  0.1308 -0.0707
24494W        W40628   9.856  11.503   5.433  0.0581 -0.0415 -0.0197
24495W        W40629   8.648   2.067   0.404  0.0042 -0.3454  0.2594
24496W        W40630  12.612  16.664  11.376  0.0570  0.0507  0.2386
24497W        W40631  16.270   0.452   4.784  0.0478 -0.0847  0.0098
24498W        W40632  14.583   0.172  15.456  0.3984  0.2380 -0.1290
24499W        W40633   8.828  13.363   5.104 -0.2737  0.2785 -0.1330
24500W        W40634   5.884  13.475  13.821 -0.0304 -0.2113 -0.0077
24501W        W40635   0.614  10.220   6.453 -0.1169 -0.2639  0.0402
24502W        W40636  12.349   4.772   2.023 -0.0910 -0.0774 -0.2388
24503W        W40637  11.346  13.212   3.810  0.0812  0.0857 -0.0867
24504W        W40638   1.786   7.651  12.831  0.0531 -0.1486  0.0804
24505W        W40639  11.140  15.423   0.000  0.1971  0.0079 -0.2458
24506W        W40640   6.196   4.127  13.199  0.0299 -0.0096  0.0774
24507W        W40641  15.711  14.665   2.870  0.0547 -0.3550  0.2592
24508W        W40642   3.620   6.643   5.669 -0.3626 -0.0278 -0.0210
24509W        W40643  11.904  17.273   3.604 -0.2336 -0.0342 -0.0163
24510W        W40644   4.186  16.695   4.223 -0.0848  0.2438 -0.0271
24511W        W40645   5.564  15.168  12.971  0.0637 -0.0698  0.0392
24512W        W40646   6.807  11.000   0.534 -0.1889  0.0220  0.0427
24513W        W40647   4.112  12.058  16.363  0.0685 -0.2769 -0.0432
24514W        W40648   0.766   1.386   0.186  0.0208  0.1739  0.0328
24515W        W40649   0.073   7.774   2.282 -0.5063  0.0976  0.2689
24516W        W40650  14.563   5.760   4.278 -0.0340 -0.2193 -0.0926
24517W        W40651  14.640   9.237  12.953 -0.0176 -0.1687 -0.1306
24518W        W40652   4.081   3.629   3.601  0.4219  0.4337  0.0453
24519W        W40653  12.993   5.035   4.027  0.2363 -0.2744  0.2344
24520W        W40654   7.574   6.566  12.101  0.0719  0.0218  0.1763
24521W        W40655  17.854   4.052  13.848 -0.2246  0.0195  0.1675
24522W        W40656   4.067   6.500   2.551  0.0862 -0.0296 -0.0371
24523W        W40657   1.400  13.052   2.424  0.0457  0.1898  0.2739
24524W        W40658   9.278   6.052   0.461  0.1400 -0.0828 -0.0647
24525W        W40659   5.725  12.789  13.279 -0.1306  0.1617 -0.0881
24526W        W40660   7.446  14.078   1.974  0.0649  0.0282 -0.0200
24527W        W40661  14.998   1.448   5.950  0.4514  0.1296  0.0127
24528W        W40662   4.886  11.219  13.480  0.0316 -0.1382 -0.2056
24529W        W40663  17.597  10.053  13.413 -0.2160  0.4034  0.0048
24530W        W40664  16.429  17.813   4.852 -0.0139  0.3890  0.3417
24531W        W40665   0.301  11.726   1.957  0.1471  0.0948 -0.0938
24532W        W40666  10.729   8.545   0.166 -0.1501  0.1611 -0.1244
24533W        W40667  12.106  12.984   2.330 -0.2003 -0.0200 -0.0389
24534W        W40668  11.192   3.464   5.392 -0.2175 -0.2926  0.0586
24535W        W40669   5.820   2.789  15.194  0.0739 -0.0209  0.0186
24536W        W40670   2.208  11.826   2.449 -0.3281  0.2749  0.1100
24537W        W40671  11.437  11.237  15.691 -0.1315 -0.2499  0.0791
24538W        W40672   3.703  16.720   4.176 -0.2960 -0.3343 -0.2893
24539W        W40673  13.319   8.281  12.347 -0.0854 -0.0119  0.2138
24540W        W40674   2.429   7.510  16.657  0.0686  0.0422  0.1901
24541W        W40675  11.508  14.406   2.213  0.1681  0.3907  0.0362
24542W        W40676   9.771  12.652  16.027  0.2544  0.0761 -0.3377
24543W        W40677  17.628  12.407  13.652 -0.0547  0.0431  0.4616
24544W        W40678  14.838  14.777  12.459 -0.0073  0.2266 -0.0780
24545W        W40679   4.710  12.803   0.481  0.2431 -0.1130 -0.2195
24546W        W40680   5.294  12.237   1.859 -0.2365  0.1438 -0.1089
24547W        W40681  17.263   7.908  15.087  0.0005  0.1134 -0.3788
24548W        W40682   6.202  17.536  14.104 -0.0687 -0.1403  0.2243
24549W        W40683   7.556  13.985  11.839  0.1129  0.0219  0.0175
24550W        W40684  14.859  13.833  13.123 -0.1776 -0.3398  0.1504
24551W        W40685  11.718   2.680  13.256  0.1255 -0.1825  0.1651
24552W        W40686  15.960   6.899   6.194 -0.2482 -0.0991 -0.2591
24553W        W40687   7.735   3.660  16.419 -0.0461  0.0663 -0.0003
24554W        W40688  10.898  12.957  11.417 -0.2256 -0.1032  0.4880
24555W        W40689   7.512   9.153  13.110  0.0792 -0.0398 -0.1630
24556W        W40690   1.956   4.429   1.544 -0.1825 -0.0543 -0.1861
24557W        W40691  11.573  15.708   5.081  0.1513 -0.0754  0.3593
24558W        W40692  17.615  11.490  14.655  0.1459  0.0968  0.1598
24559W        W40693  13.790  11.427   5.772 -0.0385 -0.1465 -0.1918
24560W        W40694   4.670  14.221  13.427 -0.3624 -0.1097  0.0764
24561W        W40695  14.660  10.553   5.400 -0.1493  0.0230 -0.2130
24562W        W40696   9.099  16.968  15.575 -0.0650  0.0958  0.3075
24563W        W40697  12.023   3.906   0.624  0.0538 -0.1549 -0.0410
24564W        W40698   8.122  15.912   3.130 -0.1008 -0.0042  0.0020
24565W        W40699   3.280  13.490  14.621 -0.1319 -0.0687 -0.0014
24566W        W40700   8.729   1.469  16.291 -0.1958 -0.0198 -0.3724
24567W        W40701   0.615  10.586   1.526 -0.0108 -0.3514 -0.0316
24568W        W40702   2.018  12.105  16.453  0.0981 -0.0532 -0.0313
24569W        W40703  13.722  17.023   4.368 -0.0011  0.0407  0.2307
24570W        W40704  17.363   0.588   3.978  0.0071 -0.0688  0.0520
24571W        W40705   6.209   8.737   1.237 -0.2122  0.3624 -0.2811
24572W        W40706   6.684   7.085   5.494  0.0459  0.0471  0.1323
24573W        W40707   1.122   1.087  14.145 -0.0461 -0.3302 -0.0997
24574W        W40708  17.750  14.301   5.159 -0.0494 -0.3170  0.0069
24575W        W40709   2.799  10.938   3.049  0.0342  0.1550 -0.0373
24576W        W40710   3.302  13.607  12.955  0.1504 -0.0209 -0.0103
24577W        W40711   6.358   7.011   3.066  0.3948  0.1611 -0.1554
24578W        W40712  12.443   2.346  14.121 -0.2694 -0.0892  0.1085
24579W        W40713   2.597   5.114  11.197 -0.1644 -0.1858  0.0378
24580W        W40714  15.760   9.922   4.783  0.0353  0.0814 -0.1267
24581W        W40715   7.297   9.917   3.743  0.3297  0.3956 -0.0417
24582W        W40716  12.918   4.246   1.755  0.1617 -0.0868  0.0522
24583W        W40717   4.307   6.769   0.863 -0.0550  0.0891 -0.1989
24584W        W40718   8.008   5.190  16.328  0.2676  0.1176  0.0113
24585W        W40719   5.396   1.846   5.524 -0.0273 -0.0050  0.0763
24586W        W40720  16.048  16.060   1.136 -0.0629  0.1804  0.2346
24587W        W40721   9.447   9.855   0.462  0.2726 -0.0951 -0.2183
24588W        W40722  12.366  13.777   2.006  0.3005  0.0243 -0.2223
24589W        W40723  15.326  16.430  12.723  0.0353 -0.1814 -0.0177
24590W        W40724   7.347   5.554  14.613  0.3094 -0.4854 -0.4829
24591W        W40725  17.286   6.789   2.677 -0.2992 -0.0565 -0.1413
24592W        W40726   4.825  17.188   0.642 -0.1293  0.0285  0.0509
24593W        W40727   6.780  15.057   2.394 -0.0373 -0.0019  0.2808
24594W        W40728   1.130  17.822  15.091 -0.0154  0.0169  0.1518
24595W        W40729   6.497   6.609   2.722 -0.0693 -0.1420 -0.5364
24596W        W40730   8.367   4.860  15.134 -0.0170 -0.2288  0.0517
24597W        W40731  11.741  17.068   2.752 -0.3563  0.1399  0.0824
24598W        W40732   4.439   0.506  14.407  0.1471  0.0501 -0.0377
24599W        W40733   5.102   3.548  14.027  0.1256  0.3694  0.0172
24600W        W40734   5.000  12.468  16.578 -0.0462 -0.2190  0.3741
24601W        W40735  14.704   3.225   0.546 -0.2393 -0.0206  0.0164
24602W        W40736   7.163   8.339   5.421  0.1561  0.2359 -0.0964
24603W        W40737   8.980  14.901  13.642  0.0897 -0.1771 -0.2883
24604W        W40738   9.930  10.103  11.754 -0.0091  0.1226 -0.2130
24605W        W40739   9.859   0.755  14.384  0.0857  0.0187 -0.3120
24606W        W40740  16.318   9.510   1.549 -0.1842  0.3027  0.0165
24607W        W40741   4.917   0.084  11.540  0.0584  0.0872 -0.1115
24608W        W40742   3.283   7.498   5.859  0.1674  0.1679  0.0591
24609W        W40743  14.268  10.936  16.120 -0.1275  0.0989  0.0246
24610W        W40744   8.314  11.964  14.369  0.1743 -0.0351  0.3482
24611W        W40745   4.458  12.233   0.663  0.1065 -0.2021 -0.3443
24612W        W40746   5.536  16.728   6.242 -0.3954  0.1892 -0.0384
24613W        W40747   5.417  15.861   5.623  0.0319  0.1424  0.2048
24614W        W40748   1.016   6.317   2.880 -0.3876 -0.0226 -0.2507
24615W        W40749  13.237   4.625   4.113  0.1026 -0.0505  0.1455
24616W        W40750   6.471   0.768  14.597  0.2406  0.1037  0.2744
24617W        W40751   9.739  13.245   0.402 -0.0058 -0.1224 -0.0298
24618W        W40752   6.879  16.114  15.327 -0.0736 -0.1018  0.0150
24619W        W40753   6.779  15.847  13.129  0.0159  0.0543 -0.1613
24620W        W40754   7.830   8.771  14.850  0.4047 -0.1204  0.0480
24621W        W40755  11.337   8.241  13.904  0.2354  0.1715 -0.0245
24622W        W40756  17.906   0.524   1.209 -0.0993  0.3144  0.1288
24623W        W40757   7.270  11.433   1.305 -0.2658 -0.0785  0.1215
24624W        W40758  12.518   3.873   5.137 -0.0193 -0.0670 -0.1609
24625W        W40759   9.567   4.904  14.500  0.0619  0.4068 -0.1483
24626W        W40760   3.952  17.775   2.816  0.0267 -0.0602  0.3267
24627W        W40761  16.172  15.743   4.530  0.0321  0.0545 -0.0764
24628W        W40762   8.402  12.233   3.646 -0.0534 -0.0106 -0.0480
24629W        W40763   8.503   3.666   2.656  0.0599  0.0679 -0.4177
24630W        W40764  12.345  10.082  13.563  0.0247  0.1751  0.3640
24631W        W40765   3.364   4.681   5.005  0.3472 -0.2217 -0.2207
24632W        W40766   3.650  13.434  11.151  0.2988 -0.0506  0.1261
24633W        W40767   3.019   1.448  11.762  0.0744 -0.0710  0.3544
24634W        W40768   6.844  12.842  11.993  0.2872  0.1269 -0.0031
24635W        W40769   9.603   6.456  12.150  0.1717 -0.3614  0.1839
24636W        W40770   5.977  10.686   3.572 -0.1659  0.1247  0.1075
24637W        W40771   7.289  14.812  12.909  0.0842 -0.0625 -0.1064
24638W        W40772  10.813   8.552   1.749 -0.0862  0.2069 -0.1139
24639W        W40773   5.136  11.097   5.659  0.1702 -0.1425  0.0246
24640W        W40774  11.377  17.478   3.433 -0.2331 -0.0211 -0.3097
24641W        W40775  14.814  17.452  13.695  0.2291  0.0331 -0.2848
24642W        W40776   4.435  10.711   1.554 -0.0511 -0.0138 -0.0051
24643W        W40777   0.888  14.786  12.045 -0.0042  0.3555 -0.0337
24644W        W40778   0.839  15.768  13.078 -0.0293 -0.1876  0.0537
24645W        W40779   8.429  15.163   0.287 -0.0837 -0.0283  0.0603
24646W        W40780   2.788  11.538  12.257 -0.0554  0.3595 -0.3654
24647W        W40781   0.287  17.400  14.238 -0.0027  0.0423 -0.1769
24648W        W40782   3.561   6.625   0.402 -0.2601  0.0988  0.1479
24649W        W40783  10.613   5.919  15.775 -0.2210  0.0740  0.1503
24650W        W40784   6.837   6.885   3.561  0.1051 -0.1979  0.1243
24651W        W40785   0.281   1.187  13.806  0.0488  0.1729 -0.2870
24652W        W40786   3.777   0.670   3.015 -0.1479  0.1930 -0.1001
24653W        W40787  12.329   2.249   5.319 -0.0708 -0.1464 -0.0387
24654W        W40788   9.692   4.882   0.273 -0.0113 -0.0047 -0.3748
24655W        W40789   2.352  12.664   0.354 -0.1925 -0.0412  0.0756
24656W        W40790   2.146  13.915   2.965  0.0244  0.1331 -0.1470
24657W        W40791   5.458   9.935   1.826 -0.0532  0.5222  0.0411
24658W        W40792   8.072   6.204  16.397 -0.0568 -0.0761  0.1762
24659W        W40793  13.678   4.248   0.664  0.1755 -0.3203 -0.6409
24660W        W40794  14.751  10.410  16.671 -0.0910  0.0456 -0.1770
24661W        W40795  13.717  13.927  13.969 -0.0583 -0.1884 -0.0578
24662W        W40796  14.168   5.260  13.558 -0.1977 -0.0266  0.0048
24663W        W40797   7.426   8.115   5.981 -0.5591  0.1206 -0.2067
24664W        W40798  17.354   7.733   2.601  0.3471 -0.2823 -0.2035
24665W        W40799  12.791   8.441   4.174 -0.0812  0.0097  0.0441
24666W        W40800  16.575   2.363  16.340 -0.0089 -0.2658 -0.1273
24667W        W40801   8.029  12.767  12.649  0.0434  0.1862 -0.2696
24668W        W40802   4.580   6.838  14.893  0.4179 -0.0368  0.0790
24669W        W40803   5.181   7.541   2.864 -0.0919  0.0565  0.1213
24670W        W40804  11.768   9.004   0.156 -0.0009 -0.0807 -0.0985
24671W        W40805   1.213  17.836  11.450 -0.1410  0.0207  0.1615
24672W        W40806  15.251   2.943  11.649  0.0638  0.1316 -0.0408
24673W        W40807   2.493   2.840  11.986 -0.1780 -0.0653 -0.0869
24674W        W40808  16.524  14.528  12.859 -0.2916  0.0192 -0.0100
24675W        W40809   5.989   0.546  15.479 -0.0128  0.0072  0.2929
24676W        W40810  16.351  12.400   0.924 -0.2568 -0.0791 -0.1497
24677W        W40811  13.626  14.398   3.355 -0.1077 -0.1173 -0.3679
24678W        W40812  11.466   3.935   1.970  0.0458  0.2127 -0.2005
24679W        W40813  11.493   3.734   1.473  0.1229 -0.0844 -0.1550
24680W        W40814  17.416  15.435  12.393 -0.1254 -0.0222 -0.2140
24681W        W40815   6.597   2.007  14.213 -0.0056 -0.1092  0.1735
24682W        W40816  11.263  15.670   3.417 -0.1752  0.1845  0.2715
24683W        W40817   5.899   0.528  16.015  0.1492  0.1732  0.0814
24684W        W40818   6.851   2.214  13.239 -0.0870  0.1367  0.0117
24685W        W40819  10.106   2.948   5.006  0.2114 -0.2353  0.0094
24686W        W40820  12.693   8.711  13.761 -0.3458  0.0419 -0.0852
24687W        W40821  17.646   1.514   0.145  0.0663 -0.0722 -0.1894
24688W        W40822   1.654   2.359   3.367 -0.3050 -0.1181  0.1034
24689W        W40823  13.778  10.590   1.058 -0.0113  0.0484 -0.3815
24690W        W40824   3.907   2.210   1.897  0.1108  0.1357 -0.1908
24691W        W40825  13.452  11.459   3.382  0.3018  0.1432  0.0921
24692W        W40826   6.457   2.089  16.406 -0.0612  0.0088 -0.0526
24693W        W40827   7.668   3.659   2.814 -0.0609 -0.1188  0.0283
24694W        W40828   7.887   6.211  12.061 -0.3142 -0.4199 -0.0628
24695W        W40829  13.364  16.788   5.451  0.1520 -0.2150  0.3699
24696W        W40830   4.815   5.083  15.598  0.0776  0.1261  0.0454
24697W        W40831  13.926  11.941  11.912  0.1872 -0.1027 -0.4206
24698W        W40832   5.302   3.413   3.051 -0.0799  0.0291 -0.2803
24699W        W40833   2.092   1.432  13.018  0.0972  0.0779  0.1417
24700W        W40834  11.405  11.574  11.340  0.1906 -0.0046  0.1839
24701W        W40835   6.906  12.112   2.157 -0.1480  0.3264 -0.0919
24702W        W40836   3.025   4.990   1.627  0.3570  0.0740  0.0144
24703W        W40837   9.056   7.144   3.829  0.1534  0.0469  0.0891
24704W        W40838  11.506  12.451  16.717 -0.1661  0.1293 -0.0436
24705W        W40839   4.555   7.854  16.277  0.1116 -0.3688  0.1701
24706W        W40840  14.618  12.091  13.557  0.0272  0.0230 -0.2445
24707W        W40841   7.769   4.366   2.202  0.1528 -0.1769  0.1682
24708W        W40842   6.470   1.790  14.676 -0.1548  0.0036  0.3469
24709W        W40843  17.338  10.522   4.213 -0.1513 -0.0149  0.0563
24710W        W40844   3.873   3.149   3.599  0.0110 -0.0059 -0.0775
24711W        W40845   3.709  15.598  16.504 -0.0634  0.0115 -0.0632
24712W        W40846   3.297   3.299   3.060 -0.0423 -0.2768  0.0447
24713W        W40847  10.802   8.270  15.003 -0.0484 -0.1139  0.2160
24714W        W40848   3.382  15.832   2.017  0.0513  0.1427  0.0312
24715W        W40849   9.715  13.414   1.491 -0.3339 -0.0264 -0.2207
24716W        W40850  15.818   7.484   3.983 -0.1397 -0.1045  0.0206
24717W        W40851   3.737   4.329   1.571 -0.3518  0.0615 -0.3804
24718W        W40852  14.060   4.021  16.345  0.1166 -0.0691  0.1513
24719W        W40853   1.595   8.301  14.771 -0.0186 -0.0813  0.0034
24720W        W40854   7.842   2.679   2.554 -0.0215  0.2259 -0.0070
24721W        W40855   8.723  11.653  11.206  0.1794  0.2449  0.4250
24722W        W40856  17.563  11.802   4.818 -0.1707  0.0420 -0.0451
24723W        W40857   0.418  15.744   0.826 -0.0304 -0.0944  0.0243
24724W        W40858   0.565  15.471   5.446  0.1650  0.0314  0.0934
24725W        W40859  17.144  16.826   0.336 -0.1008  0.0530  0.0324
24726W        W40860   8.919  17.015   4.372 -0.0285  0.0596  0.2225
24727W        W40861  13.654   9.715  15.544 -0.0111  0.0839 -0.0320
24728W        W40862  13.158  15.975   1.034 -0.3949 -0.2320 -0.3412
24729W        W40863  10.204   8.044   0.631 -0.1227 -0.1946  0.0285
24730W        W40864   9.254   8.697   3.631 -0.0840  0.2323  0.1079
24731W        W40865  15.997   2.940  16.559  0.0244  0.3497 -0.1155
24732W        W40866   2.578   7.392  13.931 -0.1222  0.1084 -0.0490
24733W        W40867   7.413   4.524  11.778  0.0239 -0.1138  0.0009
24734W        W40868  14.328  15.861   0.052 -0.0560  0.0354 -0.2072
24735W        W40869  14.037  17.825  11.704  0.0907  0.0702 -0.0341
24736W        W40870   6.603   7.238  15.763  0.1648 -0.3873  0.0934
24737W        W40871   5.302  17.156  13.520 -0.0032  0.0197 -0.2098
24738W        W40872   7.733   5.083   3.036 -0.3412  0.1950 -0.2456
24739W        W40873   5.564   0.953   3.929 -0.2365 -0.1214 -0.0404
24740W        W40874  11.719   6.854  13.113 -0.1562  0.2461  0.1740
24741W        W40875  13.842  10.128  15.827 -0.0560  0.1684  0.0603
24742W        W40876  16.707  10.232  14.640  0.1790  0.1788  0.1142
24743W        W40877   8.240  13.524   3.942  0.0983 -0.1970  0.1519
24744W        W40878   3.867  11.005   2.897 -0.1596  0.0358 -0.0341
24745W        W40879  10.964  15.725   1.469  0.2589  0.0428  0.2384
24746W        W40880  17.317  17.631  15.314 -0.0672 -0.0925 -0.2459
24747W        W40881  13.180   0.307   3.635 -0.0739  0.1436  0.2726
24748W        W40882  15.520   9.194  15.655  0.0694 -0.4670  0.1368
24749W        W40883  12.030  16.652  12.690 -0.1380 -0.0445  0.1192
24750W        W40884  12.839   4.872  12.020 -0.1202 -0.3181 -0.0086
24751W        W40885   2.918   7.475   2.249 -0.1072 -0.2007 -0.2611
24752W        W40886  11.706  13.452   2.652  0.1176 -0.4594  0.2039
24753W        W40887   7.053  15.919   1.210  0.0932 -0.1484 -0.0856
24754W        W40888   5.754  14.702  13.978 -0.1210  0.0667  0.2663
24755W        W40889   8.287   2.930  14.863 -0.3435  0.2393  0.0934
24756W        W40890   3.131  15.761  15.070  0.1311 -0.3196  0.2624
24757W        W40891   7.330   4.974   4.470 -0.3888 -0.1091  0.0903
24758W        W40892  12.339  17.425   5.438 -0.0953  0.1527 -0.0339
24759W        W40893   5.738   0.899  14.191  0.2004  0.3785  0.0461
24760W        W40894  17.628  11.074   2.829 -0.1660  0.0876  0.0604
24761W        W40895  12.231   5.001  16.168 -0.1657 -0.0127 -0.2461
24762W        W40896   8.629   7.001   5.735 -0.0789 -0.0193  0.0306
24763W        W40897   8.151   2.813  16.714  0.2546 -0.0490 -0.3603
24764W        W40898  11.405  12.793  13.509  0.2993 -0.1506 -0.2027
24765W        W40899  16.748  17.252  15.931  0.0863 -0.1025 -0.2687
24766W        W40900   5.656   2.766  12.074  0.4845  0.2429 -0.1224
24767W        W40901  15.789  17.911   5.582 -0.1199  0.0861  0.3168
24768W        W40902  15.618  16.293   1.929  0.0906  0.3706  0.1575
24769W        W40903  17.555   8.065  12.242 -0.0800 -0.0075 -0.2887
24770W        W40904  12.642  14.229   2.969  0.1909  0.2141 -0.2547
24771W        W40905   8.435  13.107   3.200 -0.2166  0.1758  0.0222
24772W        W40906   0.150  11.752  11.682  0.0161 -0.3312  0.2345
24773W        W40907   0.263   1.944   0.911 -0.0568  0.2641  0.0847
24774W        W40908   3.894   6.733  11.298  0.1327 -0.1151 -0.0592
24775W        W40909  11.225   5.915   0.382 -0.0321  0.0967  0.0655
24776W        W40910  16.799  16.436  13.125 -0.0586  0.2370  0.2540
24777W        W40911   7.595   4.207  14.904  0.2701  0.0080 -0.2908
24778W        W40912  10.952   5.766   4.968  0.0771  0.0272  0.0965
24779W        W40913   8.418   8.124   5.177 -0.2376  0.1429  0.0025
24780W        W40914   3.180   9.153  13.085 -0.1580 -0.0340  0.1450
24781W        W40915  13.835   5.255   4.091  0.1380 -0.2577  0.1188
24782W        W40916   2.862   4.265   0.313 -0.1206  0.0332  0.1714
24783W        W40917  11.132  10.522   4.562  0.0783  0.2839  0.3282
24784W        W40918   9.900  11.157   3.448  0.3254 -0.0886 -0.1039
24785W        W40919   5.667   6.360  15.603 -0.0160 -0.0772  0.0460
24786W        W40920  16.991   5.704   0.816  0.0264  0.1721  0.2686
24787W        W40921   2.446   7.906   1.734  0.3990 -0.0395  0.4021
24788W        W40922   7.602   0.661  12.510  0.0062  0.1676  0.3933
24789W        W40923   9.780   4.643   4.840  0.3901 -0.1011 -0.3250
24790W        W40924   0.431   8.905   3.015  0.1728  0.0712  0.1683
24791W        W40925  10.323  12.498  13.632 -0.0728 -0.3299 -0.2572
24792W        W40926  11.260   7.614  14.311  0.1568 -0.2198 -0.0956
24793W        W40927  17.356   8.389  15.282 -0.0422  0.1199 -0.1287
24794W        W40928  16.867   0.608   0.469 -0.1447  0.1684  0.0553
24795W        W40929  13.356   8.959   2.111  0.0306  0.2445 -0.2291
24796W        W40930   2.655   3.544   1.121 -0.2918  0.1461  0.1611
24797W        W40931   2.179  14.822   0.965  0.3107  0.1018  0.0089
24798W        W40932  17.631  12.198  14.905 -0.3070  0.2082 -0.0987
24799W        W40933  13.794   8.182   1.038 -0.0343 -0.1218 -0.4563
24800W        W40934  16.592   1.696  14.163 -0.1502 -0.1363 -0.2645
24801W        W40935  10.444   9.057  11.993  0.0312 -0.1792 -0.5037
24802W        W40936  10.753   6.056  16.280 -0.2460 -0.1971 -0.1251
24803W        W40937  11.570   2.828   4.335 -0.0876 -0.2928 -0.1973
24804W        W40938  10.802   2.514   5.040  0.2580  0.1335  0.3821
24805W        W40939   2.544  14.701  14.035 -0.1275  0.1416 -0.3020
24806W        W40940   0.571   0.547  12.448  0.2829  0.0411 -0.2119
24807W        W40941  10.263   7.575   3.657 -0.0474  0.1009 -0.0836
24808W        W40942  16.405  14.852  16.363  0.1930 -0.2295  0.2217
24809W        W40943  10.526   9.480  11.770 -0.4639 -0.3291 -0.3389
24810W        W40944   7.632   2.722   3.822 -0.1208 -0.0872  0.3178
24811W        W40945  17.679   4.670  15.750 -0.1078 -0.0060  0.0086
24812W        W40946   5.692   8.105   4.093  0.2525  0.1485  0.2738
24813W        W40947   9.431  10.893  15.514  0.0376 -0.0847 -0.1429
24814W        W40948   4.688   6.929   3.444 -0.1599  0.0593 -0.0170
24815W        W40949  11.786  11.979  12.665 -0.0812  0.1233 -0.1331
24816W        W40950   5.049   0.001  14.133 -0.1919 -0.2100 -0.0592
24817W        W40951  17.416   8.661   3.896  0.0940 -0.0831  0.0542
24818W        W40952  12.958   0.843   4.339 -0.2986  0.0512 -0.0714
24819W        W40953   3.623   5.093   0.191 -0.1059  0.1571 -0.1039
24820W        W40954   2.570  12.946  14.411 -0.0636 -0.0888 -0.2718
24821W        W40955  12.488   8.692   5.700 -0.3806 -0.0408 -0.0872
24822W        W40956   7.245   4.100   4.216 -0.0494 -0.2027 -0.0114
24823W        W40957   8.791  14.591   3.150  0.2209 -0.1081 -0.1421
24824W        W40958   2.897  11.537  16.273 -0.1391  0.2696 -0.0512
24825W        W40959  16.921  11.154  13.931 -0.1936 -0.1673  0.0838
24826W        W40960   3.478   1.701  12.558 -0.2534 -0.0802 -0.0287
24827W        W40961  10.996   5.198  12.107  0.0719  0.0350  0.1872
24828W        W40962  17.242  10.076   4.104  0.1354 -0.3421 -0.0047
24829W        W40963  15.871   7.372   5.462  0.1732  0.1437  0.2308
24830W        W40964  11.513   3.704  16.528 -0.1041 -0.0507  0.1162
24831W        W40965  16.759  13.194   5.052  0.0796 -0.2047 -0.1816
24832W        W40966   9.573   8.205   1.424  0.0759  0.0724 -0.3236
24833W        W40967   1.737   4.544   3.731 -0.2378 -0.0247 -0.0824
24834W        W40968   6.127  15.477  13.670  0.1682  0.0662 -0.0508
24835W        W40969  11.159  11.730   1.436  0.0705 -0.2990  0.3327
24836W        W40970   3.099   8.204   3.209  0.3018 -0.1225 -0.0919
24837W        W40971  15.325   9.833   1.548 -0.1402  0.3875 -0.0594
24838W        W40972   0.936   2.420  11.092 -0.0812  0.4338  0.1008
24839W        W40973  17.549   3.824  13.500  0.0541 -0.2184 -0.0977
24840W        W40974  11.414   7.969  13.104 -0.1955 -0.1634  0.1684
24841W        W40975   2.132  15.817  15.389 -0.1331  0.0488 -0.1058
24842W        W40976   8.503  11.225  15.550  0.0309  0.0204  0.2447
24843W        W40977   3.548  11.816  11.510 -0.0993 -0.1288 -0.1122
24844W        W40978   5.285   1.280   4.188  0.0967 -0.3096  0.2782
24845W        W40979   3.804   4.446   5.215 -0.0952 -0.1844 -0.1676
24846W        W40980  14.025  16.552  12.821 -0.1461  0.0858 -0.0685
24847W        W40981   7.576  11.542   4.412  0.0148 -0.1549 -0.0578
24848W        W40982   2.509  13.687  14.903  0.1642  0.2048  0.2273
24849W        W40983   8.317   5.685  15.458  0.0072 -0.0871 -0.0938
24850W        W40984   5.163  14.612   5.241  0.0173  0.1542  0.0498
24851W        W40985  16.321   6.484   4.631 -0.0889 -0.4521 -0.2058
24852W        W40986   3.828  11.228   5.555  0.0715  0.3387  0.2313
24853W        W40987  10.852   8.272   3.348  0.0418  0.0562 -0.2503
24854W        W40988  15.409  15.631  14.949 -0.2906  0.0668  0.3243
24855W        W40989   8.067  13.121  14.352  0.2657 -0.2405 -0.3246
24856W        W40990   4.444  14.496   1.448  0.2868 -0.0520 -0.0932
24857W        W40991  11.738  11.488   4.041 -0.0289 -0.1968 -0.0740
24858W        W40992   1.286   8.146  16.466  0.2353 -0.0717  0.2881
24859W        W40993   8.390   3.775  12.837 -0.3430  0.0548  0.0653
24860W        W40994   2.528  16.918   0.496 -0.0142  0.0676 -0.0003
24861W        W40995   3.227   0.558   0.592 -0.1202  0.0395  0.0117
24862W        W40996  17.745  15.202  14.679 -0.0315 -0.2270 -0.0901
24863W        W40997  14.174   2.019   3.944 -0.0419 -0.2299  0.1757
24864W        W40998  13.890   6.076   4.448  0.0326 -0.2666 -0.0393
24865W        W40999   8.034   3.064   2.115 -0.1087  0.3157  0.0523
24866W        W41000   3.682  15.727  13.516 -0.0409  0.4369 -0.0984
24867W        W41001  10.939  14.788   3.195 -0.0329  0.2476  0.3559
24868W        W41002   9.756   5.763  16.618 -0.3575  0.2901 -0.0150
24869W        W41003  17.190   0.132   3.714  0.1208  0.0951  0.2696
24870W        W41004   9.175   0.302   4.272 -0.5471 -0.0174  0.1071
24871W        W41005  12.588   1.450   4.152  0.1597  0.3423  0.1768
24872W        W41006  11.858   2.887  13.716 -0.1373 -0.1367  0.0402
24873W        W41007  16.150   4.216   4.685  0.2257  0.0961 -0.1419
24874W        W41008  16.618   5.633  15.551 -0.0268  0.3377 -0.2373
24875W        W41009   6.804  13.491  11.357  0.1184  0.0610  0.1337
24876W        W41010  15.261   4.686  12.944 -0.0481  0.1366 -0.0048
24877W        W41011   1.167  13.833  16.620 -0.2860  0.2529  0.0007
24878W        W41012  17.518  13.190  16.021  0.3350 -0.2537  0.1291
24879W        W41013   4.882  12.180  12.935  0.1470 -0.2824 -0.2044
24880W        W41014   7.003  14.849   1.555  0.0332 -0.0546 -0.2285
24881W        W41015   8.121   8.422  13.179 -0.0995 -0.0064 -0.0037
24882W        W41016   0.736  10.448   5.614 -0.0835 -0.0804  0.1253
24883W        W41017  16.850  11.908   1.136 -0.0262  0.1713 -0.0699
24884W        W41018  16.566   7.908   4.961 -0.3248  0.1407 -0.0489
24885W        W41019   3.569  15.941   3.604 -0.2992  0.1877 -0.2302
24886W        W41020  16.949  11.970  15.893  0.0468  0.1147 -0.1106
24887W        W41021   2.867  15.519   2.641  0.1982 -0.0841 -0.3332
24888W        W41022   1.960   6.742   2.067 -0.1601 -0.0911  0.0616
24889W        W41023   0.162   1.987   1.794  0.1429  0.1017  0.0499
24890W        W41024   6.357   7.034  11.530  0.1148 -0.0204 -0.0961
24891W        W41025  13.517   1.471  13.196 -0.2064  0.0050 -0.1702
24892W        W41026   4.969   4.968  15.140 -0.0507  0.0628  0.1763
24893W        W41027  15.942   6.416  12.665 -0.0268 -0.2677 -0.0486
24894W        W41028   9.118   7.988  10.263 -0.0150  0.2744  0.0651
24895W        W41029   2.878   1.060   3.914 -0.1868 -0.0058 -0.1806
24896W        W41030   7.004   4.272   3.675  0.1980  0.0643 -0.1483
24897W        W41031   0.817   7.720   5.642  0.3215 -0.0277  0.2230
24898W        W41032   7.632   0.346   2.332  0.2555 -0.0864 -0.3253
24899W        W41033   9.375  11.874  12.374  0.1205  0.0047 -0.0894
24900W        W41034   8.494   0.408   0.685 -0.0276  0.0897  0.4261
24901W        W41035  12.176   3.148  16.381  0.1771  0.1298 -0.4087
24902W        W41036   9.458  14.548   4.769  0.0880 -0.0005  0.4521
24903W        W41037   4.461   8.521  13.094  0.0040  0.0744 -0.2216
24904W        W41038  16.691   6.323   5.949  0.0590  0.5599  0.5209
24905W        W41039   9.036  13.684  16.199 -0.1132  0.0873  0.0275
24906W        W41040  16.508   5.794  16.626  0.1786  0.2041 -0.1051
24907W        W41041   2.200   2.130  13.659 -0.0032 -0.2494 -0.0277
24908W        W41042   2.291   6.017   0.889 -0.0686  0.0485 -0.1862
24909W        W41043  10.690  13.339  13.876  0.0081  0.0315  0.0779
24910W        W41044  11.530   7.009   3.578 -0.0672 -0.2768 -0.0424
24911W        W41045  14.886  14.523   2.699  0.2373  0.0574 -0.2937
24912W        W41046  14.333  14.656  13.708  0.0538  0.2163 -0.2048
24913W        W41047   8.431   4.999  12.740 -0.0367  0.0059 -0.0384
24914W        W41048   8.363   5.533  12.898  0.2066  0.2936 -0.2653
24915W        W41049  15.531   5.213  15.315  0.0951  0.1028  0.0299
24916W        W41050  17.639   4.723   0.163 -0.3037 -0.1726 -0.1691
24917W        W41051  17.551   4.294  16.593 -0.2756  0.0855  0.1888
24918W        W41052  15.670   6.706   1.676 -0.4271 -0.2258 -0.0666
24919W        W41053   6.527  15.629   2.827  0.1731  0.1680 -0.1539
24920W        W41054   3.731   8.185   5.212  0.0313  0.0170 -0.2915
24921W        W41055   9.536  10.632   2.077  0.0922  0.1556  0.2678
24922W        W41056  11.098   2.563  13.990  0.2433  0.0943  0.1243
24923W        W41057  11.487  10.873   1.564  0.2122 -0.2241  0.2448
24924W        W41058   0.817  14.609   1.035 -0.0906  0.0862  0.3361
24925W        W41059   6.867   7.352   5.122  0.2124 -0.3626 -0.1554
24926W        W41060   9.601   2.091   2.182 -0.0400  0.0947 -0.0484
24927W        W41061  15.358   0.759   0.629  0.2438  0.1412  0.0844
24928W        W41062  16.776   7.035  13.564 -0.0782  0.2273 -0.1224
24929W        W41063  16.679  10.222  12.569 -0.0934  0.4072  0.1346
24930W        W41064   7.077  11.263   4.395  0.0549 -0.1478 -0.2662
24931W        W41065   9.290  13.524  12.552 -0.1564  0.0381 -0.1438
24932W        W41066   4.758  16.849   3.361 -0.0244 -0.0873  0.3629
24933W        W41067  15.627   8.974   3.692 -0.5147 -0.1849 -0.0062
24934W        W41068   2.973  15.917   5.700 -0.1871  0.0279  0.0632
24935W        W41069  15.166  11.766   5.929  0.2007  0.2880 -0.2639
24936W        W41070   8.816   2.716   5.836  0.0830 -0.0596  0.0970
24937W        W41071  15.544  16.160  16.545  0.2773 -0.3007 -0.2400
24938W        W41072  17.144  14.040   3.415 -0.0148  0.0283  0.0220
24939W        W41073   7.129  15.262  12.124  0.0433  0.1163 -0.2956
24940W        W41074   3.963  14.947  11.951 -0.2194 -0.1993  0.1374
24941W        W41075   7.040   5.046   1.835  0.3690  0.2294 -0.1027
24942W        W41076   8.289  15.729   4.173 -0.0922 -0.0965  0.0009
24943W        W41077   2.987  12.647  11.450 -0.0110 -0.1016 -0.0952
24944W        W41078   3.238   3.070   4.067  0.0943  0.0312 -0.2243
24945W        W41079  10.373   4.613  14.913  0.1243  0.1331 -0.2531
24946W        W41080  16.765  15.154   4.462 -0.0955  0.0058 -0.2446
24947W        W41081   3.283  13.212  15.072 -0.2355  0.1151 -0.3432
24948W        W41082   5.703  11.431   3.411  0.1325  0.4799  0.1780
24949W        W41083   1.590  13.821   5.273  0.3127  0.1266  0.3540
24950W        W41084  11.328  13.794   1.736 -0.3857  0.2946 -0.0954
24951W        W41085  17.411   5.555  14.198 -0.0420 -0.2145  0.0307
24952W        W41086   4.125  14.348   1.052  0.0469 -0.0145  0.1855
24953W        W41087   1.713   2.137  11.378 -0.0324 -0.0991 -0.1127
24954W        W41088   4.656  15.769  11.642 -0.3647 -0.0153 -0.0136
24955W        W41089  13.259   1.125  15.522  0.1137 -0.1661  0.1884
24956W        W41090   6.080   3.897   4.787 -0.0053 -0.1256 -0.0073
24957W        W41091   1.253   4.941  14.396  0.1496 -0.0058 -0.0710
24958W        W41092   9.616   3.226  11.967 -0.1417  0.1941 -0.2138
24959W        W41093   3.528  17.734   3.693 -0.0945 -0.1827 -0.0609
24960W        W41094  17.185   5.462  13.389  0.1318 -0.2756 -0.2169
24961W        W41095  12.767   3.085   1.491 -0.3800  0.0155  0.1645
24962W        W41096   7.103   6.340   0.081  0.0370  0.1279  0.2666
24963W        W41097   4.149   8.655   2.489  0.0782  0.1507 -0.1731
24964W        W41098   3.792   9.162   1.162 -0.0254  0.3048  0.0435
24965W        W41099  10.860   2.085  13.383 -0.1219  0.2308 -0.0262
24966W        W41100  15.907  10.972   1.752 -0.0659  0.0599 -0.0248
24967W        W41101   1.342  11.789  15.661  0.2225  0.2148 -0.0073
24968W        W41102  15.417   2.654  15.266  0.0344  0.0747 -0.2136
24969W        W41103   2.661   4.505   2.151  0.0560  0.2195  0.0936
24970W        W41104  14.607   2.627  12.596 -0.2681  0.0685 -0.0741
24971W        W41105  14.054   2.045  14.856 -0.0685 -0.3878  0.0214
24972W        W41106   3.473   2.791   3.194  0.4384  0.1953  0.1437
24973W        W41107  12.114   4.858  16.634  0.2387 -0.0329 -0.2621
24974W        W41108   0.379   7.377  16.536 -0.1812 -0.0288 -0.1307
24975W        W41109   2.527   4.444  14.918 -0.1172 -0.2657  0.2179
24976W        W41110  12.728  16.176   3.748 -0.0973  0.0795  0.1305
24977W        W41111   6.963   0.146  10.529 -0.0904  0.1062  0.1007
24978W        W41112   9.566  17.436   3.166  0.1250 -0.2710  0.0801
24979W        W41113  16.601  11.057   1.201 -0.1494  0.2761 -0.3263
24980W        W41114   9.069   9.250  14.799 -0.1439  0.2090 -0.1471
24981W        W41115   0.453   6.102   0.099  0.0985  0.0348 -0.0953
24982W        W41116   2.137   1.674   0.822 -0.0254  0.0062  0.1562
24983W        W41117   3.219  14.002   4.890 -0.3133 -0.0621  0.0206
24984W        W41118  13.695   4.791   4.264  0.2023  0.2118 -0.1352
24985W        W41119  17.741  12.686   4.255 -0.0206  0.1394  0.3891
24986W        W41120   8.298   7.863   2.448  0.0174  0.0069  0.2813
24987W        W41121  15.216  13.160   1.392  0.2321  0.0649 -0.0083
24988W        W41122   8.723   5.329   1.743  0.0583 -0.0872 -0.1000
24989W        W41123   2.982  13.744  14.943  0.0386 -0.5258  0.2546
24990W        W41124   9.857   0.775   5.484 -0.0104  0.0214  0.4708
24991W        W41125   1.417   7.206   0.194 -0.1656 -0.1886  0.0468
24992W        W41126   1.139  10.433   1.688 -0.0945  0.1952  0.2076
24993W        W41127  10.719  12.644  10.874 -0.0512  0.0247  0.1834
24994W        W41128  14.746   4.510   3.277 -0.2702  0.1244 -0.0113
24995W        W41129   8.783  16.342  13.705  0.2294  0.0467 -0.0624
24996W        W41130  12.862   9.610   4.380  0.0087  0.2033 -0.1537
24997W        W41131   9.109   1.728  16.502 -0.0949  0.0992  0.0874
24998W        W41132   8.734   1.159  12.806 -0.0969  0.0907 -0.2729
24999W        W41133   3.054   3.848   1.098 -0.1422  0.0320 -0.0937
25000W        W41134  10.143  17.038   2.526  0.0777 -0.0193 -0.1506
25001W        W41135   8.119   8.830   2.709 -0.2515  0.0498 -0.3438
25002W        W41136   1.510  14.796  16.560 -0.2187 -0.3083  0.1565
25003W        W41137   7.016  16.311   3.670 -0.2793  0.0127 -0.2207
25004W        W41138   2.315  15.018   2.707  0.1686 -0.2321  0.3083
25005W        W41139  12.165  15.449  16.520  0.3411 -0.0663 -0.0591
25006W        W41140  16.399   9.785  12.512  0.0723 -0.0665  0.1546
25007W        W41141   0.536  14.246   3.563  0.0945  0.2618 -0.0414
25008W        W41142   7.704  12.730   5.168 -0.0021  0.1675 -0.0070
25009W        W41143  11.900  13.819  14.866 -0.2044  0.0508 -0.1036
25010W        W41144   3.014  17.374  16.690  0.0316  0.0083  0.3351
25011W        W41145   2.528  16.713   4.907  0.0589 -0.4571 -0.0934
25012W        W41146   2.593  14.125  16.051 -0.1112  0.0471 -0.1080
25013W        W41147   5.974  13.715  13.344 -0.3500 -0.0361  0.1056
25014W        W41148  10.050   1.605   2.845  0.2870 -0.0203  0.1562
25015W        W41149  11.198  13.350   2.748 -0.5483  0.0008  0.0532
25016W        W41150  12.811  10.888   2.575  0.0172 -0.2978  0.5018
25017W        W41151   0.450  13.693   0.723  0.1589 -0.2937 -0.1853
25018W        W41152   6.481   0.635   0.822 -0.1424  0.2288 -0.1017
25019W        W41153  14.981   2.363   1.429  0.0086 -0.0590 -0.2464
25020W        W41154  15.104   6.821   0.730  0.0021 -0.0264  0.0003
25021W        W41155   1.758  16.236  10.943  0.0240  0.2614 -0.0925
25022W        W41156   8.051   0.459  15.675 -0.1188 -0.1761 -0.1682
25023W        W41157   2.945   5.168   3.904 -0.0700 -0.0337  0.1510
25024W        W41158   8.638  17.722  15.439 -0.0998 -0.1479 -0.1584
25025W        W41159   5.431  17.941  15.754  0.2877  0.1251  0.1604
25026W        W41160  11.280   5.972   3.424 -0.0658 -0.2721 -0.1969
25027W        W41161  13.519   9.304  13.748 -0.0866  0.0996  0.0029
25028W        W41162  15.921  11.832   4.833 -0.1296 -0.1359  0.3039
25029W        W41163   3.264   7.034   1.493  0.1767 -0.0788 -0.2348
25030W        W41164  11.759  17.717  11.867 -0.1035  0.0759  0.3414
25031W        W41165  17.030   2.785  11.118 -0.0576 -0.1329 -0.1135
25032W        W41166   5.378  11.390   3.867 -0.2602  0.2447 -0.1981
25033W        W41167   0.965   4.007   1.929 -0.2153 -0.0656  0.0497
25034W        W41168   7.121   6.074   3.132 -0.1681  0.0865 -0.2359
25035W        W41169   5.088   2.391   0.430 -0.2543  0.0797  0.1630
25036W        W41170   6.001   0.559   0.407 -0.0861  0.4777  0.1918
25037W        W41171   0.248   0.404   0.538 -0.0200  0.4237  0.1879
25038W        W41172  16.496  11.107   6.149 -0.0651  0.1046  0.0707
25039W        W41173  15.848   0.762   0.529 -0.0188 -0.2443 -0.1528
25040W        W41174   8.958  10.470   3.117 -0.1326  0.0391  0.0730
25041W        W41175   6.225   9.387   3.739 -0.1748  0.1152  0.0818
25042W        W41176  14.131   6.703  15.048 -0.2383  0.0810 -0.2071
25043W        W41177  17.979   3.119   3.413 -0.0295 -0.3131  0.0873
25044W        W41178  11.914  14.901  14.048 -0.1450  0.1271  0.0699
25045W        W41179   0.619  16.944   0.470  0.3041  0.3127 -0.1206
25046W        W41180   0.033  10.684   3.407 -0.0495 -0.2397 -0.2358
25047W        W41181   6.252   1.336   0.772  0.0940 -0.1162  0.1590
25048W        W41182   8.425   9.069   4.097 -0.1603  0.0003  0.2864
25049W        W41183  12.446  14.772   2.172  0.1504  0.2909 -0.0039
25050W        W41184  17.216   7.101  13.788  0.1706  0.2293  0.0254
25051W        W41185   8.406   3.269   2.377 -0.1331 -0.0204  0.0499
25052W        W41186   0.898  13.015  13.217 -0.0223 -0.0693  0.1099
25053W        W41187   9.079   7.269   0.905  0.0150 -0.0108 -0.1772
25054W        W41188   2.531  11.102  16.040  0.0621 -0.1790 -0.0978
25055W        W41189   0.265  15.572   3.259  0.1791 -0.0075 -0.0316
25056W        W41190   4.946   0.997   4.962 -0.0749  0.3234  0.1107
25057W        W41191   6.847   0.716   2.763 -0.1022 -0.3399 -0.1336
25058W        W41192  10.655  13.674  14.246 -0.2022  0.0936  0.0962
25059W        W41193   3.499  12.498  13.493  0.1151 -0.0460  0.2065
25060W        W41194  13.871   0.582  13.618 -0.2040 -0.1545 -0.0359
25061W        W41195   0.274   7.652  14.740  0.0958  0.2627 -0.0542
25062W        W41196   5.028   1.514   5.141 -0.2907 -0.0183 -0.1926
25063W        W41197  15.950  16.564  16.098 -0.1011 -0.0156  0.2003
25064W        W41198  12.421  11.119  14.470  0.0426  0.1585 -0.1298
25065W        W41199  14.397  15.886   3.282 -0.0320  0.2436 -0.0421
25066W        W41200   7.698  14.034   4.645 -0.3651 -0.0908 -0.0973
25067W        W41201   3.793   1.843  11.552  0.2393 -0.1329  0.3941
25068W        W41202   0.279  12.519   0.915  0.0308 -0.2389 -0.0315
25069W        W41203  16.498   3.239   1.642  0.0895 -0.1658  0.0346
25070W        W41204  13.062  17.242   0.636 -0.3630 -0.0877  0.0191
25071W        W41205  12.799  17.784   6.448 -0.0459 -0.0993  0.1777
25072W        W41206  11.530   2.020  16.017  0.3210 -0.0055 -0.2251
25073W        W41207   8.127  15.453  12.117 -0.0582  0.2453 -0.1924
25074W        W41208  12.537   1.193   4.642  0.4228 -0.0348 -0.2004
25075W        W41209   2.692   3.625  15.052  0.0720  0.0255 -0.0825
25076W        W41210   8.983  13.826   5.346 -0.0385 -0.0445  0.2431
25077W        W41211  11.516   0.440   1.009 -0.1668 -0.0618 -0.1676
25078W        W41212   2.726  17.537  13.328 -0.0021  0.4503  0.0284
25079W        W41213   8.595  11.125  14.242 -0.0386  0.3961 -0.4079
25080W        W41214   6.028   4.644   0.777 -0.3879  0.1018  0.2377
25081W        W41215   6.127  13.960   0.480 -0.0284 -0.0265  0.1934
25082W        W41216   7.288   9.280   3.536 -0.2326 -0.2460 -0.2468
25083W        W41217  14.157  14.244   5.987 -0.0656 -0.0814  0.4437
25084W        W41218   1.066   9.295  16.479  0.0668 -0.0352  0.1663
25085W        W41219  12.793   7.927   4.255  0.2868  0.0005  0.0132
25086W        W41220   9.000   7.517   3.383 -0.0991 -0.0705 -0.1345
25087W        W41221  13.476   3.275   1.085  0.1538  0.3846 -0.1348
25088W        W41222   1.263   0.310   1.442  0.1074 -0.1437  0.1714
25089W        W41223  17.078   5.406   2.369 -0.1404 -0.1157 -0.1981
25090W        W41224   2.434   2.712  14.884 -0.0257 -0.1439  0.1905
25091W        W41225  11.669  10.576  14.632  0.1766  0.2624 -0.1919
25092W        W41226   5.860   3.661  14.505 -0.2057 -0.1871 -0.1742
25093W        W41227  11.648  13.891  15.441 -0.0579  0.2516  0.2506
25094W        W41228   1.194   4.216   4.973  0.2585 -0.1359  0.1600
25095W        W41229  16.195  13.583   1.129 -0.2468 -0.3358  0.0492
25096W        W41230   2.693  14.130   1.705 -0.1495  0.0661  0.1651
25097W        W41231   6.931  14.591   3.674 -0.0332  0.0434 -0.1668
25098W        W41232   6.858   8.964   4.027 -0.0393 -0.1416 -0.3510
25099W        W41233  12.128   1.123  13.389  0.2613 -0.0089 -0.0835
25100W        W41234  10.597   5.794  13.493  0.0944 -0.3274  0.2732
25101W        W41235  15.117   4.212   5.546 -0.1227  0.1108 -0.0142
25102W        W41236  11.703   1.688   1.371 -0.0900  0.0128 -0.0894
25103W        W41237   4.613   8.766   0.309 -0.0513 -0.0249 -0.0208
25104W        W41238   5.055   0.280  16.469 -0.1053  0.1768  0.0313
25105W        W41239   4.244   9.822   1.276 -0.1710  0.1515 -0.0501
25106W        W41240  14.921   3.116  12.638 -0.1107 -0.2005 -0.0169
25107W        W41241  14.676   3.134  15.370  0.1667  0.0014 -0.0077
25108W        W41242   1.418   1.768  15.189 -0.0327 -0.2410  0.3132
25109W        W41243   8.497   7.143  16.503 -0.0858  0.1170 -0.1803
25110W        W41244  12.367   2.801   2.717  0.0202 -0.2596  0.1603
25111W        W41245   1.280  13.541   0.354  0.4688  0.1558 -0.1208
25112W        W41246  14.320   6.122  15.222  0.1594  0.1630 -0.0762
25113W        W41247   3.919  12.331  14.478 -0.3820  0.1080 -0.1461
25114W        W41248   2.391   2.951  13.939  0.0431 -0.1774 -0.1352
25115W        W41249   8.178  13.396  15.856 -0.3889 -0.3199  0.0868
25116W        W41250   7.629   2.898   4.550 -0.0502 -0.1181 -0.0930
25117W        W41251  10.959  10.031  16.227 -0.3541  0.0021 -0.1585
25118W        W41252  10.874   4.857   0.296  0.3337  0.1369  0.4761
25119W        W41253   5.694  15.947   2.583  0.3128  0.1544  0.1373
25120W        W41254  14.334   3.082  14.539 -0.0615 -0.0733 -0.0111
25121W        W41255   3.655   5.938  12.899 -0.0330  0.0533 -0.3441
25122W        W41256   1.533   9.620  12.362 -0.3526  0.0712  0.0857
25123W        W41257   7.004   6.886   5.180 -0.1507  0.0923 -0.2304
25124W        W41258  14.334  17.683  11.352  0.0833  0.2083  0.0539
25125W        W41259  16.568   7.337   1.072 -0.2824 -0.0477 -0.0299
25126W        W41260   5.704  10.519   3.978  0.3048 -0.0470  0.0651
25127W        W41261  13.392  10.854   4.173 -0.2674  0.2083  0.2253
25128W        W41262   5.105   7.259   3.271 -0.0336  0.1341  0.1137
25129W        W41263   4.921   0.771   5.484 -0.2219 -0.0280  0.2218
25130W        W41264   7.472  16.859  13.493 -0.0829 -0.2020  0.0380
25131W        W41265   2.924  13.195   0.116 -0.1486 -0.1225  0.0225
25132W        W41266   9.294  10.182   5.185  0.1851  0.1242 -0.1219
25133W        W41267  17.412  12.308  14.099 -0.1410 -0.2761  0.1246
25134W        W41268  11.638  14.989  12.547  0.1471  0.0605 -0.0894
25135W        W41269   8.472   4.925   4.633  0.2176  0.0334 -0.0592
25136W        W41270  15.141   0.315   4.870  0.1331  0.1791  0.1680
25137W        W41271  14.764   8.622  15.325 -0.2218 -0.2380  0.2825
25138W        W41272  10.701   6.131  11.692  0.2749 -0.0114  0.0546
25139W        W41273   7.499  13.165   0.690  0.3735 -0.3641  0.0183
25140W        W41274  14.950  14.735   2.244  0.2997  0.2275 -0.1210
25141W        W41275   8.394  13.608   2.931 -0.1862  0.1598  0.0142
25142W        W41276  10.539  15.558   0.631 -0.1768 -0.4079  0.1321
25143W        W41277   1.923   7.285  13.205  0.1423 -0.1951 -0.1807
25144W        W41278   8.037   3.129   2.792 -0.0214  0.1442 -0.5020
25145W        W41279  13.254  14.400  16.380  0.1724 -0.0875  0.0528
25146W        W41280  10.936  11.880  14.712 -0.1120  0.0744  0.3033
25147W        W41281   6.249   7.852  13.478  0.2115  0.1040 -0.0443
25148W        W41282   3.483   8.407  11.667  0.3290  0.1498  0.1239
25149W        W41283  11.907   0.214   1.923  0.0355  0.0925 -0.0425
25150W        W41284  12.440  10.313   3.871 -0.5461 -0.0340  0.2235
25151W        W41285   6.104   2.536   4.856 -0.1897 -0.0699  0.0064
25152W        W41286  16.763  13.435  13.550 -0.1248  0.1810 -0.2046
25153W        W41287  15.491  11.518  14.382 -0.3097  0.2431  0.1280
25154W        W41288   1.648   6.182  16.601  0.3024  0.0638 -0.3181
25155W        W41289   9.271   8.189   2.750  0.0575  0.1440 -0.2536
25156W        W41290   3.548  15.901  11.168 -0.0907 -0.0884  0.0743
25157W        W41291   8.843  10.084   0.032  0.1185  0.1574 -0.0579
25158W        W41292  11.994  10.171   0.995  0.0669  0.1094 -0.2835
25159W        W41293   3.450   6.911   5.227 -0.0175 -0.1546 -0.4230
25160W        W41294   5.449   7.006   2.663 -0.2784 -0.1881 -0.2001
25161W        W41295  12.850   1.485  14.277  0.1722 -0.0715 -0.3284
25162W        W41296  17.953  17.629   4.344  0.3862 -0.0786 -0.1215
25163W        W41297  12.424   4.599  12.861 -0.0769 -0.1491  0.0210
25164W        W41298  12.014   0.257   1.240  0.0634 -0.1212 -0.4302
25165W        W41299  12.774   2.008  16.158 -0.1767  0.2073  0.0465
25166W        W41300  14.104   0.394  12.570 -0.0684  0.1720 -0.1467
25167W        W41301   1.350   5.298  13.198  0.1104 -0.2192  0.0178
25168W        W41302  12.904   4.553   2.871 -0.2001 -0.0575 -0.0898
25169W        W41303   5.813   1.111  11.783  0.0468  0.1044  0.3116
25170W        W41304  17.887   3.654   0.689  0.2002  0.3439  0.0088
25171W        W41305   4.426   7.624  11.286  0.1834 -0.0385 -0.0515
25172W        W41306  13.888   4.146  15.853  0.0920  0.2124  0.1703
25173W        W41307  14.376   2.613  14.290 -0.0173 -0.1650 -0.0827
25174W        W41308   7.994   9.110   2.336 -0.2554 -0.0736  0.3417
25175W        W41309   4.657   8.000   6.120 -0.3782  0.0379 -0.2803
25176W        W41310   1.291  13.558   2.642 -0.3790 -0.3590 -0.4389
25177W        W41311  13.381  11.755   2.525  0.2701 -0.1168 -0.4950
25178W        W41312  11.402   7.372  13.825 -0.0372 -0.0207  0.2756
25179W        W41313   6.138  15.784   3.806  0.0726  0.0715  0.2654
25180W        W41314   3.155   2.752   4.523 -0.0498 -0.1043  0.1661
25181W        W41315   0.670  17.290   2.629  0.3118 -0.1028 -0.1725
25182W        W41316   5.774  15.466  15.936  0.2360  0.1195 -0.1606
25183W        W41317  16.144   0.815  12.603 -0.2791 -0.1322 -0.0218
25184W        W41318   3.832  14.672  13.493 -0.0791  0.2185 -0.1786
25185W        W41319   8.515   7.500   1.180 -0.0061 -0.3458 -0.1392
25186W        W41320  16.697   9.408  12.298  0.0927  0.0514 -0.1966
25187W        W41321   3.831  11.891   2.781  0.0243 -0.0541  0.0945
25188W        W41322   1.282  11.772  13.445 -0.1558 -0.2502 -0.5149
25189W        W41323  12.406  16.420   1.597 -0.2001 -0.0729  0.1537
25190W        W41324  14.504   3.420   0.143  0.1875  0.0126  0.1263
25191W        W41325  11.245  16.647   3.267 -0.1634  0.0372  0.0756
25192W        W41326   9.053   9.995  13.856 -0.1948 -0.1330 -0.0633
25193W        W41327   2.903  11.863   1.948 -0.0336 -0.0170 -0.1060
25194W        W41328  14.547  17.702  16.635 -0.0384  0.0572  0.1143
25195W        W41329  15.721  14.526   4.053  0.0998  0.1630  0.0100
25196W        W41330   1.753   0.207  14.902  0.0391  0.2612  0.1721
25197W        W41331  17.175   6.157  15.252 -0.1363 -0.2925  0.2122
25198W        W41332   2.825  10.187  11.814 -0.1009 -0.1308  0.1681
25199W        W41333   1.442  17.152  11.422 -0.1265  0.1693 -0.0100
25200W        W41334  12.106   0.815   3.077  0.1063 -0.1380 -0.0987
25201W        W41335   4.259  12.224  14.878 -0.3154  0.2355 -0.2219
25202W        W41336  13.748  10.766   1.973 -0.0457  0.0896 -0.1604
25203W        W41337   1.831   0.819  11.753 -0.1895 -0.0436 -0.1674
25204W        W41338   8.673  13.443  15.991 -0.0803  0.0659  0.0274
25205W        W41339  13.442  15.569  11.415 -0.0924  0.1300 -0.0223
25206W        W41340   2.909   7.643  11.701 -0.2915  0.0224  0.0679
25207W        W41341  10.327   7.518   4.221  0.2775  0.0303 -0.0027
25208W        W41342   6.162   8.519   5.646 -0.0085 -0.0034  0.1103
25209W        W41343  17.358   9.594  13.481 -0.0011  0.0880  0.0884
25210W        W41344  11.229   0.293   2.680 -0.1121 -0.0800 -0.0497
25211W        W41345  16.398   6.146   0.584 -0.1848 -0.0132 -0.0369
25212W        W41346  10.426   8.651  14.905 -0.2423  0.2032  0.0416
25213W        W41347  11.295   1.847  13.299  0.1980  0.1419  0.0959
25214W        W41348  13.097  12.985   2.585  0.0374  0.0846 -0.0773
25215W        W41349  17.689  16.107   2.019  0.0156  0.3346  0.0103
25216W        W41350  15.727   4.797  12.350  0.2525  0.2199 -0.0498
25217W        W41351   0.940   9.744   2.937  0.0204  0.0653 -0.2673
25218W        W41352   0.620   6.771  11.961  0.1923 -0.0028  0.0893
25219W        W41353  17.627   2.463  13.772  0.0132 -0.1734 -0.0367
25220W        W41354  14.212  13.581  12.849 -0.1547  0.2181 -0.0011
25221W        W41355  15.719   0.368  16.013 -0.1201 -0.0172 -0.1406
25222W        W41356   3.157  12.302  12.447  0.0516  0.2817  0.2748
25223W        W41357  13.205   0.128  14.173  0.1203 -0.0945  0.0362
25224W        W41358  15.363   7.912  11.909  0.1349 -0.0842  0.3293
25225W        W41359   1.431  12.668  15.494  0.2719  0.2911 -0.2970
25226W        W41360  14.640   7.240   2.004  0.1157  0.0792  0.1751
25227W        W41361   4.631   7.684   2.598  0.2669 -0.3066 -0.0825
25228W        W41362  11.393   5.650  13.703 -0.2578  0.3225 -0.2149
25229W        W41363   9.557  12.122  13.392 -0.1521 -0.5195  0.1050
25230W        W41364  12.955   8.410   0.744 -0.0341  0.0816  0.0721
25231W        W41365   4.528  12.874  12.533  0.3757  0.1784 -0.1658
25232W        W41366  13.199  13.075  15.679 -0.1528 -0.0048  0.0873
25233W        W41367   9.895   2.607  13.561  0.1095  0.2214  0.0890
25234W        W41368   2.397   3.258   3.895 -0.1450  0.2699  0.1763
25235W        W41369   3.217   0.197   4.453 -0.3828  0.0193  0.1559
25236W        W41370   4.628  16.581  16.671  0.1878 -0.3077 -0.4849
25237W        W41371   8.923   1.125  11.978  0.3020  0.0238  0.1789
25238W        W41372   7.827   3.271  11.701  0.1647 -0.0137  0.0358
25239W        W41373  12.688   3.455  13.606  0.1060  0.2467  0.1500
25240W        W41374   2.337  12.638   5.272  0.0020  0.2174  0.2040
25241W        W41375   2.141  15.961   4.141 -0.0341  0.1475  0.2315
25242W        W41376   6.149  17.758   5.246 -0.1115 -0.0805  0.0259
25243W        W41377  16.273   3.114   0.255 -0.0004 -0.0566 -0.2079
25244W        W41378   8.817  16.246   3.817  0.0505 -0.4389 -0.0943
25245W        W41379  12.480   7.686   3.450 -0.0476 -0.1082  0.2582
25246W        W41380  10.818  17.515   3.397 -0.2148  0.0078 -0.0521
25247W        W41381  15.325   3.902  14.615  0.0036 -0.0413  0.0248
25248W        W41382  16.673   8.479  13.865  0.0280 -0.0875  0.2180
25249W        W41383  13.049   9.677   0.515 -0.0595  0.0773 -0.1094
25250W        W41384  17.304  11.791   1.247 -0.0510  0.0728 -0.0630
25251W        W41385   4.926  16.416   0.742  0.1380  0.0412 -0.2495
25252W        W41386   8.651   7.708   2.961 -0.0606 -0.0496  0.1674
25253W        W41387  17.903  13.188   5.403 -0.1439  0.1787 -0.3082
25254W        W41388   9.340  13.158   2.882  0.0683  0.1970 -0.1109
25255W        W41389   1.351  11.982   1.831  0.0239 -0.0577 -0.4733
25256W        W41390   6.200   3.561   2.863  0.3390 -0.1240 -0.3291
25257W        W41391   7.169   9.623   5.094  0.0676 -0.0810  0.1365
25258W        W41392  15.083  13.177   3.128 -0.0707 -0.0870  0.1715
25259W        W41393   6.978  14.785   4.457 -0.0352 -0.3077 -0.0075
25260W        W41394   2.167   2.751  11.573  0.0632 -0.0253 -0.2406
25261W        W41395   0.102   8.015   1.870 -0.0774 -0.0523 -0.1141
25262W        W41396   0.717   8.850   1.818 -0.0041 -0.0167  0.0342
25263W        W41397  13.179  15.444   5.165  0.0746  0.0196 -0.0698
25264W        W41398   0.770  17.554   5.625 -0.0021  0.1510  0.0980
25265W        W41399   2.118   2.190   0.769 -0.1112 -0.0771 -0.0502
25266W        W41400  14.039   4.732  11.642 -0.2265  0.4779  0.0773
25267W        W41401  12.984   4.590   1.280 -0.0239  0.1684 -0.3770
25268W        W41402   0.609   9.892  14.030  0.1890  0.2217 -0.3333
25269W        W41403   1.030  17.167  12.997 -0.4101 -0.1671  0.3604
25270W        W41404  14.539  10.217  13.763 -0.3138  0.2450 -0.0237
25271W        W41405   9.321  16.120  15.080  0.4924  0.2202  0.2950
25272W        W41406   8.581   7.155  14.178  0.3180  0.0445  0.2489
25273W        W41407   9.364  17.907  16.130 -0.0720  0.0867  0.2300
25274W        W41408   3.618   6.488   0.919 -0.0406  0.1337  0.0075
25275W        W41409  16.722  13.826  15.345 -0.3953  0.1166  0.1008
25276W        W41410  14.451  16.466  12.614  0.1096 -0.0773  0.0316
25277W        W41411  12.202  13.234  15.713 -0.0513  0.3421 -0.0627
25278W        W41412  14.017   0.575  16.610 -0.0651  0.1937 -0.1511
25279W        W41413   4.843   0.724  13.148 -0.0028 -0.2071 -0.0973
25280W        W41414  16.387   1.089  15.909  0.1777 -0.1704  0.1892
25281W        W41415  12.750   1.153  12.986 -0.0980 -0.0354 -0.1758
25282W        W41416   0.810  13.405   3.395  0.3020 -0.1653 -0.0432
25283W        W41417   0.108   1.840  13.381 -0.2264 -0.1478  0.0399
25284W        W41418   1.943  17.816  12.556  0.1545 -0.2770 -0.1296
25285W        W41419  13.797   7.954  14.012  0.2331  0.0774  0.0492
25286W        W41420   3.942   8.108   4.250  0.0936  0.0012  0.0662
25287W        W41421   6.090  12.038   1.521 -0.4017  0.3676 -0.3386
25288W        W41422  15.469   3.024  12.413 -0.3151 -0.0011 -0.0939
25289W        W41423  13.016  13.777   1.106 -0.2948 -0.0627  0.0327
25290W        W41424  16.889  12.314   2.321 -0.0095 -0.1150 -0.0013
25291W        W41425   9.992  12.214   0.470  0.0174 -0.0073 -0.0163
25292W        W41426   1.594  14.718   5.345 -0.0959 -0.1319  0.0417
25293W        W41427   5.310  10.108  12.974  0.2283 -0.3171 -0.0911
25294W        W41428  15.468  15.559   5.794 -0.1940 -0.0614 -0.0609
25295W        W41429  16.820  10.955   2.950  0.0177 -0.3484  0.0671
25296W        W41430  12.956   9.067  15.268 -0.3699 -0.0412  0.0907
25297W        W41431   7.397   6.855   0.812  0.1026 -0.0624  0.0543
25298W        W41432   7.160   4.468   5.533 -0.1096 -0.1493  0.0053
25299W        W41433  13.085  16.241   0.178  0.0958 -0.1840  0.0732
25300W        W41434   2.246  15.963   0.799  0.0244  0.1272  0.0980
25301W        W41435   6.149   1.004   4.681  0.1284  0.1226 -0.0928
25302W        W41436  11.501   8.549   3.195 -0.0929 -0.3887  0.1385
25303W        W41437   5.907   4.293   0.434 -0.1147 -0.4294  0.1267
25304W        W41438  10.208  12.415   4.575  0.2210  0.0321 -0.2093
25305W        W41439   6.329  10.031   2.856 -0.0435  0.0960  0.3538
25306W        W41440   3.261   2.930   0.767  0.0122 -0.2116  0.1604
25307W        W41441   9.967  14.454   1.821 -0.0537 -0.3378 -0.0785
25308W        W41442   8.975  17.549  13.084 -0.0265  0.0398  0.0857
25309W        W41443  12.250  17.900  12.793 -0.1703  0.1284 -0.2946
25310W        W41444   4.235  16.884   3.318 -0.0142 -0.0874  0.1623
25311W        W41445   9.142   3.528   4.896 -0.0542  0.0684  0.2022
25312W        W41446  13.292   9.448  15.891 -0.1385 -0.0872  0.1278
25313W        W41447   5.192   9.234  11.748 -0.3044  0.0684 -0.1322
25314W        W41448   0.285  13.137   3.581  0.1453 -0.1773  0.1554
25315W        W41449  15.896   0.467  14.276  0.3552 -0.5195 -0.1645
25316W        W41450  10.234   5.787  16.267 -0.0422 -0.3248  0.1483
25317W        W41451   3.391   4.379   3.872  0.1826 -0.1521  0.0679
25318W        W41452   1.685  11.585   3.630  0.0800  0.1695  0.2156
25319W        W41453   8.041   1.394   0.762  0.4180 -0.0827  0.1406
25320W        W41454  16.209   1.753  10.802 -0.1094 -0.2354 -0.1587
25321W        W41455   2.146  11.132  14.785 -0.0584  0.4279  0.0788
25322W        W41456   0.310  11.392  13.171 -0.1095  0.0438  0.0796
25323W        W41457   3.417   2.235   1.657  0.1469 -0.3538  0.1612
25324W        W41458  13.953   4.149  13.600 -0.0493 -0.1965 -0.3147
25325W        W41459   0.457   2.414  12.959 -0.1890  0.2083 -0.0041
25326W        W41460   6.511  11.030   1.899 -0.0960  0.4910  0.1220
25327W        W41461  14.106   4.574  16.488  0.0245 -0.2493 -0.0208
25328W        W41462   7.838   2.468   4.751 -0.1792 -0.0892 -0.1379
25329W        W41463  17.706   0.095   2.201  0.0441 -0.0718 -0.0360
25330W        W41464   6.991  15.080  13.751 -0.3066 -0.0533  0.0059
25331W        W41465   8.493   9.652   4.420 -0.0802 -0.2792  0.0177
25332W        W41466   3.871   8.918  12.599 -0.0383 -0.2802 -0.0443
25333W        W41467   8.437   8.842  13.654 -0.2455  0.2594 -0.0891
25334W        W41468   4.996  15.306   4.230  0.0224  0.0852 -0.3137
25335W        W41469  12.353   1.127  13.859 -0.3709 -0.3287  0.2293
25336W        W41470  13.193  13.806  14.269 -0.0024  0.5104  0.0592
25337W        W41471   4.022   5.685  16.373 -0.1132 -0.2346 -0.1832
25338W        W41472  10.586  16.878   0.006  0.0097  0.0057 -0.3754
25339W        W41473   8.290   1.381  12.489 -0.0169  0.2125  0.0369
25340W        W41474  10.083   3.454   3.252 -0.2752  0.1800  0.2242
25341W        W41475   1.587   2.203  15.439  0.1861 -0.0097 -0.0275
25342W        W41476   2.476  12.601   0.897 -0.1543  0.1492 -0.3191
25343W        W41477  13.755  13.190  12.970  0.3905 -0.0082 -0.0655
25344W        W41478   5.211   5.141  11.801 -0.0339  0.3186 -0.2354
25345W        W41479   0.971   5.654  13.389  0.1778 -0.1441  0.1288
25346W        W41480  16.288   0.091   1.180 -0.3264  0.0143 -0.1036
25347W        W41481   0.609  17.066  13.251  0.1031  0.0967 -0.1188
25348W        W41482   5.637  12.904  16.032 -0.0938  0.0114  0.0298
25349W        W41483  12.401   2.245  16.424 -0.1377  0.1501  0.0318
25350W        W41484   2.242   3.936   0.642  0.1401  0.0871  0.1749
25351W        W41485   5.797  12.377  15.921  0.0236  0.0791  0.2106
25352W        W41486   5.943   9.082   1.508  0.1504  0.0535  0.3239
25353W        W41487   5.268  16.531  11.848  0.0047  0.2690  0.2002
25354W        W41488   4.913   6.810  15.897  0.2800 -0.1905  0.2091
25355W        W41489  14.616  11.809   4.412 -0.0200  0.1710 -0.2974
25356W        W41490   5.546   2.809   0.362  0.2185  0.0370  0.1384
25357W        W41491   5.053   3.143  15.682 -0.1732  0.3294  0.0109
25358W        W41492   8.475   4.497   5.873 -0.1190 -0.4030  0.0833
25359W        W41493  16.713   0.253   1.410  0.1986 -0.1110  0.0967
25360W        W41494   3.060   2.935   5.418 -0.0828  0.1117 -0.0289
25361W        W41495   9.932   4.078  16.641 -0.1375  0.0205 -0.1097
25362W        W41496  17.017   8.716  13.575  0.1825 -0.2603 -0.1667
25363W        W41497   9.498  14.434  11.883  0.1349 -0.2708  0.1466
25364W        W41498   5.559  14.737   2.018 -0.2661 -0.0898  0.0540
25365W        W41499   7.603  13.501   3.239 -0.2272 -0.2897 -0.2021
25366W        W41500   1.687  12.553   2.702 -0.2229 -0.0350  0.2974
25367W        W41501   8.737   1.177  11.350  0.1174  0.1238  0.0347
25368W        W41502   8.393  13.476  14.296 -0.0296 -0.1527 -0.1684
25369W        W41503   7.091  14.983   3.157  0.4534  0.2070 -0.0483
25370W        W41504  13.998   0.061  12.954 -0.0719  0.1610 -0.1616
25371W        W41505  10.533  17.032   4.658  0.1176  0.0352 -0.3400
25372W        W41506  17.870   7.224   4.428 -0.2725 -0.0281  0.0146
25373W        W41507  11.904  17.213  11.901 -0.1128 -0.1623 -0.0461
25374W        W41508   2.236  10.682  14.060 -0.4655  0.0503 -0.1418
25375W        W41509   5.323   8.059   4.643  0.1602  0.0683 -0.0149
25376W        W41510   5.301  16.467   0.321 -0.1223 -0.1219 -0.3325
25377W        W41511  10.187  16.191  13.448  0.0990  0.3398 -0.0179
25378W        W41512  12.484  15.379  15.101 -0.0317 -0.0164 -0.1206
25379W        W41513  14.977  13.891  15.952 -0.0477 -0.2048  0.0899
25380W        W41514   6.910   1.661   1.951 -0.1278 -0.1671 -0.0690
25381W        W41515  13.394  16.085   0.538  0.1079 -0.1832 -0.0316
25382W        W41516  14.991   8.954  13.212 -0.1001  0.2092  0.0776
25383W        W41517   7.345  16.486  15.554 -0.0980  0.2555  0.2057
25384W        W41518   5.448  15.434   4.022  0.1854 -0.2885 -0.0207
25385W        W41519   4.871   1.295   1.697 -0.0518 -0.1175 -0.0861
25386W        W41520   6.323  17.793  11.717  0.0553 -0.0180  0.0207
25387W        W41521  13.262   6.281  14.130 -0.0346  0.1249 -0.0405
25388W        W41522   2.015  15.820   4.936 -0.0878  0.0997  0.0253
25389W        W41523   4.076   6.112   5.967 -0.2825 -0.3017 -0.0094
25390W        W41524  12.295   5.810   1.252 -0.1587 -0.0198 -0.0929
25391W        W41525   0.442   7.345   0.348 -0.1795 -0.1438 -0.2626
25392W        W41526  13.151   8.040  14.165 -0.0320 -0.2868  0.1593
25393W        W41527   7.934   2.555   3.070  0.3811 -0.2350  0.1543
25394W        W41528  11.686   6.834   3.027 -0.3015  0.2287 -0.1500
25395W        W41529   2.562  17.951   0.570 -0.1770 -0.1425  0.0832
25396W        W41530  17.456  14.249  15.107  0.1253  0.0924 -0.0780
25397W        W41531   5.337   3.624  14.446 -0.3500  0.0332  0.2570
25398W        W41532   5.332  16.189  11.389 -0.2138 -0.0605 -0.1224
25399W        W41533  11.317   3.021  15.195 -0.0298  0.1457 -0.2024
25400W        W41534  10.781   6.715   3.735  0.0026 -0.3820  0.0535
25401W        W41535  16.264  13.635  15.601 -0.0882  0.2212 -0.1695
25402W        W41536   6.870   0.978   4.325  0.1264 -0.0813 -0.0784
25403W        W41537  12.959   9.367   3.833 -0.0058 -0.1203  0.0923
25404W        W41538   7.731   8.419  15.822 -0.0663 -0.0703  0.1180
25405W        W41539   5.413  13.894  16.407  0.1104  0.0509 -0.2312
25406W        W41540   5.578  14.338   6.001 -0.4507  0.2102  0.2688
25407W        W41541   3.701  15.487   2.175 -0.0386 -0.1880 -0.0542
25408W        W41542  11.797  10.044  13.500 -0.2431  0.0954 -0.0509
25409W        W41543   8.160  15.910  16.393 -0.0966  0.3701  0.0951
25410W        W41544   4.598   8.612  15.445  0.1832 -0.0188  0.1611
25411W        W41545  14.374  14.778   1.779  0.2279  0.3228  0.0474
25412W        W41546   6.841   5.740   5.118  0.1466 -0.2993 -0.4827
25413W        W41547   2.251   4.875  14.551  0.2810  0.0427 -0.0830
25414W        W41548  13.776   0.942   3.288 -0.0718  0.0251 -0.0254
25415W        W41549  16.872  12.740   0.833  0.3703  0.1997  0.0312
25416W        W41550  11.846  12.760  12.857  0.1065  0.1857  0.2943
25417W        W41551   1.251  11.523  14.463 -0.1755 -0.0146 -0.1931
25418W        W41552   2.395  15.564  13.767 -0.2746  0.0640  0.2568
25419W        W41553   8.638   9.006  14.946  0.0335 -0.0872  0.0442
25420W        W41554  12.326   6.402   0.022 -0.1060 -0.0454 -0.1631
25421W        W41555   0.112   9.898   1.859 -0.2812  0.1160  0.1389
25422W        W41556  12.036   8.014  13.944 -0.0321  0.2451  0.0645
25423W        W41557   3.519  10.252   4.231  0.1194 -0.1824 -0.0391
25424W        W41558   4.207   1.931  12.654 -0.2406 -0.1244  0.1288
25425W        W41559   5.044   1.713  15.899 -0.0678  0.0151 -0.0806
25426W        W41560   8.051   7.734  16.712 -0.1801 -0.1130  0.1595
25427W        W41561   8.240  17.668   1.558 -0.3186  0.1950  0.0880
25428W        W41562  16.284  13.615  14.813  0.0064 -0.2054  0.1959
25429W        W41563  17.467  16.635  11.816 -0.1621 -0.0667 -0.0102
25430W        W41564   4.285  13.397   0.007  0.0856  0.0609 -0.1780
25431W        W41565   9.148  10.299   0.374  0.0094  0.1128 -0.2504
25432W        W41566  10.642  10.764  11.223  0.1115  0.0000  0.1425
25433W        W41567   2.218   1.223   3.991  0.0057 -0.0862 -0.2319
25434W        W41568   3.096   9.424   5.743  0.0238 -0.0903  0.0676
25435W        W41569   0.292  12.364  13.632  0.0403  0.0464  0.3869
25436W        W41570   2.342   7.872  13.865  0.2600  0.1042  0.0003
25437W        W41571   7.973  15.788   4.543  0.3257  0.0376  0.1530
25438W        W41572   4.437  16.112  16.510 -0.1308  0.2074 -0.0175
25439W        W41573  10.427   8.966   0.896 -0.0349  0.0430 -0.2050
25440W        W41574   4.500   5.173  15.182  0.0687  0.2867  0.2326
25441W        W41575   6.319   4.004   2.213  0.3166  0.0607 -0.3352
25442W        W41576  13.127  10.499  10.984 -0.1327 -0.3136  0.2773
25443W        W41577  17.057   9.801   5.377 -0.0971 -0.0079 -0.1629
25444W        W41578   2.063   6.176  12.583 -0.0224 -0.1708  0.0678
25445W        W41579   0.637  13.126  15.371 -0.1761 -0.0229  0.1137
25446W        W41580   5.456   9.257   6.075  0.0122  0.2404 -0.0307
25447W        W41581   0.580   7.673   5.077 -0.1624 -0.1174  0.1426
25448W        W41582   8.590  12.703   3.570 -0.2910  0.1222 -0.0963
25449W        W41583  11.395  17.287   4.256 -0.0126 -0.1517  0.1935
25450W        W41584  16.129   1.129  12.062 -0.0001  0.0620 -0.0077
25451W        W41585  14.348  12.255  13.947  0.4485  0.0667 -0.1246
25452W        W41586   2.561  11.532  14.134  0.2530  0.0509 -0.1653
25453W        W41587   9.918  11.052   5.580 -0.0003  0.2189 -0.2391
25454W        W41588   5.533  13.045  14.332 -0.1918 -0.2849  0.1362
25455W        W41589  12.407   9.834  12.441 -0.0033 -0.0561  0.0473
25456W        W41590  15.143  10.130   0.021  0.1963  0.3478  0.2812
25457W        W41591   0.993   2.257   3.643  0.1048 -0.4685 -0.0782
25458W        W41592   8.598  17.474   4.356  0.0321 -0.0848 -0.1704
25459W        W41593   5.386   0.689  16.214  0.2107 -0.3134  0.2124
25460W        W41594   1.738  15.872   5.747 -0.3483 -0.3305  0.0170
25461W        W41595   2.572   1.661   1.252 -0.1057  0.0340 -0.0993
25462W        W41596   6.252  10.068   4.699  0.2832 -0.0745  0.0261
25463W        W41597  15.921   5.858   1.322 -0.0942 -0.0783  0.0663
25464W        W41598   3.612  12.707  16.438 -0.2183  0.1593  0.1534
25465W        W41599  17.651  16.997  12.193 -0.1042  0.1760 -0.2887
25466W        W41600   0.380  12.578  12.412  0.1562 -0.0902 -0.1600
25467W        W41601  11.826  15.518  10.659  0.0782  0.1128 -0.3446
25468W        W41602   6.244  13.501  16.611  0.1051  0.0965  0.0393
25469W        W41603  11.503  10.461   2.622  0.1787  0.1210  0.0559
25470W        W41604   2.928  15.536  11.839 -0.0092  0.3305 -0.0907
25471W        W41605  11.146   1.678   3.187 -0.0595 -0.1086 -0.1546
25472W        W41606   1.277   3.431  15.796  0.3463 -0.1357  0.0876
25473W        W41607   1.549   5.203  14.820 -0.0396 -0.0424  0.1313
25474W        W41608  17.729   0.154   2.852 -0.1119 -0.0974  0.1784
25475W        W41609   3.754  15.847   4.104  0.0929  0.0146  0.0622
25476W        W41610   1.267   4.382  12.757 -0.4508 -0.3694  0.0402
25477W        W41611   1.609   4.181   3.422 -0.1477 -0.1623  0.4332
25478W        W41612  12.461  13.667   0.979 -0.0275  0.0849  0.2962
25479W        W41613  17.689   7.677  14.739 -0.1351 -0.3842  0.0020
25480W        W41614   1.637  10.748  14.838 -0.1407  0.0069 -0.2410
25481W        W41615  12.900   9.575   1.930 -0.2593 -0.2027 -0.0606
25482W        W41616  12.639  15.700  12.489  0.2679  0.0209 -0.0254
25483W        W41617   7.844  17.246   3.427  0.2061 -0.0110 -0.0603
25484W        W41618   1.874  14.291   5.935  0.2121 -0.2968  0.2049
25485W        W41619  15.942   2.374   1.885  0.2757  0.1568  0.0662
25486W        W41620  14.697  11.077  15.879 -0.1140 -0.1517  0.1309
25487W        W41621   4.481   4.477   1.367  0.2445  0.4091  0.0375
25488W        W41622   9.346   1.530   1.274 -0.3552 -0.0613  0.0796
25489W        W41623  16.872   3.053  15.720  0.1579 -0.0561  0.3402
25490W        W41624  14.633  10.127  12.832  0.3419  0.1588  0.2597
25491W        W41625   5.222  16.235  13.475  0.2325 -0.3317  0.1337
25492W        W41626  15.656   1.126  13.249  0.1128  0.0893 -0.2638
25493W        W41627  14.940  15.621   1.728 -0.0727 -0.1131 -0.0405
25494W        W41628  11.425  12.886  14.033  0.0685 -0.3135  0.1819
25495W        W41629   6.209   5.817   2.430 -0.2855 -0.1973 -0.1946
25496W        W41630   9.939   9.170  15.458 -0.2648  0.4920 -0.3037
25497W        W41631   8.976  13.350   1.503 -0.0565  0.0262  0.1312
25498W        W41632   7.744   5.695   1.025 -0.2435 -0.3673 -0.0235
25499W        W41633   9.654   9.086  10.901 -0.0617  0.0907 -0.0524
25500W        W41634  14.665  14.414  15.466 -0.1015 -0.1856 -0.2045
25501W        W41635   5.860   3.980   0.836  0.0096  0.0414  0.0416
25502W        W41636   4.989  12.013   3.210  0.4951 -0.2569  0.4389
25503W        W41637   6.846   1.952  13.690 -0.1752  0.2645 -0.2477
25504W        W41638   8.585  15.121   2.802 -0.0136  0.1178 -0.0152
25505W        W41639  17.608  13.517   5.727 -0.3348 -0.3377  0.1735
25506W        W41640   7.617   1.139  12.365  0.1508  0.0562 -0.0683
25507W        W41641  14.229   7.523   2.222  0.2702  0.1287  0.2423
25508W        W41642   9.613  12.284   2.176 -0.3101  0.4310  0.0470
25509W        W41643   2.535  17.236   4.904  0.0041 -0.0138 -0.1430
25510W        W41644  14.426  16.174  12.157 -0.5251  0.0212 -0.1524
25511W        W41645   4.123  17.178  12.357  0.2134 -0.1326  0.0320
25512W        W41646   7.479  15.474   0.634  0.1823  0.0227 -0.1689
25513W        W41647  17.003  11.840  16.643  0.1183  0.1005  0.0024
25514W        W41648   8.841   4.861  13.729  0.1757  0.0375 -0.0087
25515W        W41649  12.818   2.755  11.696 -0.0135 -0.0071 -0.0981
25516W        W41650   3.284   7.595  14.958 -0.3213  0.0959  0.1139
25517W        W41651  10.191   2.350  12.298  0.0462 -0.0547  0.1999
25518W        W41652   2.491  13.274   0.325 -0.1314 -0.0340  0.1285
25519W        W41653   2.951  10.864  13.167  0.0159 -0.1103 -0.3450
25520W        W41654  12.477   2.887   4.619 -0.1698  0.0552  0.0290
25521W        W41655  10.800   7.194   0.332 -0.2659 -0.0515  0.0129
25522W        W41656   8.420  12.076  15.558  0.1934 -0.0788 -0.3005
25523W        W41657   6.046  10.582  12.657  0.0944  0.2534 -0.0392
25524W        W41658   4.781   9.248  12.961  0.0954  0.1145 -0.0348
25525W        W41659   4.232  15.180  12.290 -0.1865 -0.0883 -0.1069
25526W        W41660   3.442  16.627   4.599 -0.1033 -0.1667 -0.1188
25527W        W41661  16.166  11.452   4.503  0.2890  0.0362  0.0797
25528W        W41662  12.169   9.058   3.832 -0.1258  0.0205 -0.0272
25529W        W41663   6.397  10.753   1.492 -0.1036  0.1744 -0.0822
25530W        W41664  13.352   1.258   2.307  0.3307  0.3113  0.0278
25531W        W41665   9.370   2.655   4.350  0.1969 -0.1436 -0.2214
25532W        W41666  14.986   3.651   2.758  0.1281  0.0469 -0.0239
25533W        W41667   7.516   5.203  13.036  0.3829  0.1149  0.0558
25534W        W41668  11.243   2.969   2.465 -0.2510  0.0419 -0.1895
25535W        W41669   6.808   6.239  12.874 -0.2118 -0.3194  0.0988
25536W        W41670   7.510  14.924   0.459 -0.1523 -0.1444 -0.0684
25537W        W41671  14.501   4.698   2.739 -0.0549  0.3437  0.4858
25538W        W41672  11.781   7.769   4.349  0.1033  0.1203  0.0589
25539W        W41673   7.239  14.212  11.127  0.0551 -0.2006 -0.2469
25540W        W41674   8.071  10.514   4.661  0.0985 -0.0395 -0.2538
25541W        W41675   0.048   4.978   4.391  0.0495 -0.0963 -0.2219
25542W        W41676  12.033  15.866   3.696 -0.3710 -0.0671 -0.2309
25543W        W41677   2.997   5.105  12.710 -0.2233 -0.1365  0.1126
25544W        W41678   2.945   9.087  16.153  0.2934  0.1105 -0.1415
25545W        W41679   4.756  13.079   2.266  0.3789 -0.3313  0.1643
25546W        W41680   2.331   6.986  10.692 -0.0116 -0.2267  0.0401
25547W        W41681   6.829   7.265   1.250  0.2385  0.0827 -0.1044
25548W        W41682  15.958  13.436  13.988  0.1300 -0.0114  0.0417
25549W        W41683  13.911  10.113  16.334 -0.2295  0.0229 -0.1817
25550W        W41684   7.795  10.906   0.530  0.1680 -0.2064 -0.1101
25551W        W41685  12.713  15.666  11.597 -0.3444  0.1800 -0.0879
25552W        W41686  15.818  10.296  11.249 -0.0842  0.1691 -0.0579
25553W        W41687   9.504   1.290  15.361  0.1659 -0.1509  0.1275
25554W        W41688  12.124   6.069   3.830  0.0240  0.0066  0.1678
25555W        W41689   2.661  14.541  13.584 -0.1137  0.2413 -0.0903
25556W        W41690  16.724   2.996   4.552  0.1564 -0.0308 -0.0217
25557W        W41691  15.974  10.904  13.844  0.1747  0.3208 -0.0442
25558W        W41692  16.059  13.533   4.120 -0.2912 -0.1897  0.0702
25559W        W41693  11.257  12.234   5.359  0.1247 -0.1855  0.3598
25560W        W41694   6.565  11.775  13.768 -0.0046 -0.0802  0.0110
25561W        W41695  14.931   1.423  16.086  0.1816 -0.1236  0.2322
25562W        W41696  12.831  10.386   0.199  0.0728  0.0590 -0.0791
25563W        W41697  14.605  10.783   4.476  0.2099  0.1798 -0.1446
25564W        W41698  17.011   6.453   0.527 -0.1027 -0.2655  0.2301
25565W        W41699   0.322   2.993   3.798  0.0666 -0.1538 -0.2123
25566W        W41700   3.699  11.227  12.087  0.1589  0.3208  0.1113
25567W        W41701   3.205   1.134   5.492  0.0293 -0.0303  0.3660
25568W        W41702   0.781   2.387   0.209  0.2372 -0.0159 -0.2783
25569W        W41703  16.340  12.865  15.226 -0.0396  0.1293 -0.2248
25570W        W41704  14.855  14.793  15.984 -0.2290 -0.0749  0.0459
25571W        W41705   3.724   6.362  11.655 -0.0918 -0.2000  0.0656
25572W        W41706  14.630   9.919   4.149  0.0539  0.2627  0.2905
25573W        W41707   0.676   4.324  14.958  0.1179  0.0334  0.0603
25574W        W41708   1.765   6.313  14.106 -0.1901  0.4819  0.0059
25575W        W41709   8.324   7.120   2.154 -0.4434 -0.0338 -0.1476
25576W        W41710   6.910   8.580   0.068  0.2800  0.1475 -0.1286
25577W        W41711   6.764  13.688   3.664 -0.0062 -0.0664  0.1567
25578W        W41712   0.904   0.885  12.379 -0.0801 -0.1042  0.1047
25579W        W41713   0.076  11.122  16.419 -0.0070  0.0996 -0.3292
25580W        W41714  14.985   6.740   3.561  0.0297  0.1285  0.0135
25581W        W41715   6.181  13.293   0.420  0.0519 -0.1105  0.0271
25582W        W41716   7.148   4.330  13.497 -0.2660 -0.3063 -0.1328
25583W        W41717   1.883  11.106   3.801 -0.2750  0.0641 -0.2297
25584W        W41718   0.450  11.531  15.910  0.3952  0.3502 -0.3037
25585W        W41719  11.553   3.115   3.941  0.0347  0.0216 -0.2358
25586W        W41720  13.237   7.482  10.790 -0.2265  0.3048 -0.0923
25587W        W41721  11.267   6.075  14.513  0.0170 -0.0144 -0.2501
25588W        W41722   8.758  11.401  12.236 -0.0369 -0.4062  0.3531
25589W        W41723  16.173  10.359  15.977  0.0123  0.0971 -0.1695
25590W        W41724  10.252   6.433   3.240 -0.2882  0.1066 -0.0163
25591W        W41725   4.534   7.644  12.983 -0.1767 -0.3226 -0.1172
25592W        W41726   0.037  12.206  15.208  0.0335 -0.2567 -0.1077
25593W        W41727  14.199  16.245   1.838  0.1065  0.0511 -0.1484
25594W        W41728   1.279   7.550   5.705 -0.2477 -0.0931 -0.1334
25595W        W41729   9.795  13.341   0.971  0.0554  0.1034  0.0368
25596W        W41730   3.421  15.633  14.656  0.2587  0.0001  0.2202
25597W        W41731   7.983  13.182   4.717  0.0494  0.0847 -0.0466
25598W        W41732   6.810  17.234  11.238 -0.2171  0.0737 -0.2518
25599W        W41733   9.437  15.636  16.030  0.0599  0.1826  0.0840
25600W        W41734   0.013   9.310  14.678  0.1212 -0.2487 -0.1597
25601W        W41735   9.567   9.518  12.032 -0.1044  0.1409 -0.2172
25602W        W41736  15.930  16.442  16.676  0.3261 -0.3639  0.1134
25603W        W41737   4.377   8.307   0.025  0.3679  0.3857  0.1144
25604W        W41738  17.950   6.415   5.927 -0.3810 -0.0578  0.0277
25605W        W41739  16.021   1.541   4.022 -0.0660  0.0519 -0.0866
25606W        W41740  15.066  12.068   4.330  0.0062  0.0269  0.2992
25607W        W41741  13.247   7.840   2.898 -0.2060 -0.0274 -0.2993
25608W        W41742   7.383  14.983  11.804 -0.0495 -0.1031 -0.0964
25609W        W41743  15.121  17.486   3.579  0.1241  0.0259  0.0888
25610W        W41744   0.215   2.975   1.343  0.1156 -0.3697 -0.0287
25611W        W41745  13.194  15.558  15.800 -0.0050 -0.1885 -0.0768
25612W        W41746  10.645   9.433  15.427 -0.1491 -0.0026  0.0852
25613W        W41747   9.043   1.333   0.371 -0.1130 -0.0924 -0.1657
25614W        W41748  15.410  14.533   3.607 -0.0392  0.0505 -0.0994
25615W        W41749   1.400  10.382   3.249  0.2724 -0.2961 -0.0039
25616W        W41750   0.722   6.058   3.299 -0.3506 -0.3962 -0.3083
25617W        W41751   5.152  13.809   1.395  0.5181 -0.5045 -0.1773
25618W        W41752   1.033  16.912   2.582  0.0996 -0.0169  0.0308
25619W        W41753  15.244   8.848  14.583  0.4512  0.0437  0.1990
25620W        W41754  10.555  16.766   2.779 -0.0066 -0.0197 -0.1042
25621W        W41755  11.712   0.025   2.591 -0.0981  0.1321  0.0189
25622W        W41756   0.296   6.444  16.438 -0.1739 -0.0427  0.0511
25623W        W41757  11.378   1.270  12.563 -0.0821 -0.2592 -0.1198
25624W        W41758  11.751   5.151   0.679  0.1515  0.0584  0.6103
25625W        W41759  14.214   2.945   3.584  0.0844  0.1406  0.2339
25626W        W41760   8.297   4.895   0.961 -0.0682 -0.4256 -0.2754
25627W        W41761   8.142  14.802   3.598  0.0256 -0.0451  0.1193
25628W        W41762   4.680  10.896   0.750 -0.0065  0.2445  0.1959
25629W        W41763  10.891  14.607  14.341  0.0639  0.1875 -0.1575
25630W        W41764  17.413  13.993   5.003  0.0768  0.0196  0.2246
25631W        W41765   5.837   6.243   5.082  0.1626  0.2090  0.0592
25632W        W41766  10.133  13.523   0.589  0.2989 -0.0970  0.0084
25633W        W41767   1.488  15.111   0.319  0.1899  0.0992  0.0918
25634W        W41768  11.036   6.464  16.409 -0.1136  0.2646 -0.0869
25635W        W41769  13.649  12.904  13.841 -0.1955  0.1739  0.0212
25636W        W41770  13.954   5.186   0.387 -0.0968  0.3184  0.0444
25637W        W41771  13.384   7.276   1.510 -0.0016 -0.1094  0.0041
25638W        W41772   0.510   9.508  11.682  0.1728  0.2252 -0.0601
25639W        W41773   8.621  12.484   2.032 -0.0756 -0.0077  0.1250
25640W        W41774  12.536   8.287  11.627 -0.1845 -0.1478  0.2929
25641W        W41775  15.043   1.732  11.509 -0.0431 -0.2014 -0.1146
25642W        W41776  10.906  17.466  11.439 -0.3953  0.0408  0.2970
25643W        W41777   5.134  14.516   0.919  0.0547  0.2639 -0.0123
25644W        W41778   3.285   5.008   6.120 -0.1194 -0.0416  0.1873
25645W        W41779   5.596  17.614  16.209 -0.0583  0.2579 -0.0380
25646W        W41780  16.026  11.131  12.331  0.1936 -0.4408  0.1760
25647W        W41781   9.639  10.412  16.349  0.1313  0.1783 -0.4018
25648W        W41782   2.104   2.618   3.395 -0.0443 -0.0756 -0.0616
25649W        W41783  10.264  12.696  16.252 -0.2196 -0.2616  0.1353
25650W        W41784  13.264   7.557   3.381 -0.1223 -0.1899 -0.1176
25651W        W41785   5.840  16.229  13.870 -0.1249 -0.0604 -0.1930
25652W        W41786   2.891   8.839   0.123  0.2359  0.0602 -0.0053
25653W        W41787   5.292   7.072  13.078 -0.2111 -0.1424  0.1198
25654W        W41788  17.910   7.777  15.864  0.0478 -0.2116 -0.1810
25655W        W41789   2.830  13.268   3.703 -0.1520  0.2299  0.0860
25656W        W41790  12.803  17.210   2.866  0.1130  0.0001 -0.2311
25657W        W41791   9.848   1.030  14.966 -0.3045  0.0983 -0.0665
25658W        W41792  17.367   8.747   5.502 -0.0532 -0.0547 -0.1905
25659W        W41793   2.841  17.153  14.550 -0.3367  0.0846 -0.1497
25660W        W41794   7.092   2.878  16.529 -0.1110 -0.1713  0.1456
25661W        W41795  14.101  17.176   1.938  0.0147 -0.1351 -0.0941
25662W        W41796   4.921  13.317  11.706  0.3624  0.3266  0.0498
25663W        W41797  14.028  11.710   5.086 -0.1322 -0.1111  0.2669
25664W        W41798  11.135   0.570  15.658  0.3742  0.2408 -0.3619
25665W        W41799   9.538  11.946   4.067 -0.0565  0.0113  0.0279
25666W        W41800   2.589  16.054  14.746  0.3350 -0.2165 -0.1480
25667W        W41801  16.100   4.563  12.064  0.0033  0.0167 -0.3466
25668W        W41802   3.261   3.573   1.959  0.0275 -0.1153 -0.3241
25669W        W41803   2.562  11.025   1.246  0.1176 -0.0393 -0.2139
25670W        W41804   7.431   6.611  14.834 -0.0390  0.1400  0.2190
25671W        W41805  13.914   5.855   2.349 -0.0983  0.1452 -0.1179
25672W        W41806   5.914   9.421   5.695  0.0132 -0.1008  0.0769
25673W        W41807   3.572   2.504   0.144 -0.0788  0.0697 -0.3103
25674W        W41808  16.610  17.033  12.390 -0.1235 -0.3179 -0.1091
25675W        W41809   9.915  11.708  14.609  0.1923  0.2155  0.0972
25676W        W41810   0.578   8.703  15.030  0.3035 -0.2657 -0.1327
25677W        W41811  12.727   0.187  13.012 -0.0499 -0.2981  0.0424
25678W        W41812   8.750  12.581  15.677  0.0053  0.2900 -0.0641
25679W        W41813  11.784  11.377   0.411  0.1375 -0.0788 -0.1066
25680W        W41814   4.481   1.630   4.429 -0.3627  0.2630  0.0659
25681W        W41815   3.048  15.581   1.683  0.1645 -0.1372 -0.0195
25682W        W41816  14.424  11.812  14.773  0.2002  0.1450  0.0316
25683W        W41817   8.650   7.612  13.362  0.4798 -0.2895  0.1167
25684W        W41818  13.166  12.470   0.748  0.2115  0.2047  0.4145
25685W        W41819  10.347   6.598   0.628 -0.1144  0.4512 -0.1573
25686W        W41820  11.134   4.283  14.859  0.1584 -0.1268 -0.2461
25687W        W41821   0.370   5.893   0.595  0.0093 -0.0860  0.1066
25688W        W41822   8.758  17.893   4.121  0.2656 -0.1124 -0.0613
25689W        W41823  10.959  13.910   3.179  0.1987  0.2407  0.0700
25690W        W41824  11.569   3.353   2.602 -0.2585 -0.2149  0.0679
25691W        W41825  11.517  16.552  16.029 -0.2357 -0.1127  0.2749
25692W        W41826  16.152  10.582   3.074 -0.1400  0.0747 -0.1207
25693W        W41827   0.411  10.324  14.180  0.0082 -0.1379 -0.2876
25694W        W41828  12.055  16.266  13.548 -0.1395  0.3629  0.0345
25695W        W41829  13.315   5.432   5.218  0.1489  0.0678 -0.1859
25696W        W41830  13.598   5.122  14.377 -0.0392  0.0248 -0.3067
25697W        W41831   0.060  11.188  14.944  0.1238 -0.1375 -0.0491
25698W        W41832  10.227   4.858   4.043 -0.0169 -0.0837 -0.2657
25699W        W41833  17.981   8.072   4.452  0.0686 -0.0170  0.5939
25700W        W41834  13.343   1.665  11.600 -0.1782  0.0978  0.0467
25701W        W41835   1.174  12.196  12.861  0.0841  0.1536 -0.0796
25702W        W41836  13.885   3.565   1.854  0.0832 -0.3152  0.0094
25703W        W41837  16.449  14.749   5.397 -0.2114  0.1000 -0.2212
25704W        W41838  11.069   5.136   5.668  0.0360 -0.1219 -0.0410
25705W        W41839   7.286  16.163  15.930  0.1908 -0.0929  0.1200
25706W        W41840  11.064   6.951  12.230 -0.1982  0.0380  0.4187
25707W        W41841   3.884   7.606   0.545  0.0078 -0.2014 -0.1503
25708W        W41842   0.268  11.607   0.621  0.0300 -0.0238 -0.1191
25709W        W41843   4.707  12.605   3.666 -0.0225 -0.0538 -0.1674
25710W        W41844   5.296  11.029  12.121 -0.1255 -0.1997 -0.3681
25711W        W41845  15.562   0.163  15.547 -0.1411 -0.3663 -0.0218
25712W        W41846   2.597   9.436   2.741  0.1643 -0.1361 -0.3012
25713W        W41847   9.604   6.004   0.904 -0.1566  0.0331  0.0522
25714W        W41848   0.854   4.366  16.398 -0.0125 -0.1889 -0.1572
25715W        W41849   4.807  16.137   4.807 -0.0508  0.1265  0.1139
25716W        W41850   4.357  13.058   0.814 -0.0688  0.3131 -0.0407
25717W        W41851   5.266  17.685   2.454 -0.2475 -0.2067 -0.4292
25718W        W41852   7.610  15.619   3.625  0.0642  0.1393 -0.0433
25719W        W41853  11.959  13.432  14.560  0.0242 -0.3473 -0.1225
25720W        W41854   5.155  11.655   0.502  0.0154  0.1182  0.1420
25721W        W41855  16.933   1.118  14.207  0.1423  0.0008  0.2876
25722W        W41856   1.287  14.749   4.792  0.0328 -0.3196  0.0664
25723W        W41857   5.738   8.938  14.652 -0.0330  0.1345 -0.0772
25724W        W41858   8.865  11.410  13.039 -0.0130  0.0667 -0.0707
25725W        W41859   4.014   9.681  15.837  0.1226  0.3174  0.0329
25726W        W41860   2.329  14.735   1.621  0.1346 -0.0310  0.0909
25727W        W41861   0.862   8.972   0.652  0.4015 -0.0654 -0.2949
25728W        W41862   3.285  12.291   1.099 -0.1295  0.0740 -0.0968
25729W        W41863   2.498   9.022  12.615 -0.2669 -0.2608  0.2447
25730W        W41864  10.119   5.895  12.447  0.0936 -0.0760  0.0780
25731W        W41865   6.749  14.579   1.142 -0.1569  0.1184 -0.4554
25732W        W41866  16.647   2.432  13.302 -0.0671  0.1076 -0.0516
25733W        W41867  13.363   7.621  13.466  0.3140 -0.3155  0.1469
25734W        W41868   8.847   0.077  16.081  0.1480 -0.0880  0.3261
25735W        W41869  16.777   9.093   2.363 -0.0022  0.2656  0.2700
25736W        W41870  15.249   3.554  14.231  0.0402 -0.0113  0.2053
25737W        W41871   7.281   0.213  14.712 -0.0397  0.1046 -0.1464
25738W        W41872  10.599   8.515  15.889  0.3094 -0.1799 -0.0509
25739W        W41873  11.171   7.550   3.675 -0.0985 -0.0148 -0.0413
25740W        W41874   3.671  10.713  12.130 -0.1632  0.0831  0.1544
25741W        W41875   7.386   2.973  12.791  0.2083 -0.2312  0.0920
25742W        W41876  12.463   9.647  15.244 -0.1889 -0.3903  0.0316
25743W        W41877   1.763  13.325  12.642  0.1750 -0.1302  0.1773
25744W        W41878  16.767   0.599  13.191  0.0778 -0.2860 -0.0996
25745W        W41879   2.752  15.526   1.265 -0.3289  0.0132 -0.2762
25746W        W41880   5.962   9.754   3.931 -0.0971  0.3458  0.2742
25747W        W41881   9.693   6.473  14.373 -0.1445  0.2859 -0.2002
25748W        W41882   1.248   6.851  15.639  0.0338 -0.0893 -0.0834
25749W        W41883   0.612   9.175   5.891 -0.0761  0.0191  0.3932
25750W        W41884   3.849   9.164  15.799  0.0568 -0.0418 -0.0673
25751W        W41885   6.542  11.432  14.586  0.5534  0.0230  0.2870
25752W        W41886  14.627  14.116   5.822 -0.1682  0.1028  0.2945
25753W        W41887   9.355  13.581  13.507  0.0689 -0.1549 -0.1901
25754W        W41888   5.289  12.123   0.541  0.1314 -0.1461  0.0675
25755W        W41889  16.103   4.844   1.591 -0.1228 -0.0117  0.0808
25756W        W41890  11.455  14.307  15.353 -0.0418  0.0401  0.2594
25757W        W41891   9.531  12.683   2.968  0.0144 -0.2573 -0.1766
25758W        W41892  16.638   6.175  13.188  0.0082  0.3175  0.0681
25759W        W41893   6.886   5.330   2.241 -0.3311  0.1632 -0.0831
25760W        W41894  11.767   4.817   3.611  0.2879  0.0557  0.1432
25761W        W41895   0.746  12.059  14.079  0.0832 -0.0353  0.1568
25762W        W41896   9.433   6.686  15.734 -0.1680 -0.2258 -0.0389
25763W        W41897  14.419   3.464   1.464 -0.2139 -0.0143  0.0026
25764W        W41898   2.007  15.959  14.895 -0.1664  0.0342 -0.0889
25765W        W41899  17.515  14.172  16.511 -0.0715  0.1636  0.1336
25766W        W41900   0.775   5.709   1.453  0.2817  0.1423  0.3003
25767W        W41901   3.324   2.977  12.407  0.1726 -0.0579 -0.2327
25768W        W41902   7.489   9.808  13.891 -0.2184  0.0231 -0.0546
25769W        W41903  12.067   3.078   4.421  0.1225  0.2508  0.0144
25770W        W41904  12.336  16.779  11.772 -0.1862  0.0630 -0.2168
25771W        W41905  13.772   4.228   0.018 -0.2616 -0.0777  0.0878
25772W        W41906  12.651  13.481  15.278 -0.1620  0.2753 -0.3283
25773W        W41907  14.482  12.613  13.650  0.1924  0.2045 -0.1198
25774W        W41908  13.845  16.388  15.722  0.0607 -0.4291  0.0260
25775W        W41909   2.655  11.413  13.629  0.0996  0.0960  0.2268
25776W        W41910   3.250   7.236  11.845 -0.2254 -0.3109 -0.1525
25777W        W41911   3.840  11.780  12.858 -0.0473  0.0702  0.0765
25778W        W41912   4.541  16.433  14.221  0.2714  0.1773  0.1142
25779W        W41913   4.690   2.587  13.264  0.2819  0.0874  0.0202
25780W        W41914  11.348  16.212   4.272  0.0756  0.0389 -0.0307
25781W        W41915  11.488   5.686   0.813  0.3516  0.0121 -0.1211
25782W        W41916   9.542  16.238   0.623  0.1445  0.1618  0.0880
25783W        W41917   1.449  10.327  14.130 -0.2868  0.3430 -0.1601
25784W        W41918   7.050  13.288  14.481  0.0377  0.1858 -0.2587
25785W        W41919  10.907  10.805   2.510  0.0684 -0.2964 -0.0998
25786W        W41920   3.850   7.609  14.997 -0.2475  0.0015  0.3269
25787W        W41921   8.804  15.530  14.820 -0.0729  0.4319  0.3292
25788W        W41922  12.354   5.839  13.185  0.1009  0.0876  0.1140
25789W        W41923   3.486   8.856  16.056  0.0721 -0.4518  0.0165
25790W        W41924   2.387  17.405  15.009 -0.2632 -0.0188  0.1024
25791W        W41925   5.725   0.381  16.661  0.1256  0.1351 -0.1160
25792W        W41926  10.551   0.921   2.945  0.1657 -0.1076 -0.1337
25793W        W41927  10.937   5.532   0.927 -0.2003  0.0649  0.2804
25794W        W41928   5.854  15.706   1.668 -0.1360  0.1491  0.0679
25795W        W41929   4.318  12.769  15.873  0.1680 -0.3301 -0.1116
25796W        W41930  13.723   6.485  16.020 -0.2066  0.1655  0.3293
25797W        W41931   5.299  12.599  15.801 -0.0604 -0.0761  0.2451
25798W        W41932   2.707   0.211   4.561  0.1041  0.0182  0.1940
25799W        W41933   6.304  14.074  12.775 -0.0213  0.1537  0.0627
25800W        W41934   5.474   1.059   3.055 -0.0676  0.1038  0.0179
25801W        W41935  17.003  10.813   1.216 -0.0355  0.0205  0.2883
25802W        W41936   1.835   9.561   4.331 -0.0516 -0.2297 -0.1027
25803W        W41937  15.783  16.567   6.153 -0.1585  0.1924  0.1868
25804W        W41938  17.796   9.133   4.233  0.0719  0.1680 -0.2565
25805W        W41939  16.232   5.729   0.346 -0.2735 -0.0995 -0.5047
25806W        W41940   5.214   0.077   1.712 -0.0073 -0.2684  0.2347
25807W        W41941  17.189  13.848   2.967  0.0538 -0.1317 -0.0386
25808W        W41942  14.472  17.955  13.211  0.0512 -0.0752  0.0128
25809W        W41943  13.427  16.879  11.727 -0.1119  0.2334 -0.0755
25810W        W41944  14.720   8.686  12.690  0.0420  0.0850  0.1905
25811W        W41945  14.448   5.249  13.013 -0.1000  0.1608 -0.0144
25812W        W41946   7.503   5.228  12.000 -0.0425 -0.0171 -0.0936
25813W        W41947  12.935  14.310  12.362  0.1668  0.1056 -0.0510
25814W        W41948   2.882   4.186   4.695  0.2498  0.1145  0.0799
25815W        W41949   1.568   8.792  14.622  0.2019 -0.0953  0.0910
25816W        W41950   6.360   8.553   0.185 -0.1204  0.3552 -0.0606
25817W        W41951   3.680   3.056   2.166  0.0100 -0.0339  0.0017
25818W        W41952   9.711  15.347  12.128  0.0877  0.0879 -0.3739
25819W        W41953   8.083  15.324  10.755  0.0774  0.2981 -0.0375
25820W        W41954  17.427  13.795   3.855 -0.0823  0.0486 -0.0564
25821W        W41955  14.347  15.897  16.219  0.0985 -0.2281  0.2809
25822W        W41956  17.734  17.305  13.466 -0.2294 -0.3114 -0.1853
25823W        W41957  15.011  17.454   0.003 -0.1430 -0.2067  0.0535
25824W        W41958   7.607   3.587   1.950 -0.3453 -0.2878 -0.0854
25825W        W41959  14.039  11.104  15.150  0.1870 -0.3336 -0.2832
25826W        W41960  10.451  11.582   0.181 -0.0289 -0.2927  0.0359
25827W        W41961  10.173   3.142   1.944  0.1147 -0.1416  0.0118
25828W        W41962  14.071  11.977   2.038 -0.1856 -0.0615  0.2362
25829W        W41963   1.916   7.458   2.560  0.0620  0.1640  0.0845
25830W        W41964   0.604   3.429  15.148  0.2810 -0.2814 -0.2804
25831W        W41965  16.072   4.174   1.528  0.0453 -0.1386 -0.1868
25832W        W41966  16.631   1.116   2.486  0.2080  0.0991  0.0528
25833W        W41967  12.735   7.772   1.977  0.2706 -0.0295  0.2097
25834W        W41968  11.037  15.957  14.091 -0.5081 -0.0335 -0.1050
25835W        W41969  10.222   4.086  15.752  0.0448  0.2940  0.0976
25836W        W41970  11.227  14.847   0.557  0.2937 -0.0305 -0.2159
25837W        W41971   9.843  11.944   5.798  0.1024  0.1384 -0.0155
25838W        W41972  11.447   9.968   2.736  0.0746  0.1105  0.1178
25839W        W41973   9.555   0.163   1.668 -0.0392 -0.0923  0.1538
25840W        W41974   1.200  16.286  13.387 -0.1083  0.0354 -0.0342
25841W        W41975  12.581   5.589  16.278 -0.0528  0.0698  0.1850
25842W        W41976   1.093   9.658  12.112 -0.1747  0.1482 -0.1971
25843W        W41977   5.891   9.619  14.485  0.0005  0.3249 -0.2368
25844W        W41978   1.640   5.588  16.327  0.3029  0.1494 -0.2151
25845W        W41979  10.879  11.350   1.130 -0.3423  0.1080  0.3010
25846W        W41980   7.915   2.834   6.198 -0.1695 -0.3076  0.1279
25847W        W41981   8.325   1.693   1.446 -0.1336 -0.0584  0.1586
25848W        W41982  10.693   7.320   2.068  0.0684 -0.0328  0.0590
25849W        W41983   2.717  17.377  16.294  0.0687 -0.3898 -0.3208
25850W        W41984  11.982  17.079  14.819  0.0756  0.0310  0.5064
25851W        W41985  12.156  14.129   0.524 -0.1924 -0.3609 -0.0615
25852W        W41986   9.901  17.727  11.655 -0.1002 -0.0390  0.1461
25853W        W41987  11.505   0.197  15.820  0.0262  0.0367  0.0164
25854W        W41988   3.694   3.234   0.692  0.0661 -0.1805 -0.3228
25855W        W41989   8.427   2.607  15.222 -0.1401 -0.2272 -0.0970
25856W        W41990   8.532   6.768  16.070  0.1606 -0.1108  0.1755
25857W        W41991  17.406  16.407  15.003 -0.0832 -0.1366  0.1303
25858W        W41992  16.072  12.798  12.982  0.0281 -0.1590  0.1894
25859W        W41993   6.763  11.385  14.121  0.1760 -0.0286 -0.1719
25860W        W41994  16.699   5.837  12.788 -0.2203 -0.0408 -0.1326
25861W        W41995   0.342  14.212   2.297 -0.0721 -0.2221 -0.0092
25862W        W41996  12.774  17.262   0.162  0.0251 -0.1949 -0.0216
25863W        W41997   4.506  12.603   4.163  0.0400 -0.0294  0.1272
25864W        W41998   1.067   5.776   2.963  0.2231 -0.0238 -0.2614
25865W        W41999   8.855   4.098  16.518  0.1763 -0.1099  0.1101
25866W        W42000   8.731   2.503  13.442  0.1206  0.1104 -0.1452
25867W        W42001  15.700   6.614   0.216 -0.0230 -0.0249 -0.1342
25868W        W42002  15.057   4.585   4.268  0.0962  0.0829  0.0835
25869W        W42003   9.527   5.470   6.278  0.2365 -0.2580 -0.2031
25870W        W42004  15.586   7.393  13.944 -0.0000 -0.2212 -0.1525
25871W        W42005  14.122   4.954   3.156 -0.3264 -0.2315  0.0282
25872W        W42006   4.782   1.108  12.809 -0.2896 -0.1266 -0.1146
25873W        W42007   1.286   1.899   1.840 -0.2216 -0.2453  0.1184
25874W        W42008  12.455  14.762  11.696 -0.0290 -0.1273  0.0976
25875W        W42009   7.197   0.257   6.280 -0.1114  0.0620  0.1885
25876W        W42010   2.923   6.768   1.194 -0.1437 -0.0657 -0.1553
25877W        W42011   5.333   7.390  11.713  0.0706 -0.3898  0.0826
25878W        W42012  14.319   9.658   0.794 -0.0028 -0.1044  0.1136
25879W        W42013  16.048   7.403   0.807  0.0499 -0.1030  0.0961
25880W        W42014   7.866  16.332  11.853 -0.0216  0.0993 -0.0739
25881W        W42015  17.359   7.025   3.817 -0.0203 -0.0320 -0.1127
25882W        W42016   4.897   9.990  14.953 -0.2523 -0.0611 -0.0931
25883W        W42017   9.636  17.360  14.558 -0.1169 -0.0249 -0.0210
25884W        W42018  10.610   7.778  13.617  0.1635 -0.0428 -0.0095
25885W        W42019   7.061   3.239  16.147 -0.0578 -0.0909 -0.0860
25886W        W42020  13.711   5.841   1.846 -0.0589 -0.1966  0.1582
25887W        W42021   9.195  13.320   3.968  0.0917 -0.1238 -0.0976
25888W        W42022  16.018   7.700  16.619  0.3100  0.1991 -0.3101
25889W        W42023   8.097  17.040  12.350 -0.2929  0.2688  0.1272
25890W        W42024   1.961   7.513  15.427 -0.2485  0.1427  0.2831
25891W        W42025   0.317  11.040   0.779 -0.2277 -0.1694  0.0516
25892W        W42026   8.225   7.400  13.301  0.1989  0.0617  0.0084
25893W        W42027   6.340  11.437  15.428  0.2264  0.0806 -0.2139
25894W        W42028   3.448  10.366   3.273  0.0214 -0.0803  0.2135
25895W        W42029  10.566  13.678   5.118 -0.1949  0.1872  0.6527
25896W        W42030  10.384  12.839   3.764 -0.0631 -0.1416  0.1547
25897W        W42031   2.521   7.165  16.240  0.3629  0.3256  0.1426
25898W        W42032  12.942  12.818   1.250 -0.0391  0.0611  0.2141
25899W        W42033   8.917   2.368   1.629  0.1793  0.1431  0.1980
25900W        W42034  17.072  17.251   0.574  0.0132  0.0306 -0.1375
25901W        W42035  17.579   4.138   2.455 -0.0189  0.2348 -0.0764
25902W        W42036   1.772   9.024  15.082  0.1759  0.1483 -0.1300
25903W        W42037  11.702  11.357  13.339  0.3303  0.2195  0.3342
25904W        W42038  15.245   3.187   1.186  0.0267  0.1969  0.0509
25905W        W42039  14.970   6.397   2.552 -0.0682 -0.1917  0.0142
25906W        W42040  13.221   5.512   4.749  0.2140 -0.0593 -0.3194
25907W        W42041  11.871  13.012  15.364  0.3577 -0.0105  0.2277
25908W        W42042   3.437  13.448  13.377  0.1819  0.0440 -0.2237
25909W        W42043  14.572  14.420   1.471 -0.0104  0.1185 -0.3393
25910W        W42044   9.702  17.068   2.895 -0.0469  0.2048 -0.0459
25911W        W42045  10.800   6.140   5.401 -0.0010 -0.0549  0.0359
25912W        W42046   8.813   4.490  11.647 -0.1273  0.0020 -0.1485
25913W        W42047  16.141   7.796  15.763 -0.0275 -0.0846  0.1625
25914W        W42048  11.019  15.114   1.007  0.0679  0.1052  0.3339
25915W        W42049  12.741  14.300   6.437 -0.0960 -0.3889 -0.1313
25916W        W42050   7.616   4.783  13.953 -0.2673 -0.0219  0.0033
25917W        W42051  15.942   7.583  12.670  0.2442  0.0246 -0.0516
25918W        W42052   8.144   8.339   5.614 -0.0868 -0.0427  0.0914
25919W        W42053  15.096   4.307  10.907  0.1516 -0.1534 -0.0318
25920W        W42054  12.398  16.017   2.846 -0.0924 -0.2063  0.2158
25921W        W42055  10.099  13.728   4.898  0.1112  0.0297 -0.2415
25922W        W42056  10.875   6.381  13.841 -0.2194  0.4198  0.1698
25923W        W42057   9.246  17.431   0.198  0.0508 -0.0040  0.1258
25924W        W42058  14.391  15.843   2.737  0.2009  0.1708 -0.0800
25925W        W42059   5.825  11.079  12.606  0.1853  0.0430  0.2783
25926W        W42060  13.025  14.823  16.170  0.4989  0.1262 -0.1506
25927W        W42061  10.706   5.289   2.926 -0.1092 -0.0943  0.0508
25928W        W42062   7.493  12.669  14.376  0.1065  0.1098  0.1786
25929W        W42063   3.423   9.784   4.460 -0.0943 -0.0214  0.0246
25930W        W42064   5.481  11.034   4.218 -0.2182  0.2997  0.2344
25931W        W42065  12.505   9.315   4.109 -0.2269  0.1096  0.0726
25932W        W42066  15.222   4.469  13.481 -0.1426 -0.1233 -0.0658
25933W        W42067   0.870  11.610   0.019  0.1726 -0.0713 -0.2018
25934W        W42068   1.861  17.328   5.197  0.0244 -0.0718  0.0330
25935W        W42069   6.337   0.962  14.170 -0.2184  0.0028  0.1089
25936W        W42070   4.270   0.532  15.188 -0.2205 -0.1333 -0.3681
25937W        W42071   4.749  16.763  14.626  0.1620  0.1525  0.0537
25938W        W42072  17.261   3.780  12.596  0.0249  0.1277 -0.0808
25939W        W42073   0.906   6.173   3.751 -0.4242  0.3790  0.0624
25940W        W42074  14.448   6.666  12.231  0.0605  0.0672  0.2527
25941W        W42075   7.872  17.804   2.418 -0.4081  0.1740  0.0023
25942W        W42076   6.336   1.119  16.633 -0.0695 -0.1496 -0.0006
25943W        W42077   3.775   0.594   0.113 -0.2010  0.0825  0.2562
25944W        W42078   2.736  15.843   0.805 -0.0323  0.2329 -0.0165
25945W        W42079   7.267   7.295   1.062  0.2408  0.3200  0.1280
25946W        W42080  13.640   5.505   3.133  0.0278 -0.0964 -0.1614
25947W        W42081   1.331   9.100   0.366 -0.0812 -0.0391 -0.1376
25948W        W42082  12.342  13.336  13.734  0.0749  0.2707  0.0740
25949W        W42083  15.180   1.198   0.790 -0.1742  0.2000 -0.1047
25950W        W42084   5.177  14.158  13.485 -0.1218 -0.0943 -0.2068
25951W        W42085  11.029   4.408   2.963  0.2310 -0.1768  0.0441
25952W        W42086  15.113  15.323   1.237 -0.1916  0.0130  0.0732
25953W        W42087   7.249   1.137   4.663  0.1695 -0.2052  0.1438
25954W        W42088   3.530  11.570  14.585  0.3539 -0.2204  0.1274
25955W        W42089  17.870  14.046  16.082 -0.2725  0.2673 -0.0037
25956W        W42090   5.826  13.024  12.092  0.0898 -0.1130  0.0075
25957W        W42091  16.395  15.428   4.873 -0.1712  0.4059  0.3039
25958W        W42092   1.168  13.263  16.081 -0.3199  0.0348 -0.2976
25959W        W42093  10.534  13.196  14.398  0.1160  0.1720  0.2940
25960W        W42094   5.999   5.474   2.875 -0.0662  0.1535 -0.2770
25961W        W42095  15.858   5.339   0.380 -0.0354  0.0374 -0.0081
25962W        W42096  13.200  14.922   1.732 -0.0575 -0.1703  0.2154
25963W        W42097  15.680   6.155   0.542  0.2129  0.0955  0.1243
25964W        W42098  14.866   7.949  12.191 -0.0259  0.1939  0.2093
25965W        W42099  11.534   0.474  14.335 -0.4635  0.0605 -0.0843
25966W        W42100   5.635  14.116   3.831  0.1621 -0.0977 -0.0786
25967W        W42101   8.685   6.787  12.702  0.0569 -0.1731  0.2178
25968W        W42102  11.500   5.606  13.202 -0.1895 -0.1057 -0.1181
25969W        W42103   6.243   0.511   5.994 -0.1012  0.1740  0.3289
25970W        W42104   0.873   4.115   2.483  0.2805 -0.1711 -0.1538
25971W        W42105   0.884   8.141   5.104 -0.0444 -0.2691  0.0699
25972W        W42106   2.626   1.662   0.696 -0.0219 -0.1041  0.0185
25973W        W42107  13.624   7.753   4.261 -0.1440 -0.0100 -0.0059
25974W        W42108  13.301   4.218   2.310 -0.2349 -0.0008 -0.0190
25975W        W42109   9.016  10.791  15.179 -0.0908 -0.0976 -0.2382
25976W        W42110  12.884  13.700  16.037 -0.0456  0.2652  0.0511
25977W        W42111  15.080   0.744   1.051 -0.2836  0.2390 -0.1049
25978W        W42112   2.055  15.543  16.571 -0.0647  0.1008  0.1979
25979W        W42113   3.726  12.406   0.312 -0.1220 -0.2082  0.2213
25980W        W42114  14.514   5.961  15.614 -0.0628 -0.0586 -0.3915
25981W        W42115  12.106   8.755  15.501 -0.1954  0.1752 -0.0169
25982W        W42116  15.132   2.653  12.459  0.0864 -0.0768  0.0557
25983W        W42117   9.959  14.841   3.719  0.0172 -0.0645 -0.0834
25984W        W42118  12.640  13.119  14.286  0.3265  0.0579 -0.0444
25985W        W42119   1.300  16.742  13.091 -0.1575 -0.1053 -0.3748
25986W        W42120   0.496  15.888   4.373  0.0871 -0.1019  0.0348
25987W        W42121   4.582  12.064  11.376 -0.1162  0.0079  0.0373
25988W        W42122   0.404   2.778   2.001 -0.1270  0.1141  0.3134
25989W        W42123  15.727  17.645  13.852  0.0560 -0.2399  0.0270
25990W        W42124   0.880   2.321  14.723  0.2335 -0.1754 -0.2444
25991W        W42125   1.601   8.518  16.240 -0.3178 -0.2901 -0.1147
25992W        W42126  11.832  15.603  16.124 -0.2357  0.0181 -0.1593
25993W        W42127   6.695   2.916  13.886 -0.0037  0.1354  0.0087
25994W        W42128   1.159   7.540  14.602  0.1430 -0.3273 -0.1669
25995W        W42129  11.608   8.148   3.899 -0.0145 -0.0164  0.0482
25996W        W42130  13.908   8.814   2.791  0.0774 -0.0800 -0.1909
25997W        W42131  11.687   4.347   5.033 -0.0588  0.1691  0.2340
25998W        W42132   1.315   3.894   0.942 -0.1137 -0.3899 -0.3560
25999W        W42133   8.683  11.590  16.397  0.2041  0.2459 -0.0378
26000W        W42134   3.056   0.325   1.615  0.0366  0.2197 -0.0963
26001W        W42135   2.091  11.312  13.480 -0.0859  0.1305  0.1193
26002W        W42136  14.824   9.997   1.629 -0.3355  0.0985  0.3292
26003W        W42137  10.936  16.275   5.101  0.2146 -0.0517 -0.2895
26004W        W42138  17.048  14.037  16.166  0.2266 -0.3739  0.1605
26005W        W42139  10.043  14.650   4.774  0.0091 -0.0718  0.2832
26006W        W42140  17.125   8.030   3.776  0.2473 -0.1592 -0.0913
26007W        W42141   8.722   7.285  15.081  0.0277  0.2621  0.1320
26008W        W42142   1.141   7.467  12.120  0.1090  0.0697  0.0002
26009W        W42143   2.701  11.700   0.028  0.0461  0.0306  0.0984
26010W        W42144   6.397  15.294   4.906 -0.1757 -0.1455  0.0465
26011W        W42145  13.792  14.331  15.992  0.3241  0.0741  0.1604
26012W        W42146   4.257   5.388   0.562  0.0297 -0.0255  0.0569
26013W        W42147   2.554   9.423  11.351 -0.1132  0.2761  0.2743
26014W        W42148   0.384   9.129   3.515 -0.2152  0.0166 -0.1943
26015W        W42149   8.114   8.965  15.232  0.3446  0.1853  0.1781
26016W        W42150   6.620   1.853   4.628 -0.1053 -0.0651 -0.2526
26017W        W42151   2.019   9.734  13.102 -0.1917  0.1208 -0.0638
26018W        W42152   3.063  14.479  15.300 -0.0024 -0.2187 -0.0579
26019W        W42153  12.978   4.011   0.440 -0.1760  0.0879  0.1675
26020W        W42154   6.634  12.395   0.740  0.0805  0.1474  0.0731
26021W        W42155  11.455   9.297  16.663 -0.0267 -0.2186  0.0415
26022W        W42156   4.645   7.438   3.632  0.2294 -0.2378 -0.2127
26023W        W42157   3.406   6.249  12.046 -0.1553 -0.0787 -0.1339
26024W        W42158  12.649   8.698  12.041 -0.2123  0.2618 -0.2681
26025W        W42159   2.736   8.064  12.584 -0.1733 -0.0566 -0.0318
26026W        W42160   7.564  15.828   1.522  0.1034  0.2793  0.1647
26027W        W42161   7.366   2.221  13.224 -0.0659 -0.4244 -0.0817
26028W        W42162   6.522   9.986  16.398 -0.0843  0.0528 -0.0648
26029W        W42163   9.084  12.781   4.308  0.1033  0.1267 -0.1309
26030W        W42164   2.881  16.473   1.527  0.1440 -0.1136 -0.1302
26031W        W42165   9.293   8.644   1.913  0.3567 -0.1681 -0.1099
26032W        W42166   9.023  14.440  13.761 -0.0360  0.2843 -0.2307
26033W        W42167   7.232   8.750  13.206  0.1641 -0.1954 -0.1290
26034W        W42168  16.052   2.544   2.357  0.0914 -0.3066  0.0020
26035W        W42169  12.853  12.658   3.002  0.0172  0.0241  0.0587
26036W        W42170   9.068  10.529  15.649  0.1791 -0.0451 -0.1795
26037W        W42171   5.467   5.665   4.953  0.1704  0.1194  0.1034
26038W        W42172   7.871   4.110   1.504  0.1853 -0.0583  0.2452
26039W        W42173   3.793   4.244  12.047  0.0046  0.2036  0.2669
26040W        W42174  17.728   3.419  11.637  0.2995  0.1553 -0.1858
26041W        W42175  14.881   8.628   1.073 -0.0344  0.1428 -0.6856
26042W        W42176   0.282   6.088   3.109  0.2949  0.0401 -0.1506
26043W        W42177   8.049  17.490   1.110 -0.1944  0.0004  0.1633
26044W        W42178   2.800  10.248   0.225 -0.1007  0.3047 -0.1225
26045W        W42179  10.374   2.139  15.700 -0.0552  0.0154  0.0089
26046W        W42180  11.213   8.300   1.946  0.1852 -0.1548  0.0517
26047W        W42181  15.261  10.581  13.334  0.0917 -0.0374 -0.0285
26048W        W42182  15.565  17.492   3.307  0.0205 -0.1887 -0.0056
26049W        W42183  13.008   6.729  13.344 -0.0915 -0.0224 -0.3518
26050W        W42184   6.921  17.616   0.608  0.3530  0.1272 -0.1624
26051W        W42185  11.007   9.426  14.518 -0.3458 -0.1251 -0.1556
26052W        W42186   6.376   6.727  15.055 -0.1297 -0.0376 -0.0730
26053W        W42187   6.257  11.397   2.225  0.1020  0.0100 -0.0774
26054W        W42188   8.864  12.351   1.626  0.0637  0.2754 -0.4002
26055W        W42189   9.200   2.391  11.247 -0.1092 -0.0383 -0.0577
26056W        W42190   3.324   7.343  16.093 -0.3155  0.0277  0.0514
26057W        W42191  14.694   4.774  15.127  0.1084  0.1384  0.0647
26058W        W42192  14.677   4.446   5.546 -0.0472  0.4087 -0.0950
26059W        W42193   8.272  17.223   1.821  0.1364  0.0387  0.0929
26060W        W42194  14.247   4.427   4.483  0.1880  0.2592 -0.0299
26061W        W42195  11.474   9.383   2.766 -0.3818 -0.0958 -0.0724
26062W        W42196  11.061  13.692  13.917 -0.1413  0.5617  0.0567
26063W        W42197   1.065  17.437  11.827 -0.0299 -0.1226  0.3965
26064W        W42198   1.809   5.157  16.077  0.0573 -0.0818 -0.0860
26065W        W42199   6.498   5.673  11.654 -0.0025 -0.2745  0.0211
26066W        W42200   6.797   0.421  13.087 -0.3111  0.0891  0.1862
26067W        W42201   7.946   7.660   2.873 -0.0672 -0.2553  0.0926
26068W        W42202  14.318  10.293   5.095  0.0630 -0.0737  0.1736
26069W        W42203  17.756   7.014   3.474 -0.4821 -0.0373  0.2615
26070W        W42204  17.338   8.882   1.578 -0.1431 -0.1627  0.0439
26071W        W42205  14.296   1.071  13.976  0.0189 -0.1857 -0.0959
26072W        W42206  15.684  13.174   1.808  0.0407  0.1251 -0.1957
26073W        W42207  16.752   1.453  12.412  0.3939 -0.4194  0.3258
26074W        W42208   0.086   6.415   0.273 -0.3117  0.2712  0.1222
26075W        W42209   8.277   6.040   2.389 -0.0866  0.3303  0.2165
26076W        W42210   1.044  13.584   3.856 -0.2008 -0.0807  0.1495
26077W        W42211   3.345  11.839  12.848 -0.1972 -0.0921  0.3888
26078W        W42212  17.655  16.292  13.288  0.0503 -0.0176  0.0037
26079W        W42213  10.502   8.046  15.721  0.1056 -0.1629  0.1739
26080W        W42214  10.489  17.673  12.431 -0.1807  0.1898  0.0275
26081W        W42215  16.251  11.567  12.863 -0.1365  0.0217  0.0898
26082W        W42216   9.736  11.144  12.317 -0.1204 -0.1141 -0.0648
26083W        W42217   5.770  15.673   4.343 -0.1890  0.2495 -0.3191
26084W        W42218   1.419   2.341   4.747 -0.3153  0.1373 -0.2463
26085W        W42219  13.398   8.999  15.551 -0.0594 -0.0085  0.0903
26086W        W42220  14.848   9.987  15.365  0.1100 -0.0982 -0.2911
26087W        W42221   2.526  12.163   2.430 -0.2928 -0.2317  0.0593
26088W        W42222  11.286  11.863  12.742 -0.0683  0.2887  0.1353
26089W        W42223  12.593   6.119   5.700 -0.0370  0.0653 -0.2428
26090W        W42224  12.786   2.054   3.076 -0.3635  0.0183  0.2435
26091W        W42225   2.640  15.428   0.479 -0.0235  0.0191  0.0345
26092W        W42226  16.803   2.541  14.505  0.1164 -0.3295  0.1176
26093W        W42227   3.322   0.290  13.293  0.1592  0.0706  0.0234
26094W        W42228   7.973  12.410  13.451 -0.0590 -0.2158 -0.0061
26095W        W42229  16.302  16.423   2.046  0.1012 -0.2696 -0.4076
26096W        W42230  17.274  12.756  13.768  0.0520 -0.0419 -0.1561
26097W        W42231  14.051   2.480   4.276 -0.0083  0.0072 -0.0078
26098W        W42232   1.994  17.184  11.478 -0.1952 -0.1717  0.0994
26099W        W42233   1.945  13.975  13.577  0.0607 -0.0688 -0.0993
26100W        W42234  12.969   3.230  11.919 -0.1264 -0.5516 -0.1204
26101W        W42235  17.363   2.305  11.698  0.1096  0.1334 -0.2219
26102W        W42236   7.604   1.462   3.632  0.3089 -0.1201  0.0086
26103W        W42237   7.730  12.356   4.687 -0.1002 -0.4034  0.1492
26104W        W42238  15.611  12.641   4.908  0.1271  0.2249 -0.2198
26105W        W42239  10.338  12.367  11.089 -0.0998  0.2255 -0.0417
26106W        W42240   7.325  15.437   2.305  0.4203  0.0484  0.0972
26107W        W42241  11.667   6.732   0.938 -0.0281 -0.0832  0.0280
26108W        W42242  17.864   9.242  12.697 -0.0648 -0.0042  0.1719
26109W        W42243   9.126  15.319   2.856  0.0067 -0.0129  0.1879
26110W        W42244  14.337   7.081   2.954  0.0454  0.1456  0.0368
26111W        W42245  16.178  14.400  16.346  0.0668 -0.1455 -0.1618
26112W        W42246   2.464   7.544   5.371 -0.0231 -0.0271 -0.4042
26113W        W42247  10.406   3.587  15.864 -0.1776 -0.0747  0.2170
26114W        W42248  10.111   5.572  12.846  0.0804 -0.1577  0.6012
26115W        W42249   2.361  12.013  14.198 -0.1740  0.1441 -0.3458
26116W        W42250   3.219  10.812   3.893  0.0581 -0.0844  0.1353
26117W        W42251  11.085  17.060   3.441  0.0527  0.1252 -0.4301
26118W        W42252  17.071  12.373   3.626  0.1188  0.2624 -0.1668
26119W        W42253   6.948   4.324   5.084 -0.1413 -0.0172  0.0097
26120W        W42254   1.798  10.066   4.021 -0.1885  0.2752  0.0133
26121W        W42255  15.269   6.728   3.976 -0.1822  0.2822 -0.2331
26122W        W42256   8.645  12.974   4.004 -0.0131 -0.0246  0.1515
26123W        W42257   9.220  16.880   0.353 -0.0217  0.2094  0.2423
26124W        W42258  14.634   6.034   4.981 -0.0461 -0.0900 -0.0629
26125W        W42259   0.984   6.383  15.643  0.2328 -0.0698  0.5326
26126W        W42260  12.306   8.760   1.324 -0.4890 -0.2790  0.0160
26127W        W42261  15.403  13.791  15.191  0.0197 -0.1612  0.2283
26128W        W42262   1.117   4.055  13.956 -0.0428 -0.0268 -0.0645
26129W        W42263   9.100   6.646  14.915  0.1224 -0.0075  0.1817
26130W        W42264   7.501  14.560  15.221  0.0431 -0.3934 -0.3148
26131W        W42265   3.480  15.838   1.522 -0.1958  0.0021  0.1294
26132W        W42266  15.433   7.497  13.396 -0.1806 -0.1393  0.0482
26133W        W42267  16.401   6.968   2.824 -0.2464  0.2300 -0.2005
26134W        W42268  13.771   6.542   1.054 -0.0579  0.2431 -0.0256
26135W        W42269   2.549  10.449   1.785 -0.0062 -0.1493  0.3330
26136W        W42270   6.736  17.082   4.900 -0.0161 -0.1981 -0.1143
26137W        W42271   0.088  12.291   4.026  0.1575  0.0771  0.1523
26138W        W42272   5.163  14.095   5.115  0.2081  0.0095 -0.2218
26139W        W42273   5.875  12.498  11.453  0.0864  0.1337  0.1581
26140W        W42274  13.958  15.388  14.476 -0.0322 -0.2124  0.0151
26141W        W42275   5.475   8.393  15.465  0.1079  0.0213 -0.1835
26142W        W42276   5.880  12.533  11.996 -0.3446 -0.0435 -0.0795
26143W        W42277  13.923   4.495  15.524 -0.0017 -0.3543  0.2004
26144W        W42278   2.218   0.603  13.026 -0.1786 -0.0032  0.1562
26145W        W42279  12.979   9.122   2.622  0.0581 -0.0660  0.0624
26146W        W42280   4.855   5.819  10.838 -0.0425  0.0542  0.0229
26147W        W42281   2.098  14.678   5.136  0.0311  0.2223  0.2344
26148W        W42282   2.772   7.142  11.780 -0.0484 -0.1753 -0.0840
26149W        W42283  16.058   9.066   2.599 -0.0140 -0.3115  0.0270
26150W        W42284  14.658   9.238  12.400  0.0258  0.0902 -0.1565
26151W        W42285   6.397  11.494   0.432 -0.1395 -0.3657 -0.2529
26152W        W42286  17.109  17.266   3.094  0.4130  0.0208  0.5007
26153W        W42287   7.862  11.617   3.637  0.1318 -0.3589  0.3294
26154W        W42288  12.463  15.589   3.090 -0.0073  0.3342  0.1863
26155W        W42289  17.507   0.426  12.770  0.3092  0.0334  0.1089
26156W        W42290  12.623  10.664  14.345  0.1487  0.0241  0.1515
26157W        W42291  12.272   7.905  15.637  0.1594 -0.1098 -0.2949
26158W        W42292   6.649   9.864   3.244  0.2324  0.0293 -0.0335
26159W        W42293  11.247   3.399   0.824  0.0924  0.2612 -0.0437
26160W        W42294   2.072  11.452   5.798  0.0729 -0.0307 -0.0734
26161W        W42295   9.356  11.967  12.920  0.0999  0.0275 -0.0138
26162W        W42296  13.625  11.418  13.499 -0.1865 -0.1370  0.0513
26163W        W42297  16.359  12.991  12.078  0.1403  0.0493  0.0363
26164W        W42298   4.276   1.669  11.438  0.0518 -0.0513 -0.3007
26165W        W42299  14.390  13.417   3.276 -0.4580 -0.1674  0.0284
26166W        W42300  11.901   0.801   0.967 -0.0165  0.0240  0.0495
26167W        W42301  15.549   5.043   3.230  0.0716 -0.1144 -0.3005
26168W        W42302  15.794   2.263   3.858 -0.1052  0.0917  0.1316
26169W        W42303  17.164   5.676  15.274 -0.2818  0.1991  0.0397
26170W        W42304  14.808  17.420  15.923 -0.2137  0.2648  0.0574
26171W        W42305   4.651   0.489  16.632 -0.2153  0.1029 -0.1019
26172W        W42306  15.472  15.764   5.195  0.2809  0.0448 -0.0106
26173W        W42307  13.317   8.791  14.503  0.1878  0.1708 -0.2306
26174W        W42308  13.604  14.980   2.790  0.0105  0.0218 -0.1979
26175W        W42309   9.431  14.680  13.488 -0.1263  0.0602  0.1715
26176W        W42310   9.832  14.822  13.806  0.3024 -0.3437 -0.4080
26177W        W42311   5.986   1.836   1.089 -0.1774  0.3153  0.2004
26178W        W42312  16.751   6.176  15.824 -0.2245  0.0825  0.0438
26179W        W42313   3.214  14.849   1.532  0.1510 -0.2119 -0.0759
26180W        W42314  13.956  17.600  14.474  0.1754  0.0137  0.1986
26181W        W42315  16.921   8.167   4.743 -0.1287  0.1413 -0.1883
26182W        W42316   8.787   1.775   2.165  0.4254  0.1835  0.0193
26183W        W42317   6.954  14.151   1.043  0.0622 -0.0754 -0.0241
26184W        W42318   8.210  11.113  15.983  0.2324 -0.3193 -0.2839
26185W        W42319  12.859   8.009   3.318  0.0923  0.3351 -0.1466
26186W        W42320  17.755  17.660   2.540  0.1183  0.3973 -0.0181
26187W        W42321  12.588   6.985  13.376 -0.0834  0.1384 -0.0314
26188W        W42322   6.996   9.378   1.260  0.2799 -0.1289 -0.0560
26189W        W42323   9.516   6.164   5.127 -0.1432 -0.0550 -0.4111
26190W        W42324  10.454   2.843   2.340  0.0417  0.1353  0.1949
26191W        W42325   4.687  17.361   4.620 -0.0446  0.0545 -0.0705
26192W        W42326   4.678  11.020   5.391 -0.1368 -0.4036 -0.0345
26193W        W42327  14.284   8.064   5.208  0.0895  0.0656 -0.0717
26194W        W42328  13.813  13.656  12.390  0.0632 -0.0551  0.1635
26195W        W42329   7.492   3.769  15.985 -0.1411  0.1626 -0.0474
26196W        W42330   4.278   8.723   3.910 -0.2807 -0.4362  0.1027
26197W        W42331   7.001  17.479  10.908 -0.1633  0.0776 -0.0222
26198W        W42332   3.079   1.738   0.463 -0.1816  0.1136 -0.3819
26199W        W42333  17.668  12.767  11.940  0.0775  0.1809  0.1632
26200W        W42334  13.552   0.661   5.043  0.0818  0.0717  0.0082
26201W        W42335   7.299  15.027  15.097  0.0106 -0.3183 -0.0278
26202W        W42336   7.060   0.315   5.578  0.1352 -0.0916  0.0616
26203W        W42337   5.128  15.385  13.017  0.2339 -0.0595  0.0906
26204W        W42338   9.581   1.643  15.063 -0.0853  0.0066 -0.2199
26205W        W42339  14.380  17.789   5.036  0.0862  0.1084  0.2127
26206W        W42340   6.830  10.377   4.822  0.1819 -0.0263 -0.0286
26207W        W42341   1.578   5.648   2.818  0.0308 -0.1649 -0.2842
26208W        W42342   0.975  16.511   2.175 -0.1145  0.0088 -0.1143
26209W        W42343   7.269  15.760  13.141  0.2748  0.1418  0.2058
26210W        W42344   4.708   6.613   1.750 -0.0033  0.0389  0.0170
26211W        W42345   9.678   3.982  13.410  0.0846 -0.1721  0.1351
26212W        W42346   9.690   1.152  13.582 -0.0089 -0.2530  0.0937
26213W        W42347  13.139  11.900   5.063  0.1243 -0.0940  0.0692
26214W        W42348   8.672   3.610   2.020 -0.0531  0.0871  0.1009
26215W        W42349   6.230   3.211  14.711  0.0725  0.0149  0.1977
26216W        W42350  17.314   4.530   0.521 -0.0433 -0.2812 -0.0352
26217W        W42351   3.219   2.126  12.528 -0.2278  0.1776 -0.2440
26218W        W42352  12.488   1.654   0.947  0.1986 -0.0206 -0.1651
26219W        W42353  11.000  17.808  13.360  0.1316  0.1556 -0.3139
26220W        W42354   2.776   4.915  16.326 -0.1525 -0.0676 -0.1473
26221W        W42355   0.846   0.561  13.478  0.1625 -0.1917 -0.0095
26222W        W42356   1.693  16.091  12.328 -0.1267  0.3585 -0.1294
26223W        W42357  16.241  13.639   5.471  0.0296 -0.3100  0.1805
26224W        W42358   6.788   5.617  12.130 -0.1679 -0.3121 -0.1053
26225W        W42359  11.716  11.740   2.325 -0.0200  0.3690 -0.1160
26226W        W42360   8.924   8.839  13.941 -0.0657  0.0391 -0.1643
26227W        W42361   7.854   5.219   2.490 -0.3752 -0.3023 -0.0188
26228W        W42362  17.669  11.342   3.265 -0.2567 -0.0463  0.0808
26229W        W42363  17.789  11.005   0.624 -0.0518 -0.2947 -0.3094
26230W        W42364   2.662  15.078   2.387 -0.4027  0.1127  0.3060
26231W        W42365  12.827  14.509  11.846  0.1293 -0.0247 -0.1405
26232W        W42366   5.760   9.121  15.095  0.0884 -0.3166  0.0579
26233W        W42367   8.837  14.023   2.289 -0.1852  0.0050 -0.0791
26234W        W42368   4.126  14.607  11.170 -0.0725 -0.1208  0.1086
26235W        W42369   0.440  12.188   3.217 -0.1405  0.0903 -0.1570
26236W        W42370  14.273  12.494  12.565  0.0463  0.0413  0.1499
26237W        W42371  17.892   3.879   1.730 -0.1533 -0.0616  0.1914
26238W        W42372   0.086  11.742   1.532 -0.0035 -0.0617 -0.3642
26239W        W42373  11.297  11.084   2.376 -0.1239 -0.1108  0.0385
26240W        W42374   8.955  10.430   1.807 -0.2668  0.0864  0.0261
26241W        W42375  12.819  10.163   3.339  0.1780  0.0407 -0.1166
26242W        W42376   8.499   4.208   2.847 -0.2237 -0.2012  0.0846
26243W        W42377  11.287  12.291   1.799 -0.0626  0.3081 -0.0592
26244W        W42378   9.760   7.948  11.202 -0.0220 -0.1820  0.0894
26245W        W42379  14.512   8.602   5.651 -0.0107  0.1040  0.3183
26246W        W42380   8.939   5.061  14.311 -0.0596 -0.0686 -0.1414
26247W        W42381  12.600   6.781  12.618  0.1103  0.0715 -0.1293
26248W        W42382   1.532   0.373   4.790  0.2813  0.0555  0.1659
26249W        W42383   3.502   7.590  14.503  0.0268 -0.0651  0.0436
26250W        W42384   4.304   7.772   0.838 -0.2142  0.1918 -0.0404
26251W        W42385   1.793   2.760  14.794  0.0242 -0.0473 -0.0075
26252W        W42386  11.212  11.152  12.184  0.0558 -0.2510  0.0252
26253W        W42387  17.026  17.414   5.459 -0.2586 -0.2042 -0.2639
26254W        W42388  12.540   9.101   2.974 -0.1050 -0.2169 -0.0395
26255W        W42389  14.696   8.470  11.853  0.2888 -0.1269 -0.1989
26256W        W42390   9.763   6.015   4.562  0.1119 -0.1648  0.1270
26257W        W42391   3.988   1.489   3.623 -0.1321  0.0784  0.0235
26258W        W42392  17.628   1.222  11.489  0.2546 -0.6287  0.3746
26259W        W42393   4.600  11.200   4.228  0.2126  0.1177  0.1302
26260W        W42394  14.220   5.389   3.615  0.1480 -0.0957 -0.0925
26261W        W42395  16.837  12.574  12.827 -0.1492 -0.2142 -0.0984
26262W        W42396  13.229  10.303  11.697 -0.1505  0.1008 -0.0372
26263W        W42397  17.347   7.659  16.302  0.0575 -0.0640  0.0625
26264W        W42398   8.864   7.410   2.206 -0.1597 -0.0611 -0.1750
26265W        W42399   4.869   2.873   2.467  0.1730  0.0563 -0.0727
26266W        W42400  15.485  11.663   3.510  0.0283  0.2090 -0.1357
26267W        W42401  13.048  11.479   3.051  0.0175 -0.0032 -0.2564
26268W        W42402  15.531   0.043   1.849  0.1697 -0.0717  0.3093
26269W        W42403   9.498  17.076  15.094 -0.0308  0.0707  0.2415
26270W        W42404   1.801   8.072   4.887 -0.0202 -0.0498 -0.3520
26271W        W42405  16.725   2.491   2.663 -0.2006  0.1262  0.3019
26272W        W42406   2.241  17.535   3.452  0.2009 -0.2075 -0.1700
26273W        W42407   7.791  11.257  12.603 -0.1341  0.3565 -0.3339
26274W        W42408  17.829   5.250   5.429  0.1109 -0.2204 -0.1159
26275W        W42409  15.847   4.808   2.694 -0.0977  0.1054  0.0897
26276W        W42410  16.256   8.847  15.171 -0.2096  0.3162 -0.0807
26277W        W42411  14.948  16.576   2.561 -0.0532 -0.1738  0.1503
26278W        W42412   9.372  16.055  16.334  0.0143 -0.0870 -0.0870
26279W        W42413  11.300  11.109   5.826 -0.1738  0.3614  0.0539
26280W        W42414  16.677   6.480  11.025 -0.0472 -0.3815  0.2135
26281W        W42415   6.904  11.502   0.413 -0.0212 -0.0180  0.1356
26282W        W42416   5.542  17.702   2.031 -0.0649  0.0031 -0.0259
26283W        W42417  12.016   8.308   1.387  0.4351  0.1654 -0.1351
26284W        W42418   1.061  15.148  13.427  0.2182 -0.2198  0.3836
26285W        W42419  17.543  17.715  15.960 -0.0819 -0.2815 -0.0978
26286W        W42420   8.396  10.307   4.969  0.0885 -0.0509  0.2271
26287W        W42421  16.927  12.058   4.223 -0.0285 -0.2502 -0.1204
26288W        W42422  10.217   3.348  13.062  0.3083 -0.1237 -0.0544
26289W        W42423  12.076   5.824   3.198 -0.3515 -0.1463 -0.0013
26290W        W42424   8.396   4.599   0.481 -0.1945 -0.1828  0.3485
26291W        W42425   4.028  16.087   1.462  0.1655  0.1026  0.0331
26292W        W42426  13.228  15.216   2.163  0.3075 -0.0274  0.0435
26293W        W42427  12.916  16.932  15.979 -0.0975  0.1891  0.1886
26294W        W42428  16.008   8.496   2.782  0.1406  0.0011  0.0511
26295W        W42429   8.958   2.877   5.340 -0.2705  0.0217 -0.1731
26296W        W42430   0.009   0.635   1.728  0.1717  0.4014 -0.4787
26297W        W42431  15.212   5.970  12.120 -0.1131  0.0859 -0.3098
26298W        W42432   5.002  13.394   1.179  0.3205 -0.2500  0.0709
26299W        W42433   6.503  12.328  16.611 -0.0599 -0.3916 -0.0552
26300W        W42434  14.077   7.662  12.115  0.1529  0.0910 -0.3361
26301W        W42435   1.633  17.858   3.789  0.0429  0.0619 -0.2241
26302W        W42436  11.870   0.674  13.983  0.3371 -0.0519 -0.1390
26303W        W42437   4.082   2.231  14.964  0.1089  0.2712  0.1084
26304W        W42438  12.161  11.348  16.416 -0.0607 -0.1612 -0.0498
26305W        W42439  17.097   4.061   4.645 -0.1117 -0.1465 -0.2721
26306W        W42440   4.148  14.502  15.383  0.1299 -0.2101  0.0819
26307W        W42441  10.448  13.780   4.565 -0.0942  0.0641  0.2733
26308W        W42442  14.525   8.943   4.036 -0.4745 -0.2339 -0.2344
26309W        W42443   2.567   6.253  14.609 -0.0061  0.0483  0.0635
26310W        W42444   1.130  15.036   1.970  0.1920  0.1148  0.2002
26311W        W42445   3.135  10.295   3.651  0.0041  0.1626 -0.2244
26312W        W42446  16.003   4.542   0.811  0.2784 -0.2776  0.2126
26313W        W42447  10.262  13.805  15.437 -0.2398  0.0048 -0.0158
26314W        W42448  11.448   9.745  16.190  0.1680 -0.0314  0.2711
26315W        W42449  14.833  11.407   5.187  0.0682 -0.2054  0.0207
26316W        W42450  10.118   5.443  15.341  0.0738  0.0890  0.2562
26317W        W42451   1.345   2.070   1.372  0.0973 -0.0305  0.2915
26318W        W42452  10.469  16.358   0.995 -0.2922  0.2130  0.2206
26319W        W42453  12.892   1.123  13.935 -0.0786  0.1250 -0.0631
26320W        W42454   2.294  14.155   3.749  0.0445 -0.1306  0.1422
26321W        W42455   0.471   4.599   2.039 -0.0256  0.2194 -0.0066
26322W        W42456   5.088   5.092   0.496 -0.2091  0.0586 -0.3653
26323W        W42457   9.847  12.371  11.278 -0.0848  0.1970 -0.1486
26324W        W42458   8.215  16.484  16.110  0.1052 -0.0846  0.0181
26325W        W42459   8.325   2.634   4.621 -0.1172 -0.1454  0.2130
26326W        W42460  10.538  12.975  16.549 -0.2114 -0.0134  0.1456
26327W        W42461   0.903  11.411   1.220  0.0080  0.2503  0.1095
26328W        W42462   9.723  15.409  11.494 -0.0311  0.1659  0.3378
26329W        W42463   8.561  14.103   2.986  0.2272 -0.3902  0.0687
26330W        W42464   1.928   5.385   3.852 -0.2335 -0.0801  0.1554
26331W        W42465   8.349   4.463   2.008  0.0130 -0.0656 -0.1832
26332W        W42466   7.311  14.280  14.301  0.1215  0.1746 -0.1993
26333W        W42467   8.939  11.666  13.769  0.1524  0.0842  0.0527
26334W        W42468  10.619   8.231  14.521  0.0915 -0.0941 -0.2387
26335W        W42469   2.096  12.835   6.442 -0.2388  0.1157  0.0664
26336W        W42470  11.137   4.512   6.429 -0.0461  0.0258  0.0239
26337W        W42471   1.879   5.725   0.150  0.2136  0.2255 -0.1257
26338W        W42472   0.689  10.031   4.753  0.0745 -0.3196 -0.0458
26339W        W42473  11.429  14.285   1.629 -0.0579 -0.0652  0.0462
26340W        W42474  15.605  13.673   4.102  0.0525  0.0540 -0.0393
26341W        W42475  15.260   2.241  16.420 -0.0927  0.1118  0.1359
26342W        W42476   6.160  12.781  11.198  0.2306  0.0824  0.2150
26343W        W42477  13.234   8.330  14.675  0.2357  0.0324  0.3582
26344W        W42478   2.517   2.346  11.589 -0.3202 -0.0578  0.0159
26345W        W42479  14.104   8.980  14.910  0.2237  0.3641  0.0593
26346W        W42480   0.314   9.797  12.744 -0.2293 -0.1980 -0.1275
26347W        W42481   0.039  11.799  13.027  0.0472 -0.0439 -0.2017
26348W        W42482   8.281   3.458   3.893  0.0026  0.0819 -0.1618
26349W        W42483  13.477   2.006  14.361  0.0896 -0.0369 -0.1026
26350W        W42484   9.349   2.369  14.364  0.1701  0.2054  0.0847
26351W        W42485   3.772  16.028   0.059  0.0795  0.1314  0.0489
26352W        W42486  17.496  16.413  14.446  0.3343  0.1276 -0.0759
26353W        W42487   3.270  16.292   4.965  0.3289 -0.2116  0.0032
26354W        W42488  14.295  17.905  12.468  0.2239 -0.1017  0.1168
26355W        W42489   4.225   5.293   0.011 -0.1091 -0.1601 -0.0582
26356W        W42490   0.754  11.858  12.473  0.1426 -0.1865 -0.0564
26357W        W42491   3.654  13.241   4.930  0.2799 -0.0375  0.0436
26358W        W42492   9.686   9.372   4.125  0.0203 -0.1427 -0.2069
26359W        W42493  16.457   4.038  14.271  0.2491  0.0153 -0.2071
26360W        W42494   7.933  17.961   4.930  0.1063 -0.0958 -0.1135
26361W        W42495  14.091   8.814   1.545 -0.0170  0.2136 -0.3972
26362W        W42496   3.598   1.757   1.987  0.0244 -0.0017 -0.1449
26363W        W42497   6.259  16.697  14.744 -0.1477  0.0990 -0.2365
26364W        W42498   6.921   4.767  16.506  0.0213 -0.1477 -0.0333
26365W        W42499  13.066   0.696  13.701  0.1107 -0.1175  0.2220
26366W        W42500   6.295   6.782   5.542  0.1282 -0.1589  0.0082
26367W        W42501   9.220  11.347  15.117 -0.1844 -0.1986  0.3994
26368W        W42502  12.213  11.929   5.087 -0.1851 -0.0855  0.3027
26369W        W42503  10.485  16.416   0.504  0.3043  0.2296 -0.1381
26370W        W42504   3.566  14.219   4.229 -0.1922 -0.1055 -0.3235
26371W        W42505   0.798  13.404  14.549  0.2823 -0.0808  0.0771
26372W        W42506   0.255   4.127   4.808  0.2374 -0.0192 -0.1187
26373W        W42507   0.505   5.588  15.443  0.1171 -0.2330  0.3794
26374W        W42508   3.585   2.104   3.947  0.1457 -0.0260 -0.3171
26375W        W42509   7.943   4.671   5.707 -0.2295 -0.0140  0.0957
26376W        W42510  11.700  17.904  14.531  0.0027  0.0408  0.0988
26377W        W42511   4.549   4.206   1.840 -0.2344 -0.1172 -0.1453
26378W        W42512   5.926  15.150  14.708 -0.3590 -0.1442  0.0861
26379W        W42513   5.587  17.679   5.307  0.0749  0.0861 -0.0967
26380W        W42514   6.884  13.164  13.528  0.1844 -0.1539  0.0929
26381W        W42515   1.075   9.408   0.944 -0.0436  0.0869  0.3566
26382W        W42516   7.705  11.910   4.721 -0.3489  0.3377 -0.0172
26383W        W42517   6.399  10.585  14.961 -0.0586  0.1545 -0.2606
26384W        W42518   5.767   0.049   3.007 -0.2024 -0.0834 -0.1080
26385W        W42519   9.245   9.767   5.474 -0.0541  0.0879  0.1052
26386W        W42520   5.878   3.423   3.847 -0.1452  0.0596  0.0995
26387W        W42521  15.307   1.805   3.130 -0.0809 -0.3436  0.2496
26388W        W42522   4.577   0.660  12.714  0.1206 -0.1301  0.2596
26389W        W42523   7.571   2.438  14.639 -0.5552 -0.0905 -0.0277
26390W        W42524   8.593   1.710   0.702  0.3402 -0.0353 -0.3322
26391W        W42525  14.061   6.992  12.369  0.0040  0.4859  0.2206
26392W        W42526   9.655   8.225   1.959  0.0119 -0.0208 -0.1612
26393W        W42527  11.941  14.928   3.530 -0.5450 -0.3873 -0.3123
26394W        W42528   6.701   8.901  10.998 -0.3595 -0.5351 -0.0683
26395W        W42529   1.733  13.011  13.837  0.0553  0.1477  0.1008
26396W        W42530   9.260   5.417   3.073 -0.0937  0.2895  0.1050
26397W        W42531  13.893   9.664  16.614 -0.0900  0.0515 -0.3402
26398W        W42532   1.740   8.499  15.206 -0.1251  0.3660  0.0910
26399W        W42533  12.227  15.276  15.980 -0.1153  0.1563  0.1347
26400W        W42534   7.338  13.377  13.990 -0.0574  0.0053  0.1420
26401W        W42535   7.913   2.550  14.281  0.0085  0.1863 -0.3594
26402W        W42536   2.254  14.241   2.083 -0.2322 -0.0978 -0.0370
26403W        W42537  11.792   8.132  11.602 -0.1242 -0.4063  0.1083
26404W        W42538   6.487   4.356   1.696  0.0890  0.1074 -0.2527
26405W        W42539   1.008  14.691  15.083  0.0571 -0.2700 -0.0157
26406W        W42540   3.981  13.633   2.396 -0.3127  0.0682  0.0594
26407W        W42541   8.635   2.931   1.516  0.2475 -0.1653 -0.2658
26408W        W42542   7.630   1.141   0.661  0.4333  0.3825 -0.1790
26409W        W42543   7.273  12.940  13.777  0.0548  0.1843  0.1296
26410W        W42544   5.904   1.340   3.031  0.2512 -0.2398 -0.0594
26411W        W42545   3.809  13.156   0.065  0.0160 -0.1836  0.1059
26412W        W42546  15.087  11.484  12.136 -0.1657 -0.1736 -0.0568
26413W        W42547   3.002  15.944   1.390 -0.0757  0.2053 -0.0726
26414W        W42548  13.923  11.624   1.653  0.0124 -0.8900  0.1389
26415W        W42549   8.809   8.561   3.800 -0.1264  0.0483 -0.0692
26416W        W42550   7.230  11.827  15.710 -0.0772 -0.0978 -0.4180
26417W        W42551   2.407   8.109   2.232  0.0037 -0.0689 -0.0964
26418W        W42552   4.468  13.931   3.174 -0.1311  0.2837 -0.2448
26419W        W42553  10.624   3.701   1.125 -0.3519  0.0865 -0.0591
26420W        W42554   4.783  13.482   5.900 -0.3291 -0.2024 -0.2697
26421W        W42555   4.354  11.043   3.030  0.1453 -0.1437  0.2518
26422W        W42556   2.313  13.045   0.776 -0.2244  0.2721 -0.1502
26423W        W42557   5.440  13.671   3.588 -0.0234  0.0943 -0.0740
26424W        W42558  13.429   2.428  13.799 -0.1270  0.1228 -0.2079
26425W        W42559   3.039   3.326   0.418  0.4044 -0.1019 -0.0026
26426W        W42560  10.161   4.610  15.739 -0.3346  0.0525  0.0233
26427W        W42561   4.143  14.459   4.589 -0.0045  0.0951  0.1430
26428W        W42562   1.690   6.479  15.451 -0.3338 -0.0679 -0.1003
26429W        W42563  17.839   4.611   4.725  0.2779  0.1129  0.1452
26430W        W42564  12.334   9.494  11.505  0.0015 -0.1462  0.0466
26431W        W42565   1.966  12.911   5.942  0.2415  0.0567 -0.0997
26432W        W42566   7.681   4.752   2.626 -0.0954 -0.2214  0.1146
26433W        W42567   7.092   7.454   2.117  0.1011 -0.6876 -0.2326
26434W        W42568  15.524  11.895  12.162  0.0574 -0.0675  0.0812
26435W        W42569  12.189   2.667   4.996  0.1255  0.0948 -0.0667
26436W        W42570   3.985   6.555  16.237 -0.0376  0.2121 -0.2813
26437W        W42571   2.417   0.131  12.877 -0.0149 -0.0023 -0.0351
26438W        W42572  11.886  14.936   2.174  0.0787  0.0357 -0.3273
26439W        W42573  13.951   5.856   5.445  0.2020 -0.1813 -0.0156
26440W        W42574   1.633   6.590  12.794  0.1630  0.0823 -0.1420
26441W        W42575   4.470  16.428   3.365 -0.3126  0.0400 -0.4004
26442W        W42576  10.693  12.062   2.695  0.1119 -0.2303 -0.2191
26443W        W42577  13.305   5.261   5.692  0.3462  0.2750  0.0100
26444W        W42578  16.351   0.851  11.120  0.3599 -0.0606  0.2188
26445W        W42579  12.693  12.527   3.490 -0.0072 -0.1337  0.0198
26446W        W42580   6.137  10.527  11.521 -0.2726  0.1097  0.2087
26447W        W42581   3.240   8.040  15.399 -0.1579 -0.0908  0.1156
26448W        W42582  10.040   9.551   0.940 -0.1273  0.2283  0.1441
26449W        W42583   1.439  16.374   4.460 -0.2204 -0.1219 -0.1319
26450W        W42584  15.280  10.193   2.396 -0.1709  0.0686 -0.2578
26451W        W42585  13.847  15.519   5.543 -0.1456  0.1180 -0.0258
26452W        W42586   1.956   9.788   2.439  0.1526 -0.0101  0.2690
26453W        W42587   8.857  15.348   4.661  0.1821 -0.0577 -0.0076
26454W        W42588  10.645   2.726   4.350  0.0299  0.2225 -0.1436
26455W        W42589  11.318   6.529   2.865 -0.1202  0.1387  0.0522
26456W        W42590   6.132   0.012   4.758  0.2229  0.1475 -0.2402
26457W        W42591   2.524   5.962  16.693  0.0732  0.0450 -0.3918
26458W        W42592  13.544   3.867  15.094  0.5653  0.1669 -0.0382
26459W        W42593  12.136  11.339   4.249 -0.1372  0.0734  0.2244
26460W        W42594  11.447   3.860   5.022 -0.0167 -0.1848  0.1620
26461W        W42595  11.513   2.755  14.109 -0.3845 -0.2174  0.2201
26462W        W42596  17.817   6.474   5.425  0.0458 -0.1709  0.0444
26463W        W42597  15.909  15.155  16.346  0.2333  0.0065 -0.2314
26464W        W42598   5.999   3.106   1.612 -0.0936 -0.1618  0.0552
26465W        W42599   4.294   9.149   0.343 -0.0053  0.0918  0.1230
26466W        W42600   3.753   2.841   4.012 -0.1366 -0.0564  0.2912
26467W        W42601  10.055  17.020   2.048  0.3619 -0.0195 -0.0799
26468W        W42602   7.355  11.407  14.538 -0.1370 -0.1475  0.0071
26469W        W42603   4.433   6.018  12.202  0.3038  0.2458 -0.1052
26470W        W42604   5.109   8.285  14.731  0.1540  0.0298 -0.0379
26471W        W42605  15.838   2.863  11.762 -0.0417  0.0997  0.0308
26472W        W42606   8.516   3.206  15.256 -0.0359  0.1499 -0.3540
26473W        W42607   9.004   6.859   0.608 -0.3101 -0.1987 -0.4927
26474W        W42608  12.099  15.831  12.270 -0.3757  0.2335 -0.0979
26475W        W42609   4.804   7.629  13.923  0.0932  0.0686 -0.1037
26476W        W42610  13.662  17.522   0.182 -0.0107 -0.3449  0.0751
26477W        W42611  15.402   6.391  14.668 -0.0873  0.0819  0.0105
26478W        W42612   7.553   5.723   4.961 -0.0744 -0.3396  0.1846
26479W        W42613   2.135  11.801   3.709  0.0594 -0.1480  0.1304
26480W        W42614   4.546   9.445  12.520  0.1557 -0.0628 -0.2833
26481W        W42615  12.464   0.657   4.461 -0.2015 -0.3544  0.0202
26482W        W42616  16.859   9.138  12.752 -0.0027 -0.0910  0.1267
26483W        W42617   2.208   2.707  16.607 -0.4485  0.1283  0.1362
26484W        W42618   6.085  16.134  14.415 -0.1416 -0.0631 -0.0027
26485W        W42619   7.207  12.217  11.258  0.0858 -0.3846 -0.1366
26486W        W42620   6.920   2.089  16.111 -0.0599 -0.1282  0.0582
26487W        W42621  12.797   2.557   2.912 -0.1611  0.1598  0.3627
26488W        W42622   0.892   3.733   1.101  0.2102  0.1144  0.0715
26489W        W42623  11.673  16.095  13.909 -0.2808 -0.1754 -0.0114
26490W        W42624  11.578   4.417  15.982  0.1356  0.4102  0.0241
26491W        W42625  14.530   1.527   0.089  0.0990 -0.0169 -0.6140
26492W        W42626   4.655   8.114  10.498 -0.0145  0.0885  0.1392
26493W        W42627   1.904   8.435  12.326  0.3399 -0.3612 -0.1811
26494W        W42628   9.541   7.934   3.952 -0.3106 -0.1345  0.2559
26495W        W42629  13.749   7.069   0.084  0.1702  0.1820  0.2136
26496W        W42630   6.459   4.202   5.025  0.1669  0.2484 -0.0400
26497W        W42631  14.382   6.613   4.425  0.1996  0.1992  0.1197
26498W        W42632   1.575  11.861  14.719 -0.0374 -0.0040 -0.1911
26499W        W42633   7.582   3.237  16.088 -0.0815  0.0460  0.1515
26500W        W42634  16.538   5.144  11.971  0.0890 -0.2616 -0.2879
26501W        W42635   0.155   6.702   0.712 -0.0471 -0.1192 -0.0612
26502W        W42636   2.699  10.691  10.899  0.1512  0.1203 -0.1338
26503W        W42637   1.675  12.167  11.944  0.0273  0.2241  0.0100
26504W        W42638  12.565  13.573  11.919 -0.3265 -0.0879 -0.0128
26505W        W42639   6.393  12.469  12.214 -0.1267 -0.2191  0.1103
26506W        W42640  12.811   9.592  16.403 -0.0568 -0.0264 -0.0674
26507W        W42641   9.962   2.232   2.483 -0.2022  0.0072 -0.0674
26508W        W42642   3.044   2.767  13.846 -0.0341 -0.1395  0.1238
26509W        W42643   2.936   0.797   1.506  0.1614  0.2444  0.2131
26510W        W42644   5.480  10.459  16.609  0.1170 -0.2151  0.1298
26511W        W42645   5.080  17.240  11.015 -0.0419 -0.1242  0.2660
26512W        W42646  15.856   3.798  15.033 -0.1903  0.3755  0.1425
26513W        W42647   1.759  13.059  16.398 -0.1423  0.2858  0.0888
26514W        W42648  10.583  12.506  12.701  0.2073 -0.1278 -0.3631
26515W        W42649   6.260   2.464   5.831 -0.1686  0.0238 -0.1474
26516W        W42650   0.144  16.038   3.930 -0.0995  0.0938 -0.0039
26517W        W42651  13.171   7.935   2.185 -0.1359  0.1276  0.2591
26518W        W42652   9.874   0.275  14.199  0.1486 -0.3837  0.3340
26519W        W42653  15.383   2.536   5.348 -0.0043 -0.0115 -0.1340
26520W        W42654   6.011  16.872   5.279 -0.1566 -0.0292  0.0562
26521W        W42655   7.185   1.115  12.104 -0.0070 -0.5135  0.0650
26522W        W42656  12.542   2.869   3.188 -0.0387 -0.0530 -0.1936
26523W        W42657   7.047  16.958   1.406  0.0439  0.2000  0.0947
26524W        W42658   5.111   2.667  11.760  0.0440  0.0706 -0.0193
26525W        W42659   3.348  15.994   4.462 -0.0554  0.0123 -0.1678
26526W        W42660   4.393  14.462   5.542 -0.0734  0.1218  0.2155
26527W        W42661   5.696   5.193   5.407  0.1148  0.4956 -0.0022
26528W        W42662   0.952   1.657   0.557  0.0787  0.4679  0.1475
26529W        W42663   1.591   0.636  12.457 -0.0070 -0.1370  0.1744
26530W        W42664   1.871  12.199   4.608 -0.1009  0.0294 -0.3729
26531W        W42665   4.862   3.444   3.936  0.1054  0.2982 -0.0397
26532W        W42666  14.809  15.397  14.264 -0.0922  0.2020  0.1756
26533W        W42667   9.475  11.226  15.894 -0.1635  0.0919 -0.0183
26534W        W42668  10.293   5.596   0.405  0.2996 -0.0115  0.1612
26535W        W42669   9.367  15.068   5.447 -0.1018 -0.0664 -0.2058
26536W        W42670   6.756  12.455  16.066 -0.1869  0.0667 -0.0373
26537W        W42671  11.624   5.712   2.365  0.0648 -0.0541 -0.1754
26538W        W42672   5.958   1.440   2.438  0.1193  0.1999 -0.0944
26539W        W42673  16.387  11.581  15.511  0.2030 -0.1510  0.3033
26540W        W42674  14.368  10.997  13.096  0.1688  0.0919  0.1422
26541W        W42675   6.831   9.301  15.374 -0.1354  0.3023 -0.0135
26542W        W42676  11.704   8.530  14.597 -0.0786  0.0332  0.0734
26543W        W42677  11.042   7.638   2.806 -0.3664 -0.1401 -0.1764
26544W        W42678   9.276  15.726   1.902  0.0845  0.2556 -0.1768
26545W        W42679   1.862  10.963   4.905 -0.0393 -0.1300  0.0509
26546W        W42680   1.541  13.155  13.071 -0.1599  0.3071 -0.2019
26547W        W42681   1.568  16.781   4.765  0.2254  0.0058 -0.3020
26548W        W42682   9.555   1.606   0.198 -0.2241  0.0783 -0.0958
26549W        W42683   8.144  17.827   4.454 -0.3641  0.0702 -0.0670
26550W        W42684   5.404   4.705   1.409  0.0157  0.2760  0.1034
26551W        W42685  13.943  15.192   3.835  0.1046  0.1016  0.1732
26552W        W42686  16.057  14.993   2.884 -0.0449  0.0517  0.0375
26553W        W42687   1.096   0.955   2.164  0.2172 -0.2225  0.1231
26554W        W42688   3.963   1.453  13.860  0.0054 -0.0873 -0.3503
26555W        W42689   7.876   4.756   0.631 -0.0707 -0.1542  0.1037
26556W        W42690  17.969  10.238  13.169 -0.0367 -0.0552 -0.0145
26557W        W42691   2.229  10.764   4.088 -0.2901 -0.0458 -0.0284
26558W        W42692   4.232  10.044  15.486  0.0073 -0.3033  0.1592
26559W        W42693   8.909  12.849   0.929 -0.1154 -0.0159 -0.0005
26560W        W42694  14.328  15.190   3.469 -0.1374 -0.0066 -0.1739
26561W        W42695  12.925   7.330  13.433  0.1606 -0.1342 -0.2585
26562W        W42696  14.309  16.832   5.603 -0.2557 -0.2140  0.1393
26563W        W42697   9.979   7.678   0.058  0.2138 -0.5095 -0.0369
26564W        W42698   3.910   0.386  11.847  0.0843  0.0317 -0.0321
26565W        W42699  16.492   3.562   1.991 -0.1186  0.2263 -0.0770
26566W        W42700  17.212  17.042  16.404  0.2887  0.0677 -0.0487
26567W        W42701   2.146  16.332   0.412  0.0929 -0.1662  0.0830
26568W        W42702  11.169  11.970  13.817 -0.3912 -0.1053 -0.0605
26569W        W42703   7.297  13.101   3.939  0.1454  0.2354  0.2817
26570W        W42704   1.060   8.487   5.409  0.4061 -0.0429 -0.4012
26571W        W42705   8.504   6.043   0.053 -0.3452  0.0760 -0.0749
26572W        W42706   7.687   4.888  12.358 -0.1702 -0.5368 -0.0312
26573W        W42707  17.636  10.654  15.375 -0.0029 -0.0918  0.0176
26574W        W42708  17.182   8.745   6.046 -0.1306  0.3734 -0.1907
26575W        W42709   9.068  17.407   1.082 -0.2787 -0.0706 -0.1629
26576W        W42710  17.687  10.035   3.795  0.0406 -0.0073 -0.1297
26577W        W42711  14.699  17.155  16.285 -0.1176  0.0515  0.1113
26578W        W42712   3.148  15.041   4.659 -0.1052 -0.0754  0.1629
26579W        W42713  12.968   5.467  14.724  0.2499 -0.0354  0.0082
26580W        W42714   0.151   3.265   4.234  0.2649 -0.2568 -0.1170
26581W        W42715   0.651   3.516   4.037 -0.1507  0.0479 -0.0470
26582W        W42716  10.840   4.313   6.016  0.0731 -0.0578  0.2331
26583W        W42717   6.694   9.035   0.989  0.0493 -0.0377  0.0227
26584W        W42718  13.964  16.358   4.567 -0.1143  0.0549  0.1428
26585W        W42719  13.789  15.668  14.841  0.2611  0.0766 -0.3771
26586W        W42720   7.549   8.491   1.135  0.1621  0.0283  0.0215
26587W        W42721   1.351  13.015   1.566  0.0762  0.0787  0.0384
26588W        W42722   5.603  13.903   1.699  0.0162  0.2248 -0.1588
26589W        W42723   4.536   2.755   3.249  0.1905 -0.0709 -0.2931
26590W        W42724  10.170  13.168  12.053  0.1992  0.0001 -0.2340
26591W        W42725   2.258  12.531  14.274  0.1319  0.1391  0.1817
26592W        W42726  11.419  15.065  12.991  0.0134 -0.1447 -0.1743
26593W        W42727   4.895  14.783  12.390 -0.1479  0.1218  0.1875
26594W        W42728   4.882  13.760   4.131 -0.0099 -0.2388 -0.2310
26595W        W42729  16.861  11.138  14.451 -0.2265  0.3186 -0.0569
26596W        W42730   5.753  17.746  12.910  0.0453 -0.1549  0.1084
26597W        W42731  17.919   2.714   0.923 -0.2883  0.1552  0.0367
26598W        W42732   9.140   5.850   5.190  0.0810 -0.2544 -0.2924
26599W        W42733   4.423   2.229   0.645 -0.2193 -0.2126 -0.0817
26600W        W42734  12.404  16.290  12.618  0.0088 -0.1898  0.0754
26601W        W42735   9.746   6.891   1.215  0.1352 -0.0406 -0.3089
26602W        W42736   4.275  15.416  13.753  0.0012  0.0016 -0.1180
26603W        W42737  13.452   8.928  16.172  0.0224  0.0131  0.2707
26604W        W42738   5.349  14.541   3.743 -0.3832 -0.0938 -0.0605
26605W        W42739  13.085   6.992   2.339  0.0077 -0.2004 -0.0533
26606W        W42740  16.111  10.158  13.270 -0.0357 -0.1689 -0.1017
26607W        W42741   8.052  15.599  14.252  0.0372 -0.0154 -0.2336
26608W        W42742   3.098   5.464  14.948  0.1478  0.4308  0.1075
26609W        W42743  15.575   1.909   0.909 -0.1957  0.1395  0.1275
26610W        W42744  14.733  16.068   1.882  0.1954  0.1408 -0.3657
26611W        W42745  11.773   5.765   4.103  0.2012  0.3637  0.0964
26612W        W42746  15.150   3.558   0.823  0.0675  0.2253 -0.3834
26613W        W42747  15.480  13.206  14.304  0.2421  0.1399 -0.1650
26614W        W42748   7.289  15.566   0.179  0.2432 -0.2867 -0.0282
26615W        W42749   1.782  12.404   1.724 -0.0563  0.3297 -0.2301
26616W        W42750   0.247   8.830  12.632 -0.1034 -0.2794  0.1802
26617W        W42751   6.357   1.058   1.143 -0.0751 -0.2951 -0.1842
26618W        W42752   5.421  17.513  14.868  0.2168 -0.0335 -0.2687
26619W        W42753   9.090  17.701   4.434 -0.1353  0.1251  0.1086
26620W        W42754  11.468  13.458  14.675  0.0284 -0.1258  0.0133
26621W        W42755   3.358   8.351  13.494  0.1895  0.2106  0.4529
26622W        W42756  12.765  10.259  12.560 -0.1811  0.0282  0.0058
26623W        W42757   1.288   0.294  14.900 -0.2075  0.2141 -0.4044
26624W        W42758   4.872   3.194  13.052 -0.1736 -0.0539  0.0643
26625W        W42759   3.164   7.004   3.549  0.0276 -0.3290 -0.1242
26626W        W42760  14.388  14.031   4.939  0.1578  0.2227  0.1818
26627W        W42761   7.353   4.457  15.402 -0.1509 -0.2396  0.2044
26628W        W42762   3.790   5.814  15.616  0.0300 -0.1545  0.1521
26629W        W42763   2.151   3.582  13.465  0.3833 -0.1813 -0.0769
26630W        W42764  11.343   6.054  13.027  0.0685 -0.1035  0.2698
26631W        W42765   2.093  14.874  12.078  0.2200  0.1279  0.1791
26632W        W42766  16.434  13.360  15.262 -0.2336 -0.0482  0.3603
26633W        W42767  12.674  13.250   3.011 -0.1748  0.2378  0.0192
26634W        W42768  10.021  16.469  11.120  0.0681 -0.1325 -0.2940
26635W        W42769   6.913  10.139   2.142 -0.3229  0.2273 -0.0848
26636W        W42770   4.391   3.941   3.380 -0.0289 -0.0462 -0.0575
26637W        W42771   8.259   5.374   0.063  0.1050 -0.1334 -0.0445
26638W        W42772   3.273  13.547   1.518 -0.0381 -0.0100  0.0417
26639W        W42773  12.717   1.429   3.196  0.1289 -0.0217  0.1615
26640W        W42774   9.695  17.192   0.057 -0.2568  0.0728 -0.2520
26641W        W42775  11.349   4.726  14.992  0.2047  0.0639 -0.0466
26642W        W42776  13.821   2.398  12.596  0.1269 -0.1590 -0.1547
26643W        W42777   7.872   9.488   2.753 -0.0063 -0.0357 -0.0034
26644W        W42778   2.008  13.776  14.961  0.2269 -0.1969  0.1537
26645W        W42779  15.991  16.969   0.641 -0.0406  0.0217  0.0970
26646W        W42780  13.972  16.013   3.588 -0.2078  0.1548 -0.1620
26647W        W42781   0.570   6.518   3.120 -0.1322  0.1610  0.4090
26648W        W42782   0.263  14.361  16.393 -0.1038 -0.0178  0.3116
26649W        W42783   2.593   4.458  15.670  0.1272  0.2616 -0.0872
26650W        W42784   9.947   9.164   3.748 -0.1325  0.0473 -0.1006
26651W        W42785   4.915   0.108   0.727 -0.1178  0.2131  0.0007
26652W        W42786  12.815  12.215  14.299 -0.1777 -0.0106  0.0192
26653W        W42787  14.848  14.477   3.248  0.0383  0.2931 -0.2924
26654W        W42788  16.101   8.668   3.572  0.5209 -0.1550 -0.0717
26655W        W42789   9.533   9.411  14.285  0.2792 -0.0077 -0.0761
26656W        W42790   9.204   7.796   0.755 -0.0113  0.0806 -0.2470
26657W        W42791   6.254   4.586  11.967 -0.2041 -0.1883 -0.0232
26658W        W42792  11.526  16.559  12.740  0.1037 -0.2362 -0.4670
26659W        W42793  15.749  16.565  15.650 -0.0048  0.0667  0.0906
26660W        W42794   0.141  16.990  13.451  0.0815 -0.0502  0.1304
26661W        W42795   9.487   5.700  14.026 -0.0518  0.3365 -0.1218
26662W        W42796  16.183  15.167  11.987  0.0288  0.2007 -0.1250
26663W        W42797  17.943  10.701   5.186  0.3127  0.0061 -0.2361
26664W        W42798   1.989   3.390   1.603  0.1608  0.0749  0.2378
26665W        W42799  16.736   4.484   2.816  0.0594 -0.0376  0.0993
26666W        W42800   8.046  11.980   6.165 -0.1181  0.1166 -0.0615
26667W        W42801   2.589  10.510  13.130 -0.1225 -0.1544  0.4426
26668W        W42802  14.261   2.263  11.849 -0.0676 -0.2181 -0.1255
26669W        W42803   0.002  17.676   1.513 -0.1091 -0.1262  0.0810
26670W        W42804   2.037  14.868   3.431  0.0508  0.0942  0.4075
26671W        W42805   5.032  11.799  11.872 -0.1653  0.3270 -0.0016
26672W        W42806  15.245   6.126  15.653 -0.0561 -0.1315 -0.0427
26673W        W42807  11.675  14.276  15.832 -0.5319 -0.0581  0.1734
26674W        W42808   3.358  16.972  16.667 -0.1138 -0.0094 -0.0200
26675W        W42809  17.486  15.804   1.143 -0.0350 -0.1684  0.1950
26676W        W42810  13.538  17.146   0.519  0.2507  0.3550  0.1934
26677W        W42811   8.045  16.779  11.866  0.1757  0.2569 -0.3912
26678W        W42812   9.160   1.185   3.253  0.0986  0.1999 -0.0221
26679W        W42813   5.750   2.230   0.726 -0.2352  0.2196  0.2560
26680W        W42814   3.326   2.643   3.834 -0.0099  0.3920  0.0110
26681W        W42815  16.325   1.565  12.176 -0.0945 -0.3514  0.1152
26682W        W42816   7.588   4.312  12.277 -0.0918 -0.1421 -0.1223
26683W        W42817   0.580   7.220   2.280  0.0581  0.0323 -0.1533
26684W        W42818   3.697  12.829   4.492  0.0317  0.1570  0.0615
26685W        W42819   6.287   5.579  12.209  0.0090 -0.2889 -0.3816
26686W        W42820   5.967   1.296  13.940  0.0120 -0.1537 -0.0935
26687W        W42821  12.565  11.690   4.834 -0.1267  0.2492 -0.1740
26688W        W42822   0.116  14.731   2.352  0.0127  0.2623  0.1313
26689W        W42823   0.477  13.743  11.920  0.2049 -0.0565  0.2250
26690W        W42824   5.671  12.307  12.542  0.1546  0.1381 -0.0849
26691W        W42825  15.691  17.215  14.203 -0.2443 -0.2273 -0.1223
26692W        W42826  10.099  16.132  12.934  0.1108 -0.2654 -0.1845
26693W        W42827   8.764  11.186  11.408 -0.1349 -0.3058 -0.1845
26694W        W42828  15.647   6.393  13.523 -0.0131  0.2813  0.1685
26695W        W42829  16.328  16.399   2.597 -0.1848 -0.0052 -0.3506
26696W        W42830   0.143   3.790  12.897  0.2336  0.1593  0.1710
26697W        W42831  14.215   0.544  14.040  0.0295  0.1394 -0.3609
26698W        W42832   6.705   0.792  16.511 -0.1381  0.2444  0.1152
26699W        W42833   5.500   0.312  14.752 -0.3049  0.0492 -0.1409
26700W        W42834   3.021   1.297   0.220 -0.2440 -0.1979 -0.0654
26701W        W42835   0.765   5.452   2.642  0.0485 -0.1164  0.0647
26702W        W42836  10.741   2.462  14.361  0.0319 -0.0950 -0.0045
26703W        W42837  10.971   1.807   0.945 -0.3970  0.0620 -0.0460
26704W        W42838   6.515  10.551  14.079 -0.1650 -0.0692 -0.5083
26705W        W42839   4.863   4.930   4.711 -0.0451  0.0184  0.3894
26706W        W42840  12.889  17.806  14.448 -0.1693 -0.2323 -0.1257
26707W        W42841  11.966   1.405  12.479  0.2741  0.2574 -0.3099
26708W        W42842  10.010   1.971   1.867 -0.2226  0.2317 -0.0856
26709W        W42843  10.998   8.705   0.687 -0.1842 -0.2064 -0.1342
26710W        W42844  17.468   6.990   1.241  0.0062 -0.2004  0.0432
26711W        W42845   3.130  11.765  14.809 -0.2126  0.2211  0.3877
26712W        W42846   4.227  13.025   4.259  0.1206 -0.1698  0.3628
26713W        W42847   4.917   6.747  12.340 -0.0493  0.4139  0.4218
26714W        W42848  14.508   3.049  12.891  0.1359  0.2109 -0.1812
26715W        W42849   0.785   3.009   4.170 -0.0725 -0.2303 -0.0918
26716W        W42850  15.426   6.222   5.235  0.0971 -0.3434  0.2104
26717W        W42851   8.590   5.196   1.259  0.1720 -0.0091 -0.1114
26718W        W42852   0.660   8.956  14.183 -0.2547  0.0259  0.0850
26719W        W42853  13.729  14.396   4.389 -0.3978  0.0056 -0.1962
26720W        W42854  11.112   9.777   4.140 -0.1833 -0.0479  0.0142
26721W        W42855  14.214  13.235   5.726  0.1200 -0.1577  0.0233
26722W        W42856  12.548  12.270   3.054 -0.2244  0.0204 -0.0205
26723W        W42857   6.369   2.268  14.626 -0.2720  0.0578  0.0784
26724W        W42858  16.070   5.749  14.287 -0.0085  0.0560 -0.1607
26725W        W42859  15.180   6.802   4.541 -0.2684 -0.0458  0.1663
26726W        W42860  13.851   2.136   1.377  0.0917 -0.0659  0.1987
26727W        W42861  16.751   5.240  13.724 -0.2495  0.0288  0.0523
26728W        W42862   5.310  14.956  13.865  0.2778  0.1073 -0.0311
26729W        W42863  15.223   8.583  12.632  0.0412 -0.0819 -0.2803
26730W        W42864  16.412  10.225   3.728 -0.1505  0.3359 -0.3001
26731W        W42865   2.892  17.267  12.810  0.2830  0.0459 -0.0799
26732W        W42866  15.378  11.303   1.244  0.2063 -0.0444 -0.0195
26733W        W42867   6.823  11.187   2.343 -0.0191  0.2329 -0.2688
26734W        W42868  11.251   4.439   2.489 -0.1172  0.0660  0.2255
26735W        W42869  15.496   4.337  16.197 -0.0843  0.0700 -0.0901
26736W        W42870   6.415  16.037   3.046  0.0409 -0.0353  0.2110
26737W        W42871   2.850  15.086  16.438 -0.1573 -0.2247  0.0424
26738W        W42872  11.970   3.786  15.257 -0.0560  0.2894  0.2605
26739W        W42873  13.631   1.808  14.970 -0.0285  0.0876  0.2536
26740W        W42874   3.696   0.177   3.941 -0.1496 -0.0441 -0.0727
26741W        W42875  11.237   2.446  13.204 -0.0610 -0.1298  0.1885
26742W        W42876  10.711   4.011  16.065 -0.0109  0.0366  0.0353
26743W        W42877  16.507   2.140   1.708 -0.1920 -0.1401  0.2020
26744W        W42878  15.995   4.623   3.936 -0.0492  0.0745 -0.2697
26745W        W42879  13.114  10.570   3.272  0.1620  0.2003 -0.3653
26746W        W42880  13.994  13.921   4.081 -0.1349  0.2393  0.1394
26747W        W42881   7.689  12.535  13.881 -0.1103  0.2951  0.1244
26748W        W42882   6.030   3.268  12.702 -0.1259 -0.1629  0.1955
26749W        W42883   4.517   5.313   3.047  0.0392  0.1301 -0.0603
26750W        W42884  11.355   7.853  13.573  0.0592  0.3187 -0.2428
26751W        W42885   1.728   4.711   0.678  0.1150 -0.0104 -0.2165
26752W        W42886  15.694   4.256  13.716  0.0613  0.0534 -0.0512
26753W        W42887   2.531   8.590  16.165  0.1623  0.0332  0.1902
26754W        W42888  11.736   4.086   4.592  0.3290  0.2611  0.1318
26755W        W42889   7.264  14.183  16.446 -0.1372 -0.0856 -0.1227
26756W        W42890  16.165   7.946   2.758 -0.3450 -0.3123 -0.0270
26757W        W42891  14.713   3.418  14.328  0.0933 -0.3528  0.2409
26758W        W42892   0.954   9.411  14.047  0.1087  0.0586 -0.0062
26759W        W42893   8.314   1.246  15.345  0.0195  0.1102 -0.1737
26760W        W42894  12.780   0.340   5.187  0.0999 -0.0361  0.1408
26761W        W42895  16.917  14.350  15.810  0.0658  0.2029  0.1710
26762W        W42896  12.930  11.969  13.445  0.1955  0.0865  0.1413
26763W        W42897   2.527  16.181  15.334  0.1887 -0.0083 -0.0571
26764W        W42898   0.093  15.764  13.981  0.1134 -0.0317  0.0757
26765W        W42899  14.785  14.923  15.463 -0.1736  0.0178 -0.0543
26766W        W42900  11.509  17.150  14.844 -0.3376  0.1019 -0.0910
26767W        W42901  16.478   7.677  15.371 -0.0007  0.0744 -0.2104
26768W        W42902   6.822   1.795   5.708 -0.1386  0.1153  0.1542
26769W        W42903  16.148   1.276   2.669 -0.0394  0.2292 -0.2150
26770W        W42904  17.635   8.771  15.282 -0.2796  0.0261  0.1513
26771W        W42905   2.175  12.427  12.499 -0.0782 -0.0588  0.2813
26772W        W42906  12.653  16.563   4.898 -0.0340 -0.0557  0.3942
26773W        W42907  10.528   1.882   2.044  0.2268 -0.3421 -0.1863
26774W        W42908  10.457  14.511   4.247 -0.3227 -0.1376 -0.0358
26775W        W42909  11.641   9.452   3.198 -0.1767  0.0449  0.2021
26776W        W42910   4.156  11.410  12.674  0.2450  0.2006 -0.0909
26777W        W42911   5.409   4.352  16.600  0.0591 -0.3573 -0.1137
26778W        W42912   9.493   0.693   4.420 -0.0918  0.0283  0.1710
26779W        W42913   0.922   4.108   3.376  0.0677 -0.2868 -0.0730
26780W        W42914  11.678   6.311  11.900  0.0772  0.0899  0.0184
26781W        W42915   8.920   5.960   3.691 -0.1949  0.3640  0.1264
26782W        W42916   4.974   4.367  16.314  0.1524  0.1952  0.1065
26783W        W42917   5.208  17.377   0.857  0.1023 -0.1684 -0.2326
26784W        W42918   3.002   8.997  14.530 -0.0535  0.3166 -0.0246
26785W        W42919  13.943   3.354   5.576 -0.1845 -0.1675 -0.3867
26786W        W42920  16.598   8.956  14.800  0.2397  0.2449 -0.1228
26787W        W42921   0.795   3.599   3.327 -0.0163 -0.0886 -0.2085
26788W        W42922  15.877   9.074   2.067 -0.1295  0.0199 -0.2228
26789W        W42923   7.950  12.221   4.254 -0.3214  0.0044  0.0367
26790W        W42924   6.983  14.600  11.915  0.0063  0.1009  0.0705
26791W        W42925  14.874   8.231   2.074 -0.0017  0.1543 -0.1774
26792W        W42926  13.328  11.350  14.057 -0.0900  0.1773  0.1698
26793W        W42927   2.473   9.214   5.378  0.0418  0.0588  0.0804
26794W        W42928  13.640   8.902   0.528 -0.1864  0.3060  0.1219
26795W        W42929   3.006  15.972   3.570 -0.0500  0.0607 -0.0193
26796W        W42930   6.946   6.636  14.982  0.0180  0.1528  0.0640
26797W        W42931   3.292  15.463  13.298 -0.0912  0.0525  0.1698
26798W        W42932   9.288   8.160   4.857 -0.0565 -0.1688 -0.0722
26799W        W42933   1.220   7.591  13.604 -0.2668  0.0178 -0.0780
26800W        W42934   1.730   0.465  15.900  0.1468  0.0505  0.0186
26801W        W42935   4.471   3.132   5.698 -0.1918  0.0086 -0.1516
26802W        W42936   5.967   6.967   3.919  0.2373  0.5256  0.0721
26803W        W42937   0.761  13.550   0.210  0.0959 -0.0209  0.0949
26804W        W42938   1.122   8.252  15.993  0.0984 -0.1532  0.0404
26805W        W42939   0.108   4.867  12.838 -0.3694 -0.0778 -0.4175
26806W        W42940  13.953  16.308   2.725 -0.0030 -0.2589  0.1448
26807W        W42941   0.372  11.586  12.038 -0.1177 -0.0409 -0.2026
26808W        W42942  13.041   8.174   3.771 -0.2856 -0.0620 -0.1188
26809W        W42943   3.399   5.527  12.067 -0.0311 -0.1382 -0.0538
26810W        W42944  16.116  13.704  12.623  0.0044  0.0843 -0.0145
26811W        W42945  10.298   7.818  14.549  0.2351 -0.1690 -0.2400
26812W        W42946  13.565   1.922  16.658  0.0211 -0.0535 -0.0307
26813W        W42947   6.315   5.834  14.105  0.4079  0.2213  0.1663
26814W        W42948  11.068   0.502  12.087  0.1120  0.3297 -0.0809
26815W        W42949  10.930  17.745   5.748  0.1237  0.0659  0.1275
26816W        W42950   3.805   4.382  11.478  0.4473  0.1008 -0.0842
26817W        W42951   3.310   4.239  14.744 -0.2120  0.0809 -0.1500
26818W        W42952  15.761  15.221  12.766 -0.2009 -0.0133 -0.0420
26819W        W42953   6.399   4.688   5.851  0.0235  0.1230  0.0486
26820W        W42954  10.962   3.802  14.850 -0.1785  0.1106 -0.1640
26821W        W42955   7.183   8.463  13.661 -0.1126 -0.0403  0.0941
26822W        W42956  14.840   3.597  13.860 -0.2117  0.1944  0.0551
26823W        W42957  15.428  17.855   0.066  0.0408 -0.0588  0.1358
26824W        W42958   4.650   9.735  14.472 -0.1604  0.0949  0.3251
26825W        W42959  15.718  14.727   0.364 -0.0126  0.0397 -0.4716
26826W        W42960   2.907   6.806  16.442 -0.2023 -0.1762  0.1100
26827W        W42961  16.880  14.328  12.513 -0.2051  0.1340 -0.2462
26828W        W42962   4.047  12.832  12.236 -0.0232 -0.1165  0.3160
26829W        W42963   6.805  10.128  14.622 -0.0334  0.0897  0.0349
26830W        W42964   8.055  11.165   1.296  0.0751  0.2982 -0.0076
26831W        W42965   9.138   1.705  15.990  0.0528  0.0027 -0.0804
26832W        W42966  11.515  14.254   1.119 -0.1511 -0.1518 -0.0862
26833W        W42967   7.846   0.435  12.164 -0.1007  0.2991  0.2199
26834W        W42968  15.986   1.496   0.983 -0.0394 -0.0352 -0.1848
26835W        W42969  17.915   0.515   4.135  0.0931 -0.1569 -0.0077
26836W        W42970   5.912  17.470   1.801  0.0532  0.0926 -0.1325
26837W        W42971   8.829  15.241  16.624 -0.0291  0.0662  0.3320
26838W        W42972  17.638   1.568  12.750  0.1043 -0.0654  0.0669
26839W        W42973   4.754  12.522  15.645 -0.0288  0.2773 -0.2114
26840W        W42974   5.969   4.612   3.065  0.0260 -0.1655  0.0118
26841W        W42975  16.399  15.804   5.419 -0.1326 -0.1941 -0.1739
26842W        W42976  17.538  17.361   1.133 -0.1131 -0.1775  0.1453
26843W        W42977  15.332   7.021  12.935  0.1819 -0.0310 -0.0156
26844W        W42978   3.306   6.309  15.163 -0.0087  0.1044 -0.1176
26845W        W42979   7.673   8.570   4.129  0.2454 -0.3279 -0.1274
26846W        W42980   3.287  11.761   5.073  0.2263  0.1389  0.2748
26847W        W42981   4.309   9.455  14.721 -0.0989 -0.0817  0.3576
26848W        W42982  15.810   3.027  15.076  0.0762 -0.1060  0.2976
26849W        W42983   3.696   6.019  13.714 -0.0897  0.1114 -0.2478
26850W        W42984   9.709   6.271   1.993  0.0286 -0.1359 -0.1982
26851W        W42985  10.012   1.582  11.626  0.1847 -0.0322  0.0995
26852W        W42986   4.406   4.123  12.149  0.0495  0.0782  0.1092
26853W        W42987   0.841   1.696  15.529 -0.3786  0.0912 -0.0607
26854W        W42988  16.022  12.474  13.402 -0.1278  0.1844  0.0509
26855W        W42989   8.755  15.690   0.873 -0.0931 -0.0646 -0.3725
26856W        W42990   5.794   3.938   4.339 -0.3441 -0.1603 -0.0761
26857W        W42991  11.750   4.009   6.363 -0.0568 -0.2491  0.2294
26858W        W42992   1.566  10.627   4.571  0.0245  0.0280 -0.0283
26859W        W42993  16.244  14.125   3.265  0.1233 -0.1022  0.0358
26860W        W42994   4.299  11.614   4.221  0.0998 -0.1680 -0.1790
26861W        W42995   8.401   2.326  13.004  0.0285 -0.2783  0.4692
26862W        W42996  15.179   7.823   4.780  0.1510 -0.0574 -0.0141
26863W        W42997   7.473  10.764   2.675 -0.0309 -0.0765 -0.0908
26864W        W42998   0.071   7.100   1.788  0.0052 -0.1860 -0.1970
26865W        W42999  13.837   4.635   3.559  0.0079 -0.0209 -0.0738
26866W        W43000   3.801   2.654   5.296  0.0514  0.4339 -0.0413
26867W        W43001   8.708  15.362  11.247 -0.0750 -0.2120 -0.1082
26868W        W43002  16.864  15.050  16.326 -0.0287  0.0533 -0.2763
26869W        W43003   9.190   3.787   1.537 -0.1607 -0.2201 -0.1494
26870W        W43004   5.813  13.786  12.821 -0.1518  0.0930 -0.0156
26871W        W43005   2.197   2.889  13.036  0.2435  0.0118  0.1782
26872W        W43006   1.485  15.285  16.425 -0.2324 -0.1922 -0.1432
26873W        W43007   7.851  14.270   3.599  0.0117 -0.2542 -0.1102
26874W        W43008  12.329   7.255   3.046 -0.0940  0.0274 -0.2970
26875W        W43009   0.472   9.637   2.620 -0.1890 -0.0488 -0.2177
26876W        W43010   7.286   9.404   2.699 -0.0799 -0.1295 -0.1802
26877W        W43011   4.462  16.338   4.476 -0.1833  0.1455 -0.0694
26878W        W43012  15.623   2.259  14.085  0.1490 -0.0918 -0.0662
26879W        W43013   0.052  10.920   2.576  0.0172  0.1010 -0.1428
26880W        W43014   9.245  15.568  13.163 -0.5858  0.0995 -0.0957
26881W        W43015  13.196   6.437   3.072  0.1942 -0.2446 -0.0683
26882W        W43016  13.114  17.386  14.267  0.0935  0.0648  0.1594
26883W        W43017   5.165  11.814   1.630 -0.0405 -0.1938  0.2113
26884W        W43018  12.866   6.545  12.041 -0.0018  0.1511 -0.1088
26885W        W43019  15.897   6.818   3.169 -0.2039  0.1223 -0.1166
26886W        W43020  10.114  16.602   5.911 -0.1443 -0.0515  0.2933
26887W        W43021  16.817  12.646   6.473 -0.2067  0.0641 -0.2309
26888W        W43022   3.127  17.660  13.082 -0.1199 -0.0069 -0.2067
26889W        W43023   3.028  15.524  15.534 -0.1726 -0.2162  0.0287
26890W        W43024   9.683  14.361   3.593  0.0934  0.0162  0.2672
26891W        W43025  16.104   7.433  13.986 -0.2239  0.1888  0.3491
26892W        W43026   1.392  14.126  15.664  0.1685 -0.3156  0.1993
26893W        W43027  10.323   4.255  11.671  0.0850  0.0046  0.1902
26894W        W43028  15.357  13.435  14.780  0.1080  0.1824  0.1698
26895W        W43029   0.218  12.683   2.795 -0.0359  0.2701 -0.1311
26896W        W43030  15.060   9.977  14.472  0.2345 -0.2195  0.0879
26897W        W43031  10.678   2.191  13.827 -0.3251 -0.0284  0.2807
26898W        W43032  11.807   2.907   2.567  0.0647  0.3323 -0.0046
26899W        W43033  14.546   9.719   3.692 -0.1602 -0.0090 -0.2892
26900W        W43034   4.899   0.441  13.605 -0.0328  0.1635  0.1299
26901W        W43035  13.772   1.855   1.787 -0.0622  0.1203  0.1124
26902W        W43036  14.621   5.647   2.933 -0.1979 -0.0768  0.1284
26903W        W43037  17.749   5.519  16.080  0.2130  0.1038 -0.3399
26904W        W43038   1.858  14.043  15.349  0.1906  0.1004  0.1010
26905W        W43039  12.517   4.155  13.282 -0.0059  0.1875 -0.0901
26906W        W43040  11.074  10.435   0.999 -0.1693 -0.0319  0.3912
26907W        W43041  16.879   6.755   2.355  0.0101 -0.1802 -0.0085
26908W        W43042   0.452   1.113  16.588  0.0931  0.0973  0.0868
26909W        W43043  10.418   3.324  12.406 -0.2076  0.0676 -0.1041
26910W        W43044   4.546   8.258  13.920 -0.2440  0.0562 -0.0942
26911W        W43045   0.595  17.318  12.846 -0.2185 -0.0496  0.2357
26912W        W43046  16.879   4.952   3.790 -0.0466 -0.0271 -0.0190
26913W        W43047   3.602   9.928   3.090  0.2678  0.0772 -0.0752
26914W        W43048   0.912   4.120   1.432  0.3014 -0.0137 -0.1500
26915W        W43049   4.594  13.979   5.833 -0.0621  0.3264  0.2850
26916W        W43050  17.231   9.952  12.941  0.3762  0.0610 -0.1220
26917W        W43051  10.954  15.916   2.460 -0.1119  0.0861  0.0698
26918W        W43052   4.275   6.989  13.508 -0.4092  0.0649  0.3146
26919W        W43053  11.527  13.789  16.027  0.2430 -0.0943 -0.1953
26920W        W43054  14.195   5.268   1.364  0.2136  0.2330 -0.0456
26921W        W43055   0.660   2.054  12.198  0.1471 -0.3996 -0.3712
26922W        W43056   1.207   5.290   2.794 -0.1501  0.0115 -0.0105
26923W        W43057  13.064  10.771   5.628 -0.1465  0.2445  0.2961
26924W        W43058   6.949   2.972   1.340 -0.1473 -0.3165 -0.2440
26925W        W43059  10.599  11.612  11.054 -0.2181  0.0189  0.1626
26926W        W43060  14.458  11.235   6.007  0.2545 -0.1110 -0.1156
26927W        W43061   7.077   7.787   1.250  0.3360 -0.1989 -0.2402
26928W        W43062   4.651  14.750  12.999 -0.1862  0.1260  0.3372
26929W        W43063   6.137  14.749   4.306 -0.1108 -0.1621  0.1487
26930W        W43064   4.496  11.113  11.533 -0.0686 -0.1732 -0.1011
26931W        W43065   6.390  17.391  15.935  0.0195  0.0336 -0.1574
26932W        W43066   6.834   1.797  12.311 -0.2641 -0.0691 -0.2376
26933W        W43067  17.759   5.528   3.712 -0.0135 -0.1894 -0.0481
26934W        W43068   9.073   6.913   4.577  0.0747  0.0333  0.0232
26935W        W43069  10.478   2.285   0.906 -0.0573  0.6020  0.0934
26936W        W43070   4.716  17.940  12.087 -0.2078  0.2638  0.1152
26937W        W43071  10.767  15.042  16.584 -0.4287 -0.1133 -0.1346
26938W        W43072  15.406   4.463   3.594 -0.3321 -0.2036  0.1193
26939W        W43073   6.014   9.319  15.528  0.0342  0.1691  0.2737
26940W        W43074  15.768  15.879  12.109 -0.3075 -0.0048 -0.1145
26941W        W43075   6.904   3.020  14.398 -0.2665 -0.1740 -0.2842
26942W        W43076  13.152  12.698  13.667  0.0492 -0.0036 -0.2567
26943W        W43077   7.820   4.585  11.437 -0.1110  0.0802 -0.1694
26944W        W43078   1.911   7.304   3.590 -0.1784 -0.1003  0.2349
26945W        W43079   2.259   4.779   3.276  0.2318 -0.1457  0.0089
26946W        W43080   9.864  12.625  15.529  0.3739 -0.3873 -0.1891
26947W        W43081  14.932   9.040   2.904 -0.0445 -0.1290 -0.1119
26948W        W43082  15.572  14.671   5.963  0.0389  0.1255  0.2197
26949W        W43083  11.692  14.911   0.726 -0.0625 -0.2167 -0.1260
26950W        W43084   3.255  12.587   4.968 -0.0583 -0.1280  0.1521
26951W        W43085  14.191   0.990   2.197 -0.0660  0.2225  0.1521
26952W        W43086   7.462  11.757   2.905 -0.0499 -0.3489  0.0898
26953W        W43087   5.075   7.070   6.149 -0.0369 -0.0618  0.1673
26954W        W43088  17.965  10.745  12.974 -0.0679 -0.0615 -0.0959
26955W        W43089   1.218  16.941  14.661 -0.2461  0.3529 -0.0022
26956W        W43090  14.452   4.229   2.391 -0.0867  0.3122 -0.1528
26957W        W43091  17.102  12.708   2.661  0.0030 -0.1433  0.1653
26958W        W43092  13.792  11.254  12.530  0.1616  0.2126 -0.0925
26959W        W43093   5.893  14.314  14.266  0.1186  0.0029 -0.3455
26960W        W43094   7.607   2.775   5.100  0.0010 -0.0918 -0.2410
26961W        W43095  17.904   0.698   5.191 -0.1703  0.2680  0.2977
26962W        W43096  14.962   9.806  11.928 -0.0500  0.0944  0.0122
26963W        W43097   5.923  12.096   5.457 -0.2855 -0.0986 -0.1149
26964W        W43098   8.268  10.270  13.939 -0.2839 -0.1113  0.1257
26965W        W43099   3.291   8.981  15.611  0.2832  0.0529 -0.0940
26966W        W43100  16.442  15.145  13.478  0.1106  0.0551 -0.4696
26967W        W43101   8.859   3.391  13.767 -0.1369 -0.2728  0.0002
26968W        W43102  17.902   6.264  14.876  0.0007 -0.2328  0.2262
26969W        W43103  15.751  11.261   3.613  0.2015 -0.0579 -0.0358
26970W        W43104   1.706  14.788  15.702  0.0950 -0.1719  0.1030
26971W        W43105  16.161  17.821  15.000 -0.1527 -0.3267 -0.0037
26972W        W43106   6.873   6.720   0.318  0.0919 -0.0713  0.3143
26973W        W43107   2.087  17.386   0.489  0.1559 -0.1072 -0.3335
26974W        W43108   1.180   0.640  15.761  0.0879 -0.0336 -0.1546
26975W        W43109  10.875   2.665   1.063 -0.0642  0.0726 -0.1229
26976W        W43110  14.961   7.185  15.273  0.1729 -0.3934 -0.0008
26977W        W43111   5.239  11.382   1.480  0.2646  0.0291 -0.1118
26978W        W43112  12.284  11.610   2.321  0.1255  0.0311  0.0177
26979W        W43113   9.575  17.540   1.042 -0.1661 -0.2084 -0.1655
26980W        W43114   2.725   2.806  11.470 -0.0910  0.0978  0.0084
26981W        W43115  12.002  15.098   0.123  0.0181 -0.0271  0.1385
26982W        W43116   5.065   9.506  14.295 -0.1946 -0.0853 -0.0440
26983W        W43117  15.088   3.533   3.462  0.0233 -0.3246 -0.4013
26984W        W43118   9.077  11.595  15.868 -0.0659 -0.1330  0.2207
26985W        W43119   2.499  16.041  16.111 -0.1532 -0.1559  0.2313
26986W        W43120  13.063  11.014  11.126 -0.1656  0.1361 -0.0455
26987W        W43121   4.554  13.476   0.927 -0.4642  0.1039 -0.0996
26988W        W43122  13.415  16.381  12.824  0.2264 -0.0962  0.3266
26989W        W43123   9.666   9.977   4.309 -0.3691  0.2919 -0.0616
26990W        W43124   0.111   9.714   2.288 -0.0273 -0.2097 -0.1478
26991W        W43125  15.005  11.209  10.765 -0.1014 -0.3050 -0.1139
26992W        W43126  17.679  17.436  16.380 -0.0506 -0.0214 -0.0953
26993W        W43127  13.687   1.623  16.294 -0.0110  0.2167 -0.2133
26994W        W43128   7.602   9.558  13.390  0.0163  0.1558 -0.1194
26995W        W43129   1.655  11.855   0.970 -0.0549  0.0552  0.0015
26996W        W43130  16.156   7.992   4.086 -0.1676 -0.1422 -0.1227
26997W        W43131   7.699  13.122   4.245  0.3947  0.0420 -0.1499
26998W        W43132   4.535   6.115  11.633 -0.0174  0.2371  0.2222
26999W        W43133  10.959  16.916   4.532  0.0672  0.4393  0.4257
27000W        W43134  11.534  11.916   4.245 -0.0565 -0.4064  0.1163
27001W        W43135   2.168  12.380   2.004 -0.0386  0.0098 -0.0276
27002W        W43136   7.911  12.718   4.399  0.0301 -0.0114  0.1443
27003W        W43137   2.489   6.657  11.672 -0.3502  0.1336  0.1089
27004W        W43138   0.663  12.725   4.557 -0.0441 -0.0097  0.2941
27005W        W43139  13.648  10.663   0.404 -0.0520  0.0274  0.0582
27006W        W43140   8.458   0.210   1.563 -0.0173  0.0241  0.1038
27007W        W43141  10.196   0.601  15.302 -0.1355 -0.1668 -0.0604
27008W        W43142  14.035   7.021   1.104  0.3151 -0.2416 -0.4572
27009W        W43143  17.198   6.969  13.205  0.2331  0.0927 -0.2804
27010W        W43144   5.231   5.600  12.543 -0.2387  0.2341  0.1868
27011W        W43145  11.557  14.112   5.863  0.1122  0.0870  0.0490
27012W        W43146   1.134   0.919  13.664  0.3690 -0.1833 -0.2361
27013W        W43147   6.794  12.678   4.644 -0.0355  0.1748  0.1260
27014W        W43148   6.020  10.920  15.087  0.1566 -0.1328  0.0756
27015W        W43149   7.680  13.894  12.730  0.1545  0.0116 -0.1971
27016W        W43150   8.397   4.215  16.002 -0.2884 -0.1788  0.2177
27017W        W43151  10.700   7.686  11.166 -0.1237 -0.2758  0.1743
27018W        W43152   1.789  10.478   1.511  0.0170 -0.0964  0.0142
27019W        W43153  17.124   6.060   1.226  0.3201 -0.3683 -0.2637
27020W        W43154   0.041   2.436   2.199 -0.3257 -0.3113  0.1273
27021W        W43155   6.322   2.826  15.111 -0.0965  0.0017 -0.1651
27022W        W43156   9.583   8.578  13.489  0.0587  0.0514  0.0567
27023W        W43157   6.518  11.087  15.852  0.1600 -0.1981  0.1634
27024W        W43158   2.497   8.088   2.905  0.5182 -0.1420 -0.5128
27025W        W43159  11.996   9.886   3.909  0.1507 -0.3720  0.1353
27026W        W43160  15.816   6.407  14.970 -0.0958 -0.1391 -0.0776
27027W        W43161   8.471   2.858   3.324  0.0619 -0.1242  0.1135
27028W        W43162  12.613  14.457   0.343 -0.0659  0.1387 -0.1476
27029W        W43163  11.876  11.771   1.111  0.1680 -0.1711  0.0635
27030W        W43164   3.968   2.848  14.885 -0.0538  0.0082  0.2285
27031W        W43165  16.363  16.641  16.405  0.0557  0.1069 -0.2093
27032W        W43166   5.590   2.208   5.178 -0.0573 -0.1487 -0.1922
27033W        W43167  14.085  10.001  14.197  0.1037  0.0132  0.1654
27034W        W43168  16.410  17.387  14.810  0.1351 -0.2776  0.1144
27035W        W43169  14.419  15.643   1.469  0.2135  0.3623 -0.0102
27036W        W43170  10.787  14.795  11.289 -0.0173 -0.1933  0.0911
27037W        W43171   3.614   7.372   3.378  0.2455 -0.2067 -0.1256
27038W        W43172   2.466   4.959   4.669 -0.1102  0.0360  0.1213
27039W        W43173   9.265  12.235  12.015  0.0321 -0.1656  0.1848
27040W        W43174  14.709  16.856  15.157 -0.3051  0.2498  0.3677
27041W        W43175   1.922  15.796   2.502 -0.3006 -0.3197 -0.1751
27042W        W43176  16.520   4.394   0.871 -0.0216  0.1600 -0.1623
27043W        W43177   5.785   3.160  11.151  0.2447  0.0084 -0.0059
27044W        W43178   9.290   8.293   6.015  0.1108 -0.1471  0.1109
27045W        W43179   8.967   2.411  11.835 -0.0654  0.1843 -0.0563
27046W        W43180   2.128   5.752  12.942 -0.0450  0.2967  0.0627
27047W        W43181  13.789   4.638   1.759 -0.1499  0.1381 -0.0020
27048W        W43182   8.464  12.064   2.253 -0.2017  0.3526 -0.1335
27049W        W43183  15.061  14.874   5.255 -0.1986  0.2600 -0.1090
27050W        W43184   3.677  12.112   1.475 -0.1534  0.2873 -0.1323
27051W        W43185   2.109  17.319  16.490  0.0357 -0.2035  0.1350
27052W        W43186  10.324   2.105  11.877 -0.3048  0.1778 -0.0647
27053W        W43187  17.471   8.178   4.541 -0.0347 -0.0178 -0.4223
27054W        W43188  16.969   1.520  11.393 -0.0812  0.1147  0.0650
27055W        W43189   4.867   1.497   3.405 -0.1158 -0.0788  0.1761
27056W        W43190   5.518   2.667   1.317 -0.2166 -0.1146 -0.0234
27057W        W43191   9.791  11.666  13.011  0.3783 -0.0556 -0.0862
27058W        W43192  16.403   8.157   3.677 -0.0087 -0.0954  0.0825
27059W        W43193   3.745  14.085  12.441  0.2309  0.1677  0.1120
27060W        W43194   8.406   8.832   3.634 -0.0224 -0.1236 -0.1206
27061W        W43195  11.476   0.783   4.888  0.0577  0.0916 -0.5298
27062W        W43196   2.953   3.180   1.305 -0.0735  0.3223  0.1320
27063W        W43197   1.469   6.661  11.462 -0.3612  0.3206 -0.1823
27064W        W43198  15.849   6.354   1.909  0.2034  0.1937 -0.1072
27065W        W43199   1.166  10.330  15.984  0.2904 -0.2325  0.0020
27066W        W43200   3.477  13.955   0.417  0.1704  0.1380  0.0181
27067W        W43201   8.097   0.531  14.202  0.1226  0.1607 -0.0906
27068W        W43202  12.981   1.550   1.015  0.2204  0.1221 -0.0024
27069W        W43203   9.939  17.283   1.579 -0.1495  0.2530  0.4859
27070W        W43204   2.906  14.293   2.653  0.1825  0.1011 -0.1036
27071W        W43205  14.611   8.714  14.090 -0.3378 -0.2823 -0.1453
27072W        W43206  10.245  13.201  16.193 -0.1330 -0.1460 -0.2024
27073W        W43207   8.836   9.200   2.998  0.2054 -0.1771  0.2553
27074W        W43208   6.028  11.957  12.955  0.2516 -0.1708  0.0872
27075W        W43209   2.595  14.015   3.160  0.0308  0.0879  0.2757
27076W        W43210   7.705   1.128   4.873 -0.1376 -0.4282  0.2079
27077W        W43211   6.070  16.263  16.511 -0.1155 -0.5624  0.3837
27078W        W43212  13.781  15.082  10.768  0.1001  0.2095 -0.1216
27079W        W43213  16.636   6.138  15.321  0.0759 -0.0347 -0.2621
27080W        W43214   2.456  16.545   5.413  0.4354  0.2839  0.0049
27081W        W43215  14.265   7.718  13.872 -0.1698 -0.1073  0.0804
27082W        W43216  17.426   9.058  12.402 -0.1455  0.1420 -0.0001
27083W        W43217   4.093   1.726  14.701 -0.0939 -0.0251  0.0540
27084W        W43218  14.375  17.498  16.191 -0.3286  0.1269  0.0609
27085W        W43219  14.756  12.677   0.101  0.0701  0.0069  0.1241
27086W        W43220   5.373  15.177   3.052 -0.0870  0.2465 -0.0584
27087W        W43221   5.631   3.694   5.851 -0.0101  0.2375 -0.0217
27088W        W43222  12.725  12.993  13.740 -0.0643 -0.0471 -0.1153
27089W        W43223  13.225  14.302  15.089 -0.1135 -0.0125  0.1675
27090W        W43224   0.402   8.400  14.059 -0.1867  0.2284 -0.1582
27091W        W43225   0.371  12.229  13.069  0.0147 -0.3100 -0.0903
27092W        W43226   7.537   0.521  12.983  0.0573  0.3429 -0.0498
27093W        W43227   5.674   7.295   0.329  0.2817 -0.0565 -0.0965
27094W        W43228  12.175  10.641  14.622 -0.1093  0.3274 -0.0078
27095W        W43229   8.337   9.362  13.682 -0.2540  0.0134 -0.0237
27096W        W43230   0.689  14.535  16.630 -0.4006  0.2231 -0.0469
27097W        W43231   0.400   1.788   3.649  0.2121 -0.0879  0.2403
27098W        W43232  10.500   7.466  13.205 -0.0501  0.1292 -0.0424
27099W        W43233   6.874  16.688   4.511 -0.1751  0.0919  0.0485
27100W        W43234  13.170   9.886  15.737 -0.2779  0.0053 -0.0390
27101W        W43235   5.031   2.827   2.985 -0.2045  0.2622 -0.0444
27102W        W43236  17.105  11.090   2.497 -0.0345  0.1278 -0.1032
27103W        W43237  17.407  13.519  15.634  0.1361  0.2307  0.1105
27104W        W43238  11.530  10.671   2.083 -0.0603 -0.1517  0.1321
27105W        W43239   0.699  12.473  14.711  0.0149  0.0474  0.2022
27106W        W43240   5.529   1.637   2.266 -0.3806  0.0551 -0.0792
27107W        W43241  11.995   4.072  12.402  0.0919  0.0570 -0.1258
27108W        W43242   4.775   5.764  12.472 -0.3967  0.1440  0.1048
27109W        W43243  10.869  13.770   5.521 -0.2492 -0.0068  0.0900
27110W        W43244  17.515   1.358  12.224  0.0271  0.0016 -0.1233
27111W        W43245  17.845   9.573  16.609  0.0344  0.0179 -0.1266
27112W        W43246   2.128   4.731   2.815 -0.1533  0.2690  0.0708
27113W        W43247  10.388  17.639  14.040 -0.0689  0.0251  0.2244
27114W        W43248   4.204   0.441  15.745  0.0319 -0.3091 -0.1706
27115W        W43249  11.640  14.344  12.681  0.0655  0.0599 -0.2205
27116W        W43250  17.254  15.565   4.536  0.1302 -0.0763  0.0850
27117W        W43251   0.823  16.440  11.216 -0.0082 -0.0520 -0.0024
27118W        W43252   4.443   3.080  13.985  0.2452 -0.2874  0.2113
27119W        W43253   9.084   1.434  15.589  0.3067 -0.0641 -0.1942
27120W        W43254   5.672  17.567   4.356  0.2745 -0.3475 -0.2322
27121W        W43255   9.309  12.458  15.505 -0.0561  0.0532  0.0465
27122W        W43256   7.788   6.088   2.471  0.2424  0.1033  0.0516
27123W        W43257  17.178  13.340   1.528 -0.2542 -0.1935 -0.2121
27124W        W43258  16.999  14.638   1.064  0.0332 -0.0077 -0.2259
27125W        W43259  10.639  17.041   5.484 -0.2437  0.2058 -0.1243
27126W        W43260   7.988   9.445   4.634 -0.3043  0.2565  0.0010
27127W        W43261  15.804   4.802   2.158 -0.1148  0.0218 -0.1522
27128W        W43262   4.330  10.867   2.015  0.1972 -0.1100 -0.5375
27129W        W43263   1.366   1.593   5.843 -0.0696  0.0442 -0.0401
27130W        W43264  11.874  10.966  14.888 -0.0262 -0.1934  0.0367
27131W        W43265   5.887   2.171  15.472 -0.1211 -0.1073  0.1051
27132W        W43266   7.761   8.564   0.048 -0.1657  0.1274 -0.1358
27133W        W43267   5.468  11.701   0.146  0.0887  0.1423 -0.0245
27134W        W43268  14.339  11.043  11.713  0.0426 -0.1289  0.1875
27135W        W43269  16.717  11.300   3.756  0.3659  0.1890  0.2254
27136W        W43270  13.637  13.280   1.875  0.1304 -0.0944 -0.0225
27137W        W43271  10.850  15.215  11.534 -0.0170  0.5301 -0.2483
27138W        W43272  17.143   3.283   1.239 -0.0333 -0.1348 -0.4006
27139W        W43273  14.730   4.454  13.357  0.2333  0.1038  0.2332
27140W        W43274   4.634   4.029  13.989  0.2337  0.1473 -0.2182
27141W        W43275  15.438  11.093   5.381  0.0481  0.3375 -0.3717
27142W        W43276   1.818  17.673   4.224  0.2747 -0.1470 -0.0253
27143W        W43277  17.153   8.791  16.616  0.0651 -0.0918 -0.0801
27144W        W43278   2.843   5.812  14.715  0.3728 -0.2120 -0.4447
27145W        W43279  13.369  16.248  12.288 -0.1787  0.1281  0.0757
27146W        W43280   5.011  15.824  11.235  0.0172 -0.1355 -0.2894
27147W        W43281  17.637   7.043  15.592 -0.2788  0.0070 -0.1744
27148W        W43282   1.853   1.238   1.004  0.0067 -0.2551 -0.1085
27149W        W43283   7.553   7.821  15.617  0.1812 -0.0490 -0.0262
27150W        W43284   3.334   7.563   1.346  0.0083 -0.2093  0.0166
27151W        W43285  16.965   5.584   4.874  0.0956  0.1194  0.0203
27152W        W43286   7.690   9.814  12.464  0.0184 -0.0555 -0.1267
27153W        W43287   4.999  11.587  13.873 -0.3570 -0.1229 -0.0412
27154W        W43288   0.488   9.351   0.689  0.0509 -0.3769  0.2816
27155W        W43289   5.213  17.292   0.295  0.0041 -0.0694 -0.1533
27156W        W43290   6.467   4.496   2.201  0.4344  0.3367 -0.0357
27157W        W43291  10.928  12.383   4.295 -0.1993 -0.1448 -0.2462
27158W        W43292   9.360  13.561   1.812  0.0785 -0.0386  0.1082
27159W        W43293   1.064   8.867   1.458 -0.3037  0.0981 -0.3443
27160W        W43294   1.917   4.280  10.932 -0.1548  0.3386 -0.1240
27161W        W43295   7.836  11.226  15.290  0.1635 -0.1275 -0.3239
27162W        W43296  12.264   3.145   5.853 -0.4069 -0.1518 -0.1014
27163W        W43297   9.886  14.416   0.871  0.1956  0.1341  0.3333
27164W        W43298   1.544  15.462  11.802  0.3993  0.2691 -0.2624
27165W        W43299  13.673   3.279  16.452 -0.4022 -0.0436 -0.0280
27166W        W43300   5.353   2.607  14.306 -0.0158 -0.3786  0.3434
27167W        W43301   0.831   3.119  13.307  0.1982 -0.0182  0.0326
27168W        W43302   7.362  15.444   4.814  0.0119  0.1980 -0.1632
27169W        W43303   8.884   1.326   0.920 -0.2442 -0.1105 -0.0946
27170W        W43304   4.673   0.884  15.197 -0.1861 -0.2362  0.2206
27171W        W43305   7.065  13.944   0.569  0.0980 -0.2408  0.2944
27172W        W43306   2.102   9.634   4.784 -0.2627  0.1991  0.1703
27173W        W43307   1.544   3.956  15.090 -0.0623 -0.2869 -0.3929
27174W        W43308  14.799   6.782   4.170 -0.3230 -0.1818  0.0831
27175W        W43309   0.987  17.931   0.113 -0.0205 -0.0873  0.0701
27176W        W43310   1.156  12.009  11.855  0.3450  0.2280 -0.0696
27177W        W43311   7.199   3.331  14.617 -0.0331 -0.3457  0.4024
27178W        W43312   0.036   3.158   5.612  0.2494 -0.1341 -0.3027
27179W        W43313   6.200  15.795  10.592 -0.0136 -0.1727 -0.4910
27180W        W43314   5.012  16.041   5.341  0.0936  0.1728 -0.1788
27181W        W43315  15.953  14.218   1.037 -0.3027 -0.0042 -0.0822
27182W        W43316   0.387   8.845  12.019  0.0817  0.0309  0.0901
27183W        W43317  14.913  16.877  15.635 -0.2740 -0.1490 -0.0040
27184W        W43318   9.683   8.989   2.986  0.1272  0.0593  0.1918
27185W        W43319   9.050  10.818  14.333 -0.2778  0.1567  0.2088
27186W        W43320  14.224  12.016  16.110  0.3530  0.2598  0.1980
27187W        W43321   7.095  10.125  16.380  0.2843 -0.1562 -0.0857
27188W        W43322  11.357  12.020  12.187 -0.0914 -0.1054  0.0987
27189W        W43323   2.647  15.991   4.185  0.0056  0.0555  0.2537
27190W        W43324  15.307  10.197   4.999 -0.2369 -0.1117 -0.1338
27191W        W43325   3.920   0.444   3.526 -0.2858 -0.0623  0.1204
27192W        W43326  17.724  11.673   1.042  0.0258  0.1490 -0.0109
27193W        W43327  13.821  17.532   1.167  0.0741 -0.2099 -0.2298
27194W        W43328   3.737   2.622   1.525  0.0353 -0.3785 -0.1099
27195W        W43329  10.917  17.135  13.389  0.0453 -0.1661  0.0665
27196W        W43330  17.093   4.632   5.289 -0.0255 -0.3133 -0.1684
27197W        W43331   3.556   2.137  15.933  0.0519 -0.1826  0.0940
27198W        W43332   4.868   2.758  14.526 -0.2506  0.3494  0.0438
27199W        W43333   0.447  12.502   4.915 -0.2277  0.1090 -0.4092
27200W        W43334   4.870   0.010   4.661 -0.0922 -0.0575  0.1691
27201W        W43335  16.881   2.103  14.203  0.0622  0.3971  0.0253
27202W        W43336   5.982   8.798   0.473  0.2502  0.0716  0.2357
27203W        W43337   0.499   4.886   2.955  0.0857 -0.4182 -0.2160
27204W        W43338  13.557  13.032   2.390  0.2432  0.2378 -0.3782
27205W        W43339  15.342   0.036   2.756 -0.0706 -0.3547 -0.1987
27206W        W43340  16.329   0.407   1.707 -0.1156  0.1314 -0.3018
27207W        W43341   9.779  17.250   5.486 -0.0351  0.1668 -0.2039
27208W        W43342   2.017   5.383  14.716 -0.1243  0.1239  0.0873
27209W        W43343   2.699   7.191   0.877  0.0448 -0.1033 -0.1224
27210W        W43344   4.754  11.260   0.334 -0.1417 -0.0673  0.0077
27211W        W43345   6.243   5.880   0.295  0.1356 -0.1993  0.1742
27212W        W43346   6.883  11.691   1.344 -0.1499  0.1182 -0.1092
27213W        W43347   2.156   2.132   2.100 -0.1136  0.0725  0.1521
27214W        W43348  12.223   4.387  13.733  0.1504 -0.0179  0.1381
27215W        W43349  12.412   5.469  13.569  0.2200  0.3222 -0.1775
27216W        W43350   4.455  17.909   0.690  0.0455 -0.0379  0.2270
27217W        W43351   1.070  12.788   0.812 -0.0485 -0.1526  0.0468
27218W        W43352  15.415  11.992   5.565 -0.2840 -0.2967  0.0337
27219W        W43353  10.080  10.658   5.901 -0.0596 -0.2080 -0.1706
27220W        W43354   6.892   1.623  14.913  0.1193  0.1059  0.1322
27221W        W43355   9.522   6.827  14.712  0.0710  0.0865  0.0197
27222W        W43356   4.059  16.350   1.017 -0.1483  0.1070 -0.0591
27223W        W43357   8.528   3.946  12.370 -0.0548 -0.1038 -0.1716
27224W        W43358  12.866  15.158   3.050  0.1052 -0.2489  0.2471
27225W        W43359   9.785   0.024   4.956 -0.0836 -0.0814 -0.2981
27226W        W43360   9.815  16.014  11.631  0.1783  0.0494  0.0151
27227W        W43361   5.489   0.450  15.734  0.0399 -0.1424 -0.0740
27228W        W43362   1.420   2.434   5.241 -0.3971  0.2633  0.2374
27229W        W43363  16.535  15.301   3.681 -0.2105 -0.0075  0.1196
27230W        W43364  16.922   6.879  14.187  0.0966  0.0744 -0.1579
27231W        W43365   6.019   2.040   5.799 -0.0575 -0.0419  0.1319
27232W        W43366   3.450   1.370  13.899  0.0774 -0.0373 -0.1445
27233W        W43367  16.513   7.164  14.350  0.2892  0.3534 -0.0817
27234W        W43368   1.692   5.798  12.151  0.1760 -0.1096  0.1088
27235W        W43369  12.816  15.149  11.848  0.1239 -0.0785 -0.1023
27236W        W43370   2.635   7.302   4.820 -0.0304  0.1646  0.0360
27237W        W43371   0.917  16.710  13.447  0.0703  0.1053  0.1276
27238W        W43372   0.516   5.539  16.657 -0.0795  0.1136  0.1851
27239W        W43373   9.447  12.766  11.418  0.4909 -0.1439 -0.1062
27240W        W43374  11.705   8.800  12.332  0.0665 -0.1187 -0.3199
27241W        W43375  12.455   4.993   4.224 -0.0531 -0.0282  0.1898
27242W        W43376  12.696   4.163   1.229  0.1638  0.1113  0.0599
27243W        W43377   0.645   0.283   3.650  0.0227 -0.2809 -0.3349
27244W        W43378   5.899  14.402   1.236 -0.3181  0.3898 -0.0755
27245W        W43379   1.970  11.757  15.430 -0.0597  0.0958  0.2689
27246W        W43380  14.792   5.740  11.986 -0.2729 -0.0291 -0.0003
27247W        W43381  17.911   8.171   5.466 -0.1372 -0.1353 -0.1169
27248W        W43382   8.140   2.353   2.152  0.3925  0.1297 -0.2400
27249W        W43383   8.015   0.840  12.367 -0.1521  0.1517  0.2054
27250W        W43384  13.951  16.142   1.354 -0.0501  0.0756 -0.1084
27251W        W43385   0.398  15.420   4.928 -0.1072 -0.3118 -0.3393
27252W        W43386   7.956  10.808  16.385 -0.1859  0.0318 -0.0157
27253W        W43387   1.246  14.811  10.636 -0.0862 -0.1068  0.1122
27254W        W43388  10.033  14.362   3.960 -0.1299  0.1769 -0.0045
27255W        W43389  15.479  15.381   2.086  0.0069  0.1713  0.2480
27256W        W43390   1.786   2.617   2.101 -0.1303  0.0393  0.3149
27257W        W43391   4.042   0.530  11.326  0.0449  0.0819  0.2385
27258W        W43392  14.070  13.247   0.029 -0.5056  0.0372 -0.0563
27259W        W43393  12.068   4.432  12.072  0.0606  0.1662 -0.1801
27260W        W43394   6.564  15.640   5.253  0.4941  0.0110 -0.0904
27261W        W43395  10.791  11.748   4.555 -0.1097 -0.2126  0.2529
27262W        W43396   2.573   4.015  15.903 -0.0808  0.0715 -0.0401
27263W        W43397   7.872   2.043  14.587 -0.1375 -0.1170 -0.1735
27264W        W43398   6.772   0.792  15.890 -0.1202 -0.3828 -0.3711
27265W        W43399   8.240   7.050  15.443 -0.0014 -0.3683 -0.1498
27266W        W43400   6.679   7.653  13.703 -0.2702 -0.1102  0.1860
27267W        W43401  11.209  17.452  13.640  0.0193 -0.0221  0.5383
27268W        W43402   6.319  17.389   3.281 -0.4559  0.0160 -0.2032
27269W        W43403   2.868   5.225  12.130 -0.4397  0.0179  0.0922
27270W        W43404  10.420   6.797  12.301  0.5331 -0.2529 -0.0916
27271W        W43405  16.230  11.599  12.323 -0.0251 -0.0212 -0.0073
27272W        W43406  17.173   7.500   3.879  0.1185  0.0692 -0.2187
27273W        W43407   4.417   6.479  12.429  0.2806 -0.2834  0.1891
27274W        W43408  10.323  15.506  12.225  0.1624 -0.1436 -0.0849
27275W        W43409   7.467   4.444   3.826  0.3313  0.0222 -0.0275
27276W        W43410  12.212   5.033   0.660  0.1085  0.2372  0.2617
27277W        W43411   2.597  15.429   3.994  0.1436  0.2884 -0.0250
27278W        W43412  15.188  10.802  12.902  0.0247 -0.1300  0.1816
27279W        W43413   7.888  14.396   4.913 -0.0666 -0.0929  0.2207
27280W        W43414   9.939  16.300  13.892  0.1111  0.0164 -0.0303
27281W        W43415   1.317   6.347   0.256 -0.2241 -0.1535  0.0445
27282W        W43416   1.807   1.959   1.712  0.0267  0.2226  0.3188
27283W        W43417   2.613   8.767   4.802  0.0716  0.0454 -0.2718
27284W        W43418  14.020   7.590  15.348 -0.1852 -0.0680 -0.1865
27285W        W43419   9.531  17.871   2.167  0.1562 -0.1105 -0.0848
27286W        W43420   4.202  10.457   5.088  0.0106 -0.1588 -0.0259
27287W        W43421  14.200   3.169   0.607  0.0593 -0.1510  0.0570
27288W        W43422   6.274  12.877   6.014 -0.0460  0.2494 -0.0011
27289W        W43423   5.683  11.704   0.638 -0.0665  0.0595  0.1576
27290W        W43424  12.792  17.768  15.997 -0.2143 -0.3201  0.2174
27291W        W43425   5.930   6.880   2.884 -0.0023 -0.1902 -0.2106
27292W        W43426   5.341  16.633  13.117 -0.1177  0.0702 -0.0904
27293W        W43427  14.250   7.189  14.198 -0.0049  0.0399  0.1507
27294W        W43428   1.173  16.775  15.153 -0.2134 -0.1652  0.1163
27295W        W43429   5.542   1.661  12.620 -0.2670 -0.0429  0.1375
27296W        W43430   0.134  14.592   0.501 -0.0900  0.1837  0.0082
27297W        W43431  12.679   6.144  12.436  0.0461  0.0687  0.2598
27298W        W43432   9.704  14.943  16.135  0.2817 -0.2266  0.1405
27299W        W43433  17.215  16.559  16.484  0.0351 -0.1145  0.2022
27300W        W43434   4.409  11.398   6.242  0.1790 -0.0184 -0.0781
27301W        W43435   3.405   6.754  11.391 -0.0724 -0.1514  0.1462
27302W        W43436   8.380  14.796   1.988  0.2398 -0.0461  0.0797
27303W        W43437  10.689   8.989  14.190  0.0022 -0.0088 -0.1981
27304W        W43438   1.846  16.277   3.281  0.0926  0.1294 -0.1863
27305W        W43439  12.424   0.455   4.021  0.3110 -0.0974 -0.1642
27306W        W43440   4.375   7.731  12.490 -0.0456 -0.2867  0.3804
27307W        W43441   8.097  17.312   2.487  0.1002  0.2354 -0.0936
27308W        W43442  12.077   6.769   1.484 -0.1217 -0.0298  0.1161
27309W        W43443  15.601   2.686  16.387 -0.0291 -0.0093  0.2585
27310W        W43444  13.494  12.660  14.618  0.0935 -0.3179 -0.2122
27311W        W43445  16.224  14.010  15.307 -0.3164 -0.1774  0.1373
27312W        W43446  12.744   2.707   1.166  0.1563 -0.3544  0.0657
27313W        W43447  17.129   4.327  15.747  0.2134  0.1167 -0.4151
27314W        W43448  13.031  15.491  14.144  0.1566 -0.0908  0.3453
27315W        W43449  10.064   8.913   5.000 -0.1870 -0.2262  0.1831
27316W        W43450  15.640  10.891   1.291 -0.0957  0.1298 -0.4349
27317W        W43451   2.090  15.645  14.099 -0.0153  0.0046 -0.0211
27318W        W43452  14.099   1.381   1.727 -0.1370 -0.2331  0.1935
27319W        W43453  12.610  11.958   3.625 -0.2129 -0.0323  0.0990
27320W        W43454   1.373   6.726  15.195  0.1726  0.0006 -0.0407
27321W        W43455   9.631   5.440  15.093 -0.3045 -0.1318  0.0793
27322W        W43456   5.901   6.310  11.543  0.0010  0.1048  0.0853
27323W        W43457   0.499   5.685   3.993  0.1945 -0.1162  0.0528
27324W        W43458   1.683  10.050   3.437  0.2592 -0.1564  0.0272
27325W        W43459   7.400  15.683   5.303  0.4835 -0.0585  0.4023
27326W        W43460  15.072  14.595  14.210  0.1796  0.0602  0.0041
27327W        W43461   9.661  11.318  11.280  0.2059 -0.1732  0.0548
27328W        W43462  10.077  12.943   4.295  0.0774 -0.0668 -0.0724
27329W        W43463   8.894   4.735   0.500 -0.1011 -0.1837  0.1385
27330W        W43464  17.149  16.378   3.090  0.0849  0.0063 -0.1415
27331W        W43465   1.895  11.930   2.008  0.1277  0.4041  0.1745
27332W        W43466   4.385   5.035   4.417 -0.1212  0.2151 -0.1014
27333W        W43467   9.954   1.561   3.529  0.0418  0.0077  0.1392
27334W        W43468  15.254   1.018  12.159 -0.0088  0.2708  0.0227
27335W        W43469  15.887  13.734  15.069 -0.0384  0.1597  0.0856
27336W        W43470  13.058  14.303   2.677 -0.2312  0.2285 -0.2408
27337W        W43471   4.161   0.833  16.575 -0.0848 -0.0422 -0.2908
27338W        W43472   5.148   6.363   1.421  0.0935 -0.0379 -0.1992
27339W        W43473   7.790   6.436   4.763 -0.0555 -0.2567 -0.0219
27340W        W43474   9.179   9.416   0.575 -0.1416  0.1540  0.2288
27341W        W43475  15.271  15.141   1.682  0.0006 -0.1109 -0.0608
27342W        W43476  12.976  14.681   2.221  0.1830 -0.3053  0.0512
27343W        W43477   4.902   2.001   0.943 -0.1521  0.0117  0.2120
27344W        W43478  17.933  17.465  15.972  0.1243 -0.0085  0.0171
27345W        W43479   4.757   2.439   2.691  0.1151  0.1846 -0.3561
27346W        W43480  11.255  15.873  15.484  0.0822  0.2659 -0.0856
27347W        W43481   8.284  17.199   6.116  0.3418  0.4179 -0.0110
27348W        W43482  10.894   0.334   4.385  0.0069 -0.2508 -0.0504
27349W        W43483   7.931   8.084   3.252  0.1908 -0.0828 -0.1566
27350W        W43484  11.733   7.933  15.527  0.0146 -0.2103  0.0139
27351W        W43485   4.388   6.541   5.051 -0.0194  0.0369  0.1334
27352W        W43486  11.727   1.475   3.479  0.1816 -0.0063  0.2210
27353W        W43487   1.307  16.324   3.989 -0.0848  0.1541  0.0470
27354W        W43488   0.197  17.701  15.386 -0.1090  0.1860 -0.1686
27355W        W43489   6.036  15.828   0.722 -0.0936 -0.2321  0.1499
27356W        W43490   4.417   5.149  11.862  0.0521 -0.0544  0.0227
27357W        W43491  13.626  14.601  11.667  0.0185 -0.0397  0.3260
27358W        W43492   7.910   3.275  14.945  0.0089 -0.0541 -0.3001
27359W        W43493   8.524   5.128   3.643 -0.1104  0.0187 -0.2363
27360W        W43494   7.632   5.349  12.545  0.1772 -0.4274  0.1552
27361W        W43495   6.348   6.819  15.597 -0.0025  0.0522  0.1529
27362W        W43496   3.577   3.844  14.730  0.0019  0.0085 -0.0790
27363W        W43497  14.076  14.671   5.732 -0.3629 -0.3264 -0.1303
27364W        W43498   3.189  13.550  15.412 -0.1080 -0.1378  0.2303
27365W        W43499  10.832  16.532  14.945 -0.1989 -0.2804 -0.0661
27366W        W43500  13.277   5.630   0.999 -0.1898  0.0178  0.0082
27367W        W43501  11.592   7.782  16.008  0.1876 -0.1194 -0.0008
27368W        W43502   3.402  10.464  14.623 -0.3718  0.1370 -0.0686
27369W        W43503   2.642  13.549  15.396  0.1955  0.3963  0.1657
27370W        W43504  17.045  17.163  11.865 -0.0521  0.3613 -0.2987
27371W        W43505  12.828  10.771  16.089  0.0806 -0.0410 -0.0185
27372W        W43506   1.361  14.083   0.309 -0.2088  0.0398  0.1100
27373W        W43507  17.448  13.759   1.510 -0.0591  0.2046 -0.2487
27374W        W43508  12.669  11.157   3.940 -0.0135 -0.2052  0.0775
27375W        W43509   8.768  16.537   1.120 -0.2396  0.2366 -0.2518
27376W        W43510   3.826  11.633  13.565 -0.2274  0.0137 -0.1589
27377W        W43511   7.725  12.003  12.934  0.0972 -0.1180 -0.0757
27378W        W43512  13.541   7.118   3.571  0.0769 -0.1104  0.1209
27379W        W43513   2.210  16.511  16.146 -0.1306 -0.0201 -0.1155
27380W        W43514  16.670  10.507   1.069 -0.1377  0.0154  0.1287
27381W        W43515   6.371  11.753  15.933 -0.1945 -0.0164  0.0399
27382W        W43516   8.281   8.211  12.311  0.0982  0.2069  0.2505
27383W        W43517   9.191   7.080   2.775  0.0824 -0.0805  0.0143
27384W        W43518   0.140   3.263   2.071 -0.1775  0.0172 -0.3881
27385W        W43519   5.422   0.685   4.794 -0.0749  0.0957  0.0405
27386W        W43520   8.456  16.842  16.374 -0.2139  0.0526 -0.1713
27387W        W43521   1.936   1.144  14.732  0.4595  0.0012  0.2858
27388W        W43522   4.894   4.381  12.047 -0.1831 -0.0197 -0.1711
27389W        W43523  10.940  10.063   4.609  0.0922 -0.1138  0.2157
27390W        W43524  14.534  17.342   2.705 -0.0358  0.1055 -0.0685
27391W        W43525   9.476   5.904  14.885  0.0805 -0.0202  0.1975
27392W        W43526  14.495  17.980   4.246 -0.1355  0.1016 -0.0404
27393W        W43527   2.318   0.165   4.009  0.0538 -0.3659  0.2896
27394W        W43528  11.492  17.074  13.422  0.0223 -0.1880 -0.0078
27395W        W43529   5.588   1.475  16.145 -0.1343 -0.1363  0.0782
27396W        W43530  14.093   0.136   2.477 -0.0658 -0.0588  0.3249
27397W        W43531   4.925  10.794  12.306  0.1540  0.0309  0.2635
27398W        W43532  11.186   5.096   4.244  0.0773 -0.0088  0.0824
27399W        W43533   7.578   9.984   1.332  0.0814  0.1146  0.0818
27400W        W43534   3.187   8.444   4.720 -0.0616  0.1379  0.0144
27401W        W43535   7.542  13.244  16.525  0.3842 -0.1905 -0.3439
27402W        W43536  14.149  11.044   4.470 -0.1134  0.1220 -0.2416
27403W        W43537   0.089   1.284   5.025  0.1938  0.2981  0.0828
27404W        W43538   7.718  13.870  16.663  0.0550 -0.0961  0.1001
27405W        W43539  16.943  17.356  14.044  0.2052 -0.1166 -0.0478
27406W        W43540   6.970   5.180  12.220 -0.1530 -0.2976  0.1975
27407W        W43541   2.126   1.438   1.341 -0.3137  0.1587  0.0523
27408W        W43542   8.374  17.134   0.024  0.3895 -0.2787 -0.0152
27409W        W43543  14.354  10.082  16.717  0.0346  0.2662 -0.3966
27410W        W43544  12.039   9.169  13.141 -0.0344  0.0411  0.0997
27411W        W43545  11.707   8.311  13.545 -0.1111 -0.3107  0.0506
27412W        W43546   5.304   6.627   4.836  0.2692  0.1873 -0.1117
27413W        W43547  17.112  12.393  14.608  0.2286  0.1684 -0.0692
27414W        W43548   9.954   9.422   3.308 -0.2885  0.0481  0.0325
27415W        W43549   4.136  10.674   0.774  0.0663 -0.1401  0.1258
27416W        W43550   0.723   0.100   2.227 -0.3021  0.1616 -0.3191
27417W        W43551  14.720   3.179  14.844 -0.1616  0.3716 -0.3725
27418W        W43552  15.337  17.582  16.376  0.1086  0.1576 -0.3768
27419W        W43553  15.834  17.397   5.579 -0.0907  0.1023 -0.1984
27420W        W43554  12.880   1.134  12.224  0.1046 -0.0840  0.2166
27421W        W43555   0.356   5.432   1.610  0.0858 -0.0044 -0.2722
27422W        W43556  15.934   1.912  12.123 -0.0057  0.0053 -0.0615
27423W        W43557   7.582  15.779  16.047 -0.1866 -0.1302  0.0123
27424W        W43558  14.629  12.165  14.382 -0.3327  0.2104 -0.0562
27425W        W43559  10.390   4.039   4.533 -0.1954  0.0417 -0.1822
27426W        W43560  11.118  15.197  13.347 -0.1289  0.2042 -0.0068
27427W        W43561   6.382  11.803  12.512 -0.2128 -0.0393 -0.0060
27428W        W43562   7.617   8.267  16.385  0.0793 -0.4488 -0.3122
27429W        W43563   8.809   4.287  15.393 -0.0703  0.1030  0.2291
27430W        W43564   8.761   2.070   3.789 -0.2149  0.0790  0.1877
27431W        W43565   8.945  10.857   2.685 -0.2121 -0.1040 -0.1809
27432W        W43566  14.155   5.161  11.462  0.0176  0.1997  0.0655
27433W        W43567  14.751   5.802  11.455 -0.0575  0.0364 -0.0366
27434W        W43568   1.292  15.812   2.478  0.0591  0.1377  0.1258
27435W        W43569   4.211   2.359   3.340 -0.1562 -0.3316 -0.1975
27436W        W43570   6.624  13.619   2.154 -0.1133 -0.1798 -0.0234
27437W        W43571  14.664   3.694   2.400  0.2956 -0.2405 -0.1472
27438W        W43572  10.121   0.568   1.049  0.2615  0.0238 -0.0922
27439W        W43573   4.785   5.024  11.560 -0.0085  0.0575  0.2261
27440W        W43574  15.365   7.143   5.379  0.0053  0.1632  0.0667
27441W        W43575   6.524  13.422   0.814 -0.1111  0.0687 -0.1117
27442W        W43576   8.510   4.487  12.508  0.0791  0.0599  0.0748
27443W        W43577  10.725  10.005  14.114  0.0421 -0.0968 -0.2894
27444W        W43578   9.590  17.556   1.763  0.2090 -0.0573 -0.1394
27445W        W43579   6.993  15.180  14.283  0.3671 -0.1402  0.1285
27446W        W43580  12.696   0.857  12.632  0.0490 -0.1644  0.1770
27447W        W43581  14.161   7.918   1.332  0.2073  0.0188 -0.1512
27448W        W43582  12.684   0.980  14.368  0.1848  0.0244  0.2813
27449W        W43583   1.666  15.355  14.103 -0.2838  0.1365 -0.3639
27450W        W43584  17.042  15.332  15.834 -0.2160 -0.1604 -0.0407
27451W        W43585   5.969   2.157   4.089  0.0948 -0.0429  0.1938
27452W        W43586  15.623   1.202   1.863  0.0049 -0.1082 -0.1460
27453W        W43587   6.400  16.575  16.244 -0.1891 -0.2378  0.0507
27454W        W43588   9.869   6.401   0.414 -0.0604 -0.0366 -0.0893
27455W        W43589   0.257   4.589  11.225  0.2179 -0.0897 -0.1356
27456W        W43590   1.264   1.288   2.619  0.1173 -0.1186 -0.0299
27457W        W43591  11.564   2.167  12.553  0.1117  0.0296  0.0499
27458W        W43592  13.663  17.722  14.112  0.1075  0.0556 -0.2225
27459W        W43593   2.929  16.325   3.898 -0.1090  0.1011  0.1961
27460W        W43594   4.236   7.545   4.987  0.0880  0.0654  0.0235
27461W        W43595  16.651  16.787   5.810 -0.0222  0.1230 -0.0621
27462W        W43596  15.570   8.719  15.416 -0.1197 -0.1376  0.1344
27463W        W43597   0.563  14.252   0.791  0.0044  0.5633  0.2493
27464W        W43598  17.403  10.055   5.089 -0.1699 -0.2625 -0.4086
27465W        W43599   3.908   5.670  11.996 -0.3970  0.2611  0.1846
27466W        W43600  13.417   8.246  16.111  0.2569 -0.0799  0.0275
27467W        W43601   0.094  14.777  12.628  0.1870  0.0616 -0.0053
27468W        W43602  17.149   2.226   2.583  0.1244 -0.1855  0.0640
27469W        W43603   3.785  16.801   1.366 -0.1175 -0.2062  0.0219
27470W        W43604  12.891   0.545   1.851 -0.0564 -0.1543  0.0317
27471W        W43605  11.195   1.155  16.339  0.0701 -0.0733  0.1397
27472W        W43606   9.293  14.069   2.546 -0.1537  0.1319  0.2850
27473W        W43607  14.242  11.796  13.759  0.3110 -0.1751  0.2500
27474W        W43608   6.148   1.909   0.614  0.1738 -0.0319 -0.1424
27475W        W43609  14.917   5.839  15.886 -0.0048  0.0775  0.2749
27476W        W43610   2.054  16.788   3.130  0.0403  0.1523  0.0355
27477W        W43611   4.743  15.559  13.590 -0.1922 -0.1975 -0.0548
27478W        W43612   3.683  12.032   2.296 -0.0915 -0.0469  0.1572
27479W        W43613   4.496   3.595   0.570  0.2178  0.2004  0.0109
27480W        W43614   2.409  10.456   3.357 -0.1216 -0.1474  0.0334
27481W        W43615  13.017   1.148  14.687 -0.3703 -0.0744  0.2314
27482W        W43616  17.032   2.132   1.748  0.1112  0.4292  0.1688
27483W        W43617  12.877   1.601  13.736  0.1149 -0.0203  0.0978
27484W        W43618   4.451   2.337  12.877 -0.0544 -0.1009 -0.3541
27485W        W43619  10.472   8.275   2.539  0.1015 -0.1086  0.1598
27486W        W43620   0.981  12.341   4.578  0.3412  0.3032 -0.1608
27487W        W43621   6.099  17.264   0.744 -0.0255 -0.0887  0.0442
27488W        W43622   8.554  11.670  15.851  0.1405 -0.0233  0.1360
27489W        W43623   9.639  12.406  13.886  0.2052  0.1079  0.0437
27490W        W43624   3.471   5.462  12.836 -0.0054 -0.1538  0.0354
27491W        W43625  14.048  14.718   3.528 -0.1050  0.0485  0.1693
27492W        W43626  12.569   6.144  11.946  0.1906 -0.0518  0.1246
27493W        W43627   7.128  16.715  12.592  0.0363 -0.1342  0.0093
27494W        W43628  16.085   7.423  11.758 -0.1885  0.3393 -0.1368
27495W        W43629   4.808   4.800  16.347  0.0659  0.1031  0.3525
27496W        W43630   5.594  13.180   2.696  0.1733 -0.0389  0.0570
27497W        W43631   3.204  11.786  12.362  0.1947 -0.3245 -0.0473
27498W        W43632  16.989   8.884   4.100  0.0051 -0.3122  0.2223
27499W        W43633  10.313  11.708   4.679  0.2810  0.2576  0.3084
27500W        W43634   0.927   3.851  16.485  0.2331  0.1538 -0.2198
27501W        W43635   1.742   9.531   1.620  0.2832 -0.1708 -0.1593
27502W        W43636   5.545   6.591   5.494  0.4442  0.2167 -0.1814
27503W        W43637   2.316   2.260  14.873 -0.1578  0.0648  0.3190
27504W        W43638  17.557  13.729  12.905 -0.1416  0.0375 -0.0898
27505W        W43639   0.923   5.954  16.670  0.2971 -0.0900  0.1786
27506W        W43640  16.153  13.475   5.925  0.1481  0.1603 -0.1668
27507W        W43641  14.416  11.431  11.412 -0.2147 -0.2560 -0.0984
27508W        W43642   6.574  12.215   2.534  0.0527  0.0800  0.0801
27509W        W43643   1.431   5.131   0.962  0.0611 -0.1036 -0.0156
27510W        W43644  13.196  15.089  15.218  0.2428  0.0028 -0.1417
27511W        W43645   6.070  13.903   1.985 -0.1631 -0.0861 -0.0964
27512W        W43646   7.561   3.138   2.900  0.1118 -0.1928 -0.1483
27513W        W43647   3.341   3.119   3.578  0.1619 -0.1679  0.2560
27514W        W43648   9.283   5.531  13.499 -0.0275 -0.2293  0.2610
27515W        W43649  12.194  15.786  12.780  0.0086 -0.2216 -0.4666
27516W        W43650   8.672  14.274  14.050  0.1307 -0.1861  0.1518
27517W        W43651  10.570  17.774   2.177 -0.0364  0.1729  0.2600
27518W        W43652  17.448  16.832  12.635  0.2183 -0.1241 -0.0144
27519W        W43653   3.581  15.699  14.101  0.2479  0.2434  0.0174
27520W        W43654   1.791   0.106   2.071  0.2817 -0.0455 -0.2010
27521W        W43655  17.268  15.526   3.647  0.0781 -0.0677 -0.0090
27522W        W43656   7.225   5.072  15.716  0.3146 -0.0075 -0.2393
27523W        W43657  10.623   0.920   0.998 -0.0657 -0.2319  0.0685
27524W        W43658   3.090  10.594   0.569  0.0939  0.1770  0.2303
27525W        W43659   3.354   7.793  16.237 -0.0954  0.1223 -0.2212
27526W        W43660  15.043  12.896   4.019  0.0875  0.1854 -0.3634
27527W        W43661  14.655   1.025   0.127 -0.1115 -0.1916 -0.0346
27528W        W43662   0.745   0.649  11.952  0.2143  0.0771  0.1486
27529W        W43663  11.421  11.440   2.751 -0.0841  0.2479 -0.1543
27530W        W43664  16.808  12.853  13.690  0.2549 -0.0785 -0.0048
27531W        W43665   0.121  16.313  15.389 -0.0645  0.1651  0.0603
27532W        W43666  10.764   2.150   0.143 -0.4585  0.0781 -0.0481
27533W        W43667   4.150   8.429  15.163  0.3173  0.2310 -0.0785
27534W        W43668  10.811  17.410   0.658  0.0908  0.1098  0.2973
27535W        W43669   3.523   4.678  16.599  0.4191 -0.3032  0.4154
27536W        W43670  13.406   9.984   2.612 -0.0232  0.2262 -0.0229
27537W        W43671  13.935   7.689   3.820  0.1576 -0.1719  0.0406
27538W        W43672  10.122  15.766  11.331 -0.0751  0.4117  0.1617
27539W        W43673   4.860   7.918   4.448 -0.2073 -0.1246 -0.1219
27540W        W43674  13.267   5.508  12.633 -0.2131  0.3862 -0.1057
27541W        W43675   9.213  13.511   3.393  0.0314  0.0403  0.0303
27542W        W43676   8.799   6.625   1.119  0.1472 -0.0324 -0.0721
27543W        W43677   1.479   1.966  11.780  0.3391  0.1579  0.2102
27544W        W43678  11.175   8.842   2.015  0.0339 -0.0130  0.0044
27545W        W43679   2.445   5.537  13.813 -0.1733 -0.0531 -0.0247
27546W        W43680  13.075   6.766   3.493 -0.0187 -0.1112  0.2009
27547W        W43681   9.611   5.067   2.020 -0.0936  0.2783 -0.0890
27548W        W43682  17.949   0.122   4.501 -0.1308 -0.0303 -0.0854
27549W        W43683   4.802  17.706   1.043 -0.1453  0.1043  0.0245
27550W        W43684  15.855  17.187   2.278 -0.0822 -0.0820  0.3119
27551W        W43685  15.827  10.985   2.731 -0.0018  0.0190 -0.0186
27552W        W43686   8.181  11.383   2.360 -0.1567 -0.0721  0.1433
27553W        W43687   4.560   0.832  11.974  0.2576 -0.0644  0.0753
27554W        W43688   9.879   3.112   2.382 -0.2174 -0.1638  0.1557
27555W        W43689   9.256   1.697   3.086  0.0395 -0.0582 -0.1496
27556W        W43690  10.078   7.853   5.906  0.1037 -0.4256  0.0927
27557W        W43691   5.390   3.312   6.247 -0.3741 -0.1054 -0.1308
27558W        W43692  11.139   0.643   2.295 -0.0537  0.1516 -0.0349
27559W        W43693   3.982  17.203   2.995 -0.0835  0.0704 -0.1979
27560W        W43694   0.101  14.965   4.552 -0.2141 -0.1002 -0.0291
27561W        W43695   7.475   1.534  14.439 -0.0709 -0.2695  0.2407
27562W        W43696   8.552   5.808  13.399  0.2355 -0.3075 -0.0923
27563W        W43697   5.879   9.643  16.288  0.1726  0.0108  0.4893
27564W        W43698  13.853   6.602   0.265  0.0069 -0.2033  0.1965
27565W        W43699   2.842   5.422  14.136 -0.1365 -0.1583 -0.0654
27566W        W43700  14.613   7.610  14.305 -0.1713  0.3876  0.1557
27567W        W43701  14.329  17.562   1.693  0.1975 -0.2937 -0.1076
27568W        W43702  12.391  16.355   2.474  0.4535 -0.1132  0.0538
27569W        W43703  12.005  14.676   1.092  0.2577 -0.4442  0.0395
27570W        W43704   1.718  10.192   5.436 -0.0643  0.3303 -0.1460
27571W        W43705   1.200   1.309  13.346  0.1481 -0.1016  0.0492
27572W        W43706  10.959  16.670   5.506  0.2863  0.4321 -0.2011
27573W        W43707   9.177   8.624   5.042 -0.0867 -0.2443 -0.0681
27574W        W43708   7.418  11.043  12.951  0.3983 -0.0609 -0.0742
27575W        W43709   6.667   7.744   2.187  0.1328  0.1795 -0.3410
27576W        W43710   1.859   9.055   4.426  0.1529 -0.1177 -0.1353
27577W        W43711  15.304  14.799   2.622  0.1578 -0.0891  0.1375
27578W        W43712  14.775   8.894   3.396 -0.2085 -0.1619  0.2247
27579W        W43713   7.426   6.461  13.637 -0.0426 -0.2224  0.0875
27580W        W43714   5.271   3.374  16.351  0.1187 -0.0027 -0.0509
27581W        W43715  12.900  11.537  14.965 -0.3174 -0.0877  0.1962
27582W        W43716  16.667   7.210   2.195 -0.2383  0.1096 -0.0042
27583W        W43717   4.806   6.169   0.676 -0.0137 -0.0036 -0.2437
27584W        W43718   5.564  11.650  13.731  0.2951 -0.1344  0.1359
27585W        W43719   1.271   2.668  13.132  0.1728  0.0862  0.3066
27586W        W43720   4.863  15.863   3.269  0.0689 -0.0627 -0.1301
27587W        W43721  17.184   8.013   3.022  0.0965 -0.2461 -0.1245
27588W        W43722   1.515  15.781  13.815 -0.2048 -0.1284  0.0088
27589W        W43723   9.537  13.959  13.826  0.0642 -0.4273 -0.1247
27590W        W43724  10.453  16.310  14.695  0.0980 -0.3087  0.0290
27591W        W43725   9.766   4.980  13.283 -0.2914  0.1169 -0.0250
27592W        W43726   8.296   0.121   0.120 -0.2673 -0.0502 -0.1104
27593W        W43727  14.763  15.944  16.566 -0.2127 -0.0864 -0.2834
27594W        W43728  16.429   8.972  12.462 -0.1785 -0.1036  0.0559
27595W        W43729   0.889   4.308   4.171 -0.2063  0.2663  0.0654
27596W        W43730   8.881   5.504   3.487  0.1186  0.0353 -0.1201
27597W        W43731   7.084   8.353  14.318 -0.0269  0.1989 -0.2522
27598W        W43732  17.357  10.376  13.868  0.3126  0.3874  0.1836
27599W        W43733   5.793   2.444   1.709 -0.0786 -0.0451  0.0248
27600W        W43734   4.199   3.407  14.500  0.0148 -0.2004 -0.0043
27601W        W43735   7.158   3.133   0.896  0.1271 -0.2259  0.1491
27602W        W43736   0.387  14.753  11.754 -0.1588 -0.3772 -0.0745
27603W        W43737   0.845  12.786  12.056  0.0232  0.1027 -0.3091
27604W        W43738   0.081   7.375   4.855 -0.0125  0.1109  0.1061
27605W        W43739   6.734   6.546  16.559 -0.1121 -0.3994  0.0667
27606W        W43740   1.795   4.700  14.065 -0.2356  0.0371  0.2807
27607W        W43741  10.621   3.581   2.806  0.2951 -0.0566 -0.0778
27608W        W43742   3.855   4.913   5.160  0.1383  0.2212 -0.1780
27609W        W43743   9.454  13.614  16.415 -0.0006  0.0175  0.1237
27610W        W43744  13.457  12.944   6.354  0.0466 -0.0477  0.0011
27611W        W43745   4.609   0.131  15.391 -0.1910  0.2895 -0.0743
27612W        W43746  11.350   5.353   3.331 -0.0209  0.1173 -0.1447
27613W        W43747  11.929   4.569   1.109  0.4888  0.0727 -0.0193
27614W        W43748  11.964  15.543  15.125 -0.2908  0.3815 -0.1209
27615W        W43749   5.142  12.989  12.644  0.0009  0.0937  0.0494
27616W        W43750   3.796   8.669   4.093  0.0620  0.2873 -0.0868
27617W        W43751   5.690  16.461   0.025 -0.0414 -0.2967 -0.1953
27618W        W43752  17.872   6.970  11.563  0.0235  0.2661 -0.2281
27619W        W43753   3.108   4.758   3.655  0.0183  0.1103  0.1294
27620W        W43754  10.027  14.325   5.757 -0.3384  0.1825  0.0214
27621W        W43755  16.969  10.016   0.527  0.0486 -0.3329  0.3793
27622W        W43756  13.732   1.145   4.064  0.0895 -0.2590  0.1185
27623W        W43757   3.726  13.248   2.702  0.1798  0.2028 -0.0182
27624W        W43758   4.992   4.432   4.554 -0.0696  0.2105  0.0687
27625W        W43759   5.574   2.028  13.998 -0.2870 -0.1512 -0.0286
27626W        W43760   9.984  16.839  15.883 -0.0581 -0.1489 -0.0249
27627W        W43761  12.906   2.618  12.547 -0.0141  0.1178  0.1052
27628W        W43762   0.921  10.117   2.004 -0.1947  0.0940 -0.2400
27629W        W43763  11.320  14.320   2.957  0.0197  0.2131  0.2350
27630W        W43764   9.987  14.223  13.024 -0.0832 -0.1929 -0.0656
27631W        W43765  15.299   1.743  14.352 -0.2151  0.3322  0.0808
27632W        W43766   8.362  15.827   2.186 -0.1795  0.0757  0.1925
27633W        W43767  16.733   4.499  15.977  0.2384  0.3029 -0.0376
27634W        W43768  11.506  11.271   1.918 -0.0524 -0.2536  0.0763
27635W        W43769   3.780  13.226   2.161  0.3363 -0.3179  0.1756
27636W        W43770  11.525   0.162   3.074  0.2988 -0.0925  0.2072
27637W        W43771   7.271  10.209   0.983  0.0353  0.0351  0.1573
27638W        W43772   0.209   8.337   4.017  0.0976 -0.0688  0.0202
27639W        W43773  14.566  14.851  14.114 -0.0576 -0.0596 -0.2581
27640W        W43774  11.329  16.376  15.591  0.0733  0.0336  0.1397
27641W        W43775   6.676   9.093  16.662 -0.1480 -0.2450  0.0913
27642W        W43776  11.872  11.273  11.409 -0.1317 -0.1436 -0.1233
27643W        W43777   4.744   9.662   4.565 -0.0086  0.0914 -0.0776
27644W        W43778  11.831   0.478  10.912  0.1037 -0.0629  0.3548
27645W        W43779   9.813  11.637   4.923 -0.1952 -0.1990 -0.0226
27646W        W43780  10.734  11.340  12.035  0.1017 -0.0818 -0.2356
27647W        W43781   7.934  17.871   1.923 -0.1415 -0.0437 -0.2054
27648W        W43782   1.498   2.326   1.814 -0.1200  0.1394 -0.6127
27649W        W43783   2.581   2.876   1.210  0.2056 -0.0237  0.0964
27650W        W43784   5.116  10.820  14.176  0.1355  0.1908 -0.3208
27651W        W43785   0.428  12.158   5.765 -0.3172  0.0411 -0.1835
27652W        W43786  15.341  13.443  12.100  0.1070  0.3226  0.0356
27653W        W43787   1.929  11.202  11.567 -0.0697 -0.0923  0.1127
27654W        W43788   2.118  11.575  11.239 -0.1595 -0.0446  0.0165
27655W        W43789  10.978   4.397   1.056  0.0363 -0.1518  0.2459
27656W        W43790  15.245   9.745   0.294  0.1403  0.1284  0.0557
27657W        W43791   5.796  16.234   0.464  0.0507 -0.2291 -0.0609
27658W        W43792   4.072   3.390  15.946 -0.1041 -0.2797 -0.0306
27659W        W43793   6.285   9.517   5.406 -0.0741  0.1015 -0.1095
27660W        W43794   4.629   2.094   5.925  0.1307  0.2634 -0.1855
27661W        W43795  12.485   7.757  15.167 -0.1435 -0.0118 -0.2823
27662W        W43796  11.473   0.460   1.965  0.0028 -0.6569 -0.2344
27663W        W43797   7.699   6.664   2.623 -0.2931 -0.0592 -0.0897
27664W        W43798   1.033   0.934   3.250 -0.1398  0.1165  0.1106
27665W        W43799  16.144   5.581  12.016  0.2125 -0.0563 -0.1141
27666W        W43800  10.711   4.480  13.325 -0.0892 -0.0452  0.2610
27667W        W43801  11.287   9.679   0.652 -0.0327  0.0543 -0.2569
27668W        W43802  15.422   7.544  16.247 -0.0427  0.0900 -0.3053
27669W        W43803   6.225  13.544   5.936  0.0596  0.0836  0.1201
27670W        W43804   3.483   5.270   1.554  0.1125 -0.3897 -0.1813
27671W        W43805  13.859   4.411  10.799 -0.1132 -0.0602 -0.0170
27672W        W43806   9.359   5.647  16.346 -0.3394  0.1603 -0.1704
27673W        W43807   3.426  16.012  15.777  0.1911 -0.0186  0.2009
27674W        W43808  17.213  14.931   2.549 -0.1747 -0.1976  0.2552
27675W        W43809   8.859  12.207  15.334 -0.2146  0.2448  0.1703
27676W        W43810   2.265   9.450   4.106  0.1163  0.0472 -0.3027
27677W        W43811   0.381   6.353   2.534 -0.1065  0.0551  0.1718
27678W        W43812  14.698  16.879   2.983 -0.1248  0.2335  0.0086
27679W        W43813   4.981  14.618  13.642  0.0111  0.4387 -0.0752
27680W        W43814  14.286  12.095   4.174  0.1880 -0.1770  0.0097
27681W        W43815  13.714   8.364   3.586  0.0923  0.1085 -0.0101
27682W        W43816  12.401  14.155  15.162  0.0837 -0.5478  0.0143
27683W        W43817  10.338  13.985   1.792 -0.4018  0.0570 -0.0741
27684W        W43818   0.085   8.668  11.657  0.1097  0.1545  0.0904
27685W        W43819  10.744   5.091  12.903 -0.1742 -0.0999  0.3031
27686W        W43820  15.342  12.775  12.943  0.2726  0.1694 -0.0194
27687W        W43821   5.204   2.600  15.679 -0.0246 -0.1827 -0.0933
27688W        W43822   8.421   1.564  12.040  0.0257 -0.0711 -0.1379
27689W        W43823   4.207   3.457  13.543  0.2655 -0.0051 -0.2288
27690W        W43824  16.115   8.652   4.418  0.0971  0.0701 -0.1142
27691W        W43825  17.543  11.143  15.139  0.0405  0.0156  0.0785
27692W        W43826   5.089   7.599  15.801 -0.2699 -0.0023  0.3067
27693W        W43827  16.638   4.252  10.839 -0.2183  0.0613  0.0930
27694W        W43828  17.323   9.098   6.468 -0.0051  0.0272 -0.0426
27695W        W43829   2.610   1.996   3.708  0.1391  0.0170 -0.2365
27696W        W43830  13.626   8.811  15.026 -0.1919  0.1421 -0.2530
27697W        W43831  15.800   7.599  14.902 -0.1066  0.1996  0.0123
27698W        W43832  15.907   2.492  13.034 -0.1433  0.0142  0.0830
27699W        W43833   9.154   9.126   1.737 -0.1457  0.2204  0.0374
27700W        W43834  12.216  12.462   2.792  0.0678 -0.1443  0.0255
27701W        W43835   6.888  13.940   0.066 -0.1924 -0.1258  0.1355
27702W        W43836  11.355  16.989   6.158 -0.1872 -0.0943 -0.0040
27703W        W43837   1.247   3.034   4.591 -0.0024  0.0708  0.0770
27704W        W43838   0.405  10.294  15.840  0.0121  0.0809 -0.0486
27705W        W43839  12.420   4.510   2.883  0.0819 -0.2219 -0.1087
27706W        W43840  11.291   6.160   5.190  0.1691  0.0519  0.0994
27707W        W43841   9.946   7.610  11.647 -0.0759  0.1943  0.2102
27708W        W43842  10.715   1.726   2.965  0.1113  0.0535  0.1184
27709W        W43843   8.637  17.780   3.071  0.0699  0.3279  0.2883
27710W        W43844   8.958   9.338   2.147 -0.0965 -0.1597  0.1415
27711W        W43845   1.305   4.604   4.126  0.0982  0.0858  0.1936
27712W        W43846   5.645   8.978   0.096  0.0618  0.0710  0.3046
27713W        W43847  14.888  15.713   6.331  0.0803 -0.0698  0.0272
27714W        W43848  10.709  17.530  15.963  0.3684 -0.1982 -0.0994
27715W        W43849   1.992   5.993  15.665  0.0817 -0.1228  0.3440
27716W        W43850   6.532  16.747  15.797  0.1602  0.2810  0.1426
27717W        W43851   1.168   1.552  14.282  0.3411 -0.0671  0.1379
27718W        W43852  16.690  13.256  16.432  0.2563  0.2028  0.2980
27719W        W43853  14.304  15.115   5.854 -0.1594 -0.1049 -0.0332
27720W        W43854   9.697  12.132  15.077 -0.2641 -0.0170  0.2043
27721W        W43855  17.579   0.585   3.084 -0.2258 -0.1412 -0.2904
27722W        W43856   3.291   0.158  12.623  0.0688 -0.0464 -0.0526
27723W        W43857   1.329  14.929  13.898  0.0970 -0.2225  0.0426
27724W        W43858  12.725   5.775   4.550  0.0987 -0.0714  0.0390
27725W        W43859   1.960   8.058   5.348  0.1081 -0.4114  0.2248
27726W        W43860  10.467   1.036  14.799  0.0230  0.0978  0.3543
27727W        W43861  13.613  12.740  15.693 -0.0711  0.0220 -0.2076
27728W        W43862   9.341   7.239   1.346 -0.0721  0.1779 -0.1289
27729W        W43863   8.158   2.717   1.772 -0.4499  0.1269 -0.1695
27730W        W43864   6.925   7.293  13.005  0.4883  0.0907 -0.1573
27731W        W43865   3.725   5.221  11.781 -0.0870 -0.1865  0.0325
27732W        W43866   5.061   2.062   5.038 -0.1482  0.3596  0.0419
27733W        W43867   8.890   3.368   5.275  0.1652  0.3409 -0.2401
27734W        W43868   6.575  16.984   1.173 -0.0604  0.0784  0.0958
27735W        W43869  10.288   6.177  13.641 -0.0605  0.0890 -0.2458
27736W        W43870   0.135   5.859   4.984 -0.0307  0.0112 -0.0081
27737W        W43871   4.804  16.264  11.142 -0.1226 -0.2032  0.2465
27738W        W43872   5.954  12.693  12.453  0.1004 -0.3182  0.1562
27739W        W43873   2.618  13.684   0.057 -0.1102 -0.0145  0.0281
27740W        W43874  12.231  13.332   1.692  0.0089 -0.0185 -0.0654
27741W        W43875  15.239  13.680   0.522 -0.0748 -0.1881 -0.0082
27742W        W43876   3.477  15.897   5.982 -0.4169 -0.1101 -0.1853
27743W        W43877   2.729  17.619   3.269  0.2066 -0.1015  0.2807
27744W        W43878  14.728   2.131  11.552  0.1641  0.0186 -0.1256
27745W        W43879  11.696   5.150   4.501  0.0498 -0.1314  0.3501
27746W        W43880  17.295  12.297   1.409 -0.3163 -0.0036 -0.2033
27747W        W43881   9.735   5.814  16.092  0.0082  0.3842  0.0829
27748W        W43882  16.195   7.771   5.607  0.2457  0.1217  0.1548
27749W        W43883  17.474  11.032   4.119  0.1739 -0.2627  0.1040
27750W        W43884   5.816   9.841   4.573 -0.0103  0.0631  0.0948
27751W        W43885  12.947   2.484  15.086 -0.2584  0.0522  0.1016
27752W        W43886   9.407   5.832   3.288 -0.2377 -0.0573 -0.0409
27753W        W43887   2.484   5.689   2.064  0.0476 -0.0501 -0.0103
27754W        W43888   5.940  15.005  15.278 -0.1517  0.1480  0.2427
27755W        W43889   8.476   7.307  16.041  0.1826  0.3599  0.1703
27756W        W43890  11.290  15.857  11.661 -0.1926 -0.1876 -0.0484
27757W        W43891   2.253  16.504   0.967 -0.2517 -0.1099  0.1288
27758W        W43892   7.404   2.642   2.928 -0.0626  0.2099  0.0672
27759W        W43893  17.247   3.489  13.880  0.0922 -0.1398 -0.0588
27760W        W43894  17.857   2.771  15.847  0.3081 -0.0856  0.0179
27761W        W43895   9.659   5.266   5.586 -0.1485 -0.0237 -0.2530
27762W        W43896   1.507  13.529  15.103  0.1627 -0.1720 -0.1094
27763W        W43897  17.647   6.600  11.893  0.1034  0.1903  0.1979
27764W        W43898   9.446  15.321   4.769  0.3576  0.0037  0.1469
27765W        W43899   5.999   5.924  12.422  0.1885  0.6720  0.1119
27766W        W43900   3.513  13.896  14.809 -0.1471 -0.1069  0.2176
27767W        W43901   1.615  13.454   1.200 -0.0377 -0.2548 -0.2889
27768W        W43902  10.166  13.042  15.764 -0.1367 -0.2243 -0.0314
27769W        W43903   2.460   8.674   2.315  0.1384 -0.2869  0.2883
27770W        W43904   6.515   3.505  12.622  0.2335 -0.0905  0.1174
27771W        W43905   4.182  17.168   0.404  0.2164 -0.0654  0.0111
27772W        W43906  10.436  15.993  15.118  0.1031 -0.3681  0.3231
27773W        W43907  16.404   4.928  10.574  0.1634  0.1615  0.0210
27774W        W43908  13.645   2.676   1.449 -0.1474 -0.2015  0.1303
27775W        W43909   9.070   6.616  13.473  0.1664 -0.0003  0.3829
27776W        W43910  15.619  14.466   2.369  0.0161  0.2240 -0.0828
27777W        W43911  15.861   7.000  14.178 -0.1115 -0.0166 -0.1326
27778W        W43912   3.671   7.316  12.122  0.0547 -0.0859 -0.2467
27779W        W43913   8.454   0.834  13.735 -0.1171 -0.3367  0.0476
27780W        W43914  17.279   7.654   0.473 -0.1388 -0.0565  0.0361
27781W        W43915   1.616   7.125  15.216 -0.3235  0.1642 -0.1995
27782W        W43916  17.042  15.650   2.483 -0.0368  0.0132 -0.2253
27783W        W43917  10.803   0.681   0.121 -0.2232 -0.4987 -0.0776
27784W        W43918  16.463  17.871  14.595 -0.1159  0.0845  0.2338
27785W        W43919   6.585   3.771   4.872 -0.1448 -0.2346  0.1022
27786W        W43920  13.642   8.975  11.809 -0.1732 -0.0292  0.0879
27787W        W43921   0.199  17.372   2.474  0.0025  0.2437 -0.0441
27788W        W43922  11.254   5.274   0.572 -0.0776  0.1632  0.0412
27789W        W43923   2.825   2.073  13.806 -0.2467 -0.1022 -0.2247
27790W        W43924  10.646   3.577   5.555 -0.1014  0.0951  0.0327
27791W        W43925  12.320   0.192  16.082  0.0719  0.1247  0.1042
27792W        W43926   2.688  15.305   4.618 -0.1131  0.2023 -0.0238
27793W        W43927   4.667   4.351   4.160 -0.0640 -0.1576  0.0486
27794W        W43928  11.738   1.496  11.970  0.0457 -0.0601  0.3090
27795W        W43929   5.953  13.976  12.359  0.1282  0.0480  0.0767
27796W        W43930   2.106   5.276   2.154 -0.0879  0.2981  0.1941
27797W        W43931   3.756   9.996  15.549  0.1805  0.0328 -0.1959
27798W        W43932   4.911   6.023   2.359 -0.1857  0.1433  0.0840
27799W        W43933   2.748  14.058  15.288  0.3338 -0.1252 -0.0060
27800W        W43934   1.961  11.568  14.963  0.0233 -0.1081  0.1880
27801W        W43935   0.635   2.860   0.371 -0.2838 -0.2387 -0.1039
27802W        W43936  14.048   3.841   1.496  0.2755  0.0450 -0.0463
27803W        W43937   8.963   9.578  13.487  0.1332  0.1077  0.0669
27804W        W43938  16.108   9.735   2.530  0.1313 -0.0000  0.0382
27805W        W43939   1.645   1.852   0.519  0.1663  0.0779  0.2033
27806W        W43940  17.742  12.512   3.148  0.1642  0.1884  0.1144
27807W        W43941  14.761   4.066  11.426 -0.1335  0.0127  0.0445
27808W        W43942  11.773   0.990   3.365  0.1400 -0.1098  0.0482
27809W        W43943  14.747   6.699  13.162 -0.2929  0.1063 -0.0712
27810W        W43944  17.440   9.042   0.569  0.1693  0.1895  0.1994
27811W        W43945  10.322   1.829   1.117  0.0577 -0.0182  0.1433
27812W        W43946  10.096   8.560  16.273 -0.0912 -0.0643  0.1043
27813W        W43947  16.609   6.574  13.963  0.0289  0.2294  0.4074
27814W        W43948   8.910  10.319  15.225 -0.2462  0.1445 -0.0753
27815W        W43949   0.769   3.601  14.625 -0.2457 -0.2827 -0.2610
27816W        W43950  15.656   5.309  16.627  0.1437 -0.0397  0.1800
27817W        W43951   7.767   7.917   1.726 -0.2149  0.1647 -0.0298
27818W        W43952   1.460  17.359   3.606  0.3769 -0.0079  0.1070
27819W        W43953   8.535  17.049   4.668 -0.1924 -0.0713 -0.0388
27820W        W43954  12.741  13.720   3.866 -0.0532 -0.2859  0.2144
27821W        W43955  14.278   5.023  12.093  0.1301  0.1662  0.0257
27822W        W43956   9.330   4.567  13.430 -0.0858  0.1666 -0.0098
27823W        W43957  15.552  16.239  15.013  0.0422  0.1136 -0.0472
27824W        W43958  14.124   2.811  12.712 -0.1753  0.0657 -0.3310
27825W        W43959   6.822  15.948   3.961  0.2373  0.0161  0.1818
27826W        W43960   1.319  12.333  11.570 -0.1542 -0.1560  0.1409
27827W        W43961  10.175   9.670  16.303 -0.2071  0.2290 -0.0369
27828W        W43962   1.810   8.583   1.763 -0.1223  0.2191  0.1657
27829W        W43963   0.863   7.877  12.866  0.1600 -0.0746 -0.0317
27830W        W43964  12.573  15.595   2.556  0.1411  0.0670  0.0456
27831W        W43965   4.125  13.045   2.957  0.0526 -0.1370 -0.0991
27832W        W43966   1.431  14.514   5.778 -0.4426  0.3550 -0.1812
27833W        W43967  16.706   3.600  14.177  0.1658  0.3610 -0.1028
27834W        W43968   6.362   4.156  15.388  0.0814  0.2030 -0.4858
27835W        W43969  16.583   0.222   5.148 -0.1618 -0.3926 -0.1358
27836W        W43970  13.006   7.381  16.128 -0.0664 -0.0338 -0.2056
27837W        W43971   7.304  15.522  11.690 -0.1740 -0.2437 -0.2148
27838W        W43972  16.916  12.521  14.150 -0.2982 -0.1368  0.3565
27839W        W43973  15.310  10.684  11.856 -0.2277  0.2297 -0.1222
27840W        W43974  11.893   1.840   6.920  0.3202  0.0791  0.2633
27841W        W43975  13.250   0.206   2.030 -0.0806  0.1072 -0.0896
27842W        W43976  14.696  16.813  13.179  0.2788 -0.2807 -0.2575
27843W        W43977   6.163  10.325  11.987  0.1174 -0.2956  0.4075
27844W        W43978   9.106  11.461   5.536 -0.2101 -0.3707 -0.2741
27845W        W43979   6.564  15.744  13.592 -0.1426  0.0315  0.0421
27846W        W43980  15.796   5.591  15.581 -0.4017 -0.2544 -0.0179
27847W        W43981   6.799   9.473   0.515 -0.0925  0.0726 -0.0699
27848W        W43982   0.806   0.310   4.906 -0.3081  0.1557 -0.1518
27849W        W43983  17.173   0.514   0.085 -0.0910  0.0420 -0.0299
27850W        W43984   8.362   6.601  15.543 -0.1775  0.2380  0.3015
27851W        W43985  11.436   2.165  11.369  0.0435 -0.0966  0.0082
27852W        W43986   5.528  15.869   3.075 -0.1410  0.1603  0.2830
27853W        W43987  13.733  12.416  12.038 -0.0641  0.2454  0.1465
27854W        W43988  13.765   5.579   0.279  0.1666 -0.1426  0.1086
27855W        W43989   1.595  14.628   0.482 -0.1092 -0.0660 -0.0379
27856W        W43990   0.028   5.501  13.422  0.0012  0.1945 -0.3101
27857W        W43991   1.737  14.262   2.170  0.1751 -0.3307 -0.1468
27858W        W43992  17.109   9.303   4.586  0.3043  0.0735  0.0706
27859W        W43993  14.126   4.095  14.875  0.1323 -0.0836 -0.0804
27860W        W43994  12.842  16.420  12.437 -0.0089 -0.0292  0.1247
27861W        W43995  10.682   9.460   2.671  0.3103 -0.3442 -0.0043
27862W        W43996  11.350   5.236   1.074 -0.1592  0.0856  0.0236
27863W        W43997  16.009  17.356   0.360  0.0468 -0.2129  0.0371
27864W        W43998  15.502   1.454   1.131  0.0281 -0.3777  0.0894
27865W        W43999  15.210   4.075   4.486 -0.3652  0.0561 -0.1131
27866W        W44000  12.833   9.111   2.172  0.0463 -0.0986 -0.0030
27867W        W44001  11.246  15.442  15.722  0.1890 -0.7159 -0.3458
27868W        W44002   7.075   5.989  15.811 -0.1188 -0.3489  0.0077
27869W        W44003   4.309  12.863  13.008  0.1232 -0.3726  0.0899
27870W        W44004  17.183  16.686  15.908 -0.3507 -0.1013  0.2157
27871W        W44005   9.064  12.766  14.646 -0.4022  0.0041 -0.2352
27872W        W44006   7.451   5.669  15.162  0.1235  0.0406  0.0084
27873W        W44007  17.580  12.573  15.390 -0.0422  0.0868 -0.3114
27874W        W44008  13.688   5.566  12.962 -0.0945  0.2816  0.0282
27875W        W44009   4.124  10.903  14.447  0.1239  0.2212  0.0363
27876W        W44010   3.548  16.631  12.557  0.0065  0.1410 -0.2148
27877W        W44011   0.313   5.427  16.135  0.0285 -0.0762 -0.0527
27878W        W44012   7.071  14.605  15.471  0.0701  0.1180  0.2593
27879W        W44013  11.271   7.909   4.160  0.2756  0.1729  0.0793
27880W        W44014   8.634  14.061  16.477 -0.1087  0.2128 -0.0372
27881W        W44015  15.603   4.958   0.757  0.0569 -0.3739  0.3160
27882W        W44016   7.282  14.557   2.423  0.0601 -0.0136  0.0345
27883W        W44017   6.166  10.190   0.557 -0.2201 -0.0647  0.1305
27884W        W44018   9.443   8.030   5.410  0.4127  0.1905  0.0887
27885W        W44019   9.918   2.842  13.989  0.1063 -0.2790  0.1121
27886W        W44020  14.261   4.481   3.226 -0.0056 -0.2498 -0.2127
27887W        W44021   6.733   3.376  14.073 -0.0639  0.0546  0.0510
27888W        W44022  11.156  11.370  14.193  0.1487  0.0914  0.2552
27889W        W44023   7.833   3.577   1.507 -0.2798  0.2890  0.0123
27890W        W44024   4.962   5.916   1.188  0.1426  0.0295  0.0546
27891W        W44025  10.431  11.461   3.619 -0.0968 -0.1528 -0.0993
27892W        W44026  15.530  10.552   2.742  0.0172  0.3264 -0.0466
27893W        W44027   6.551  17.319   0.243  0.1191  0.1336 -0.0122
27894W        W44028   4.478   2.350  15.354  0.2625  0.1925  0.1140
27895W        W44029   4.922  10.736   3.371  0.2750  0.0203  0.3109
27896W        W44030  17.263   1.944  16.104  0.2992 -0.0734  0.2067
27897W        W44031  13.263  11.305   5.639 -0.2018  0.0483  0.1423
27898W        W44032   5.409  10.264  14.796  0.0109  0.0486 -0.0756
27899W        W44033  13.795  16.064   0.882  0.4317 -0.0484 -0.2662
27900W        W44034   1.552   6.811   3.684  0.1699  0.1555 -0.1117
27901W        W44035   4.396   8.386  12.017 -0.1453 -0.1380  0.0742
27902W        W44036  12.783  12.582   1.638 -0.0298 -0.0317  0.0685
27903W        W44037  15.826   9.981   3.350  0.0937  0.1600  0.0846
27904W        W44038   1.385   9.570   4.551 -0.0845 -0.1019  0.2688
27905W        W44039   2.244   5.077   6.193  0.0325 -0.1910 -0.1867
27906W        W44040   2.487  12.294  13.831 -0.1430 -0.2857 -0.0855
27907W        W44041   4.958   8.013   5.301 -0.1858  0.1041  0.1127
27908W        W44042   4.158  11.866  12.391 -0.0159  0.0131  0.0831
27909W        W44043   6.911   1.432   1.460  0.0667 -0.0268  0.0125
27910W        W44044   1.820   8.087  16.512 -0.3718 -0.1223 -0.2095
27911W        W44045   0.107  10.062  12.352 -0.1907  0.3317  0.1713
27912W        W44046  16.064   6.457  15.962 -0.2108  0.0395  0.0274
27913W        W44047  16.080  10.680  14.283  0.1099 -0.0927  0.0848
27914W        W44048   0.958   6.567   5.592  0.5031 -0.1201  0.2483
27915W        W44049   7.486  17.608   3.264  0.1861 -0.0143 -0.0547
27916W        W44050  13.042  17.471  14.792 -0.0358 -0.0714  0.0306
27917W        W44051  12.049  10.465  11.942 -0.0609 -0.0943 -0.2316
27918W        W44052   5.986  13.217  12.531 -0.0163 -0.0787  0.0856
27919W        W44053   2.575   8.339  15.112  0.0593 -0.1470  0.1485
27920W        W44054   4.996  11.976   4.567 -0.0544  0.1749 -0.2441
27921W        W44055   2.816  13.293  14.988 -0.0878  0.2286  0.0859
27922W        W44056  14.391   0.369   6.018 -0.0533 -0.0678  0.0696
27923W        W44057  15.085  16.846   4.527  0.1091 -0.2641  0.0659
27924W        W44058   4.488   7.674   3.119 -0.2002 -0.0008  0.2251
27925W        W44059   7.835  10.314   5.066 -0.1152  0.0118  0.0456
27926W        W44060  14.079   5.882  14.344  0.5462 -0.0547  0.1817
27927W        W44061   6.164   3.201   1.097 -0.1999  0.1612  0.1297
27928W        W44062   3.673  16.487  16.527 -0.0413  0.3458  0.1038
27929W        W44063   4.784   5.485   5.209 -0.0870 -0.1892 -0.0859
27930W        W44064   2.163   1.527   3.477 -0.0396 -0.4808 -0.1610
27931W        W44065  17.375   5.083  12.027 -0.1252  0.1165  0.0908
27932W        W44066   5.574  14.784   5.597  0.1719 -0.1172 -0.0588
27933W        W44067   5.014   7.650  16.444 -0.2806 -0.2970 -0.0488
27934W        W44068   5.120  11.433   2.335 -0.1150 -0.0122  0.1091
27935W        W44069   4.187  14.749   1.893 -0.1400  0.0763  0.0732
27936W        W44070   0.146   1.771  12.065  0.0389 -0.3834  0.1242
27937W        W44071   3.062  12.187   2.596 -0.1726 -0.0501  0.2071
27938W        W44072  15.168  12.954   0.840  0.0399  0.1602  0.0357
27939W        W44073   6.643  16.994  12.267 -0.1747 -0.0858 -0.1647
27940W        W44074   8.970  14.022  11.758  0.1582  0.1257  0.3134
27941W        W44075   9.846   5.358  16.260  0.0476 -0.1496 -0.1558
27942W        W44076  16.611   8.399   2.694 -0.1071  0.2691 -0.0784
27943W        W44077  16.852   8.195   3.345 -0.0452 -0.0877 -0.2843
27944W        W44078  14.841   5.991  12.469  0.2521  0.0740 -0.0051
27945W        W44079  12.020  14.902  13.479 -0.2062 -0.1632 -0.0711
27946W        W44080   3.887   2.956   0.024 -0.0308  0.1219 -0.2899
27947W        W44081  13.398   4.570   2.790 -0.0301 -0.2644  0.0496
27948W        W44082  12.567   6.145   5.221  0.0582  0.1957  0.0260
27949W        W44083   2.571   4.839  12.026  0.2076 -0.2574  0.1250
27950W        W44084   9.278   0.384   3.108  0.0773  0.1608 -0.4236
27951W        W44085   9.484   5.909   1.711 -0.0606 -0.2138 -0.1440
27952W        W44086   4.887   1.086   3.171  0.1605  0.0949  0.1944
27953W        W44087   9.587   3.892   5.612  0.2442 -0.0520  0.0100
27954W        W44088   1.026   2.876  11.302 -0.1955  0.0892 -0.3565
27955W        W44089   8.161  17.241   5.623  0.4421 -0.4263  0.2238
27956W        W44090   1.756   9.096   3.002  0.0035  0.0706  0.3103
27957W        W44091  12.588  10.646  15.221  0.0107 -0.3173  0.2439
27958W        W44092   1.902  12.718  15.648 -0.0246 -0.1771  0.1066
27959W        W44093   9.700  12.261   3.690  0.1412 -0.0521  0.2735
27960W        W44094   6.577   5.575  13.091 -0.2848 -0.2168 -0.0109
27961W        W44095  15.704   8.009  12.298 -0.0970  0.2645  0.0379
27962W        W44096   2.551   9.298  12.001  0.1425  0.1037  0.2368
27963W        W44097   2.129  16.459  13.515  0.0165  0.2514  0.0562
27964W        W44098   9.900  15.477   2.166 -0.1261 -0.0322 -0.1348
27965W        W44099  14.536   3.980  13.206  0.0436  0.0184 -0.1340
27966W        W44100  16.694  12.362  13.298  0.1544  0.1888 -0.0329
27967W        W44101   7.988   5.807   1.452  0.2402  0.1356 -0.0474
27968W        W44102   1.040   1.352  14.717 -0.1913 -0.0248  0.0857
27969W        W44103   7.373   1.840  16.016  0.1088 -0.1895  0.1834
27970W        W44104   4.756  12.069  12.437 -0.4129  0.3176 -0.1781
27971W        W44105  17.062   2.216   6.201  0.0456  0.0148 -0.0249
27972W        W44106   7.696  17.499   5.577  0.0304  0.0138  0.1245
27973W        W44107   9.455   2.927  12.386 -0.0492 -0.1789 -0.0154
27974W        W44108   5.870   7.115   1.571  0.0054 -0.2567  0.0051
27975W        W44109   0.862   5.609  11.858  0.2247  0.1750  0.2810
27976W        W44110  10.770   1.344  16.153  0.0833 -0.1460  0.0307
27977W        W44111   6.785  14.553  12.643 -0.3691 -0.1212  0.0956
27978W        W44112   8.221  11.146  14.975 -0.1699  0.4775 -0.0365
27979W        W44113  14.525  14.824   3.160 -0.0206  0.0537  0.2164
27980W        W44114   0.552   7.296   0.822 -0.0049 -0.0431 -0.2515
27981W        W44115   2.205   0.723  13.873 -0.0930 -0.0506  0.1151
27982W        W44116   7.498   0.317  15.854 -0.0670  0.1219 -0.0573
27983W        W44117   1.509  12.863  12.512  0.0555  0.0857  0.0454
27984W        W44118   1.448   6.122  13.073 -0.0571  0.0370 -0.2517
27985W        W44119   9.615   6.474   0.850 -0.1598  0.0316 -0.1239
27986W        W44120   2.805  11.880  13.879  0.0292  0.0733 -0.0489
27987W        W44121  10.521  15.216  13.187  0.0718 -0.3640  0.2907
27988W        W44122  14.267  12.422   0.038  0.1061  0.2118 -0.0617
27989W        W44123  13.172   3.549  15.345 -0.0463  0.1168 -0.0312
27990W        W44124  17.765  10.196  14.138  0.1213  0.2576  0.1210
27991W        W44125  12.662   5.133  14.353  0.2407 -0.2275 -0.3450
27992W        W44126   7.500  17.179  13.919  0.0050 -0.0025 -0.1181
27993W        W44127   8.816   4.124  14.554  0.0238  0.3293 -0.2077
27994W        W44128  16.884   0.523   3.935 -0.0801  0.2544  0.0771
27995W        W44129   4.517   0.567  16.193 -0.0406  0.3213 -0.0099
27996W        W44130   3.515  11.865   3.175 -0.2244  0.0381  0.2190
27997W        W44131  12.469   3.943  15.998  0.1440  0.2690 -0.1108
27998W        W44132   9.887  13.809   2.735  0.0353  0.1755 -0.2532
27999W        W44133   4.406   9.458  13.354  0.2269  0.2544 -0.4562
28000W        W44134  15.423   9.572   6.049  0.1633  0.1264  0.4151
28001W        W44135  17.792   4.607  15.176  0.1455 -0.1137  0.0379
28002W        W44136  15.286  17.371  12.813 -0.1783 -0.0020 -0.1007
28003W        W44137   7.843  16.076  12.603 -0.0320  0.0228  0.0950
28004W        W44138   1.404  16.952   5.234 -0.4230 -0.2326  0.0480
28005W        W44139   0.728  16.416  12.406 -0.2195  0.0998 -0.1459
28006W        W44140  13.369  16.576  16.672 -0.1078  0.0601  0.0046
28007W        W44141   9.953   1.828   0.374 -0.2123 -0.1497  0.0392
28008W        W44142  10.925  13.990   3.676  0.0148 -0.0427  0.0790
28009W        W44143  14.115   8.114   3.727  0.0549  0.0266  0.3930
28010W        W44144  15.569   4.086   5.457  0.1555 -0.1472 -0.2357
28011W        W44145  10.180   9.437   5.847 -0.1441 -0.0771 -0.2362
28012W        W44146   0.666  11.398  12.409 -0.1662 -0.2342  0.3322
28013W        W44147   4.145  13.140   3.495  0.0680 -0.2416  0.2001
28014W        W44148   2.849   6.986  15.534  0.2683  0.0349  0.2230
28015W        W44149   4.469  17.456   5.952 -0.1553 -0.2679 -0.1582
28016W        W44150   5.474  10.149   4.186 -0.0676  0.3718  0.1799
28017W        W44151   4.982  15.214   0.055 -0.2561 -0.0041  0.2561
28018W        W44152  11.589   6.736  15.690 -0.0058  0.1195 -0.0154
28019W        W44153  11.815   3.124   0.880  0.1446  0.1741 -0.2051
28020W        W44154   2.958  13.161   0.678 -0.1575  0.1294  0.4386
28021W        W44155  17.176  16.884  13.696 -0.1354  0.1521  0.2195
28022W        W44156  13.757   7.172   2.345  0.1979 -0.0334  0.1460
28023W        W44157   0.320  13.461   5.450 -0.3234  0.0213 -0.1196
28024W        W44158  12.892   7.407   2.983  0.0329  0.1099  0.0290
28025W        W44159   2.136   7.095  12.823  0.3865  0.0232  0.2354
28026W        W44160  17.503  10.080   5.553  0.3294 -0.4136  0.1415
28027W        W44161   3.967  14.886   4.013  0.4668  0.1163  0.2037
28028W        W44162   6.467  11.024   3.742 -0.1074 -0.1568 -0.4354
28029W        W44163   8.364  16.276   1.375 -0.1304 -0.1640 -0.0004
28030W        W44164   3.261   7.423   3.816 -0.1121 -0.1016 -0.2516
28031W        W44165  14.646  11.442  14.458 -0.0984 -0.1444 -0.1950
28032W        W44166   2.027  17.121   2.726  0.2646 -0.4870 -0.2634
28033W        W44167  17.791  14.919  13.787  0.0836  0.1088  0.2305
28034W        W44168  17.682  14.729  15.294 -0.1937 -0.1075  0.3693
28035W        W44169   7.916  10.557  13.113  0.1832 -0.2312 -0.2700
28036W        W44170  10.681   0.425  15.479  0.1371  0.3154  0.1691
28037W        W44171   7.214  13.212   1.440  0.0930 -0.2740 -0.0621
28038W        W44172   2.578   3.657   5.940 -0.0682  0.0092 -0.1510
28039W        W44173   6.924   8.503   3.209 -0.1401 -0.0192 -0.0785
28040W        W44174  10.722   5.478  15.410 -0.0036  0.2042  0.0712
28041W        W44175   7.530   2.188   3.128 -0.0202 -0.3926  0.2709
28042W        W44176   0.551   3.683  13.350  0.3614 -0.0770 -0.0551
28043W        W44177   0.486   6.888   1.260 -0.1718  0.0668  0.0316
28044W        W44178   1.598  15.942   4.347  0.2109  0.1358 -0.1001
28045W        W44179   8.727   0.728   1.619  0.0593  0.0523 -0.2768
28046W        W44180  12.951   9.559  14.926 -0.0839  0.1593  0.0479
28047W        W44181  14.283   2.336  12.749 -0.0812  0.0573 -0.0919
28048W        W44182   4.445  12.151  14.374 -0.0736  0.1435 -0.0435
28049W        W44183   2.373  13.589   3.259 -0.0975  0.0040 -0.0363
28050W        W44184   3.592  13.024  14.759 -0.0234  0.2729  0.0449
28051W        W44185   0.932   3.209   5.392  0.1164  0.2215  0.0410
28052W        W44186   6.909   7.083  12.560  0.2223 -0.1589 -0.2481
28053W        W44187   2.718  13.378   1.903  0.1287 -0.2039  0.1462
28054W        W44188  17.294   6.794  15.956  0.3834 -0.2302 -0.1021
28055W        W44189   1.777   3.221   0.897  0.1321  0.1087  0.1611
28056W        W44190   9.235  15.379   4.240  0.1329 -0.0760 -0.0291
28057W        W44191  16.392  12.122   2.138 -0.2585  0.0991 -0.0812
28058W        W44192   4.758   4.703  13.054  0.3414  0.1614  0.0627
28059W        W44193   9.301  11.873  15.485 -0.2705  0.0680  0.1666
28060W        W44194  11.172   2.296  16.552 -0.2705  0.3193  0.0803
28061W        W44195   2.092  12.810   1.788 -0.0241 -0.1499 -0.1488
28062W        W44196   8.222   6.209   4.778  0.2071  0.4986 -0.1135
28063W        W44197  12.579   4.472   3.381  0.1041 -0.1906  0.2333
28064W        W44198   3.899   3.428  11.021  0.0189 -0.0316 -0.1362
28065W        W44199  10.551  15.789   4.806 -0.1521 -0.1167 -0.0632
28066W        W44200   4.750   7.226   2.931 -0.2968  0.1312  0.1284
28067W        W44201   2.660  13.784   4.524  0.1764 -0.1591  0.2900
28068W        W44202   9.114   0.669  12.185 -0.0683 -0.1629  0.1717
28069W        W44203   5.962   4.006  11.377  0.2259  0.0950  0.1322
28070W        W44204  17.277  13.354  11.715  0.1867  0.1429 -0.0831
28071W        W44205  16.580  11.124  13.593 -0.1232  0.1356  0.1867
28072W        W44206   5.038  12.965   4.670  0.1810 -0.0368  0.1869
28073W        W44207  17.963  12.242  11.714 -0.1437  0.2174  0.0122
28074W        W44208  17.852   8.140  14.514 -0.0573  0.1932  0.2139
28075W        W44209  17.079  15.424  13.412  0.0584  0.2150 -0.1969
28076W        W44210   1.743   6.022  16.126  0.0264  0.0555  0.1429
28077W        W44211   4.011   3.428  16.514 -0.1197 -0.0312  0.0636
28078W        W44212  17.389   4.414  13.440 -0.4053 -0.0029 -0.0708
28079W        W44213  14.225   2.748   2.635  0.0473  0.1943  0.1015
28080W        W44214  10.095   3.564   3.804 -0.0874 -0.1472  0.0661
28081W        W44215  12.137   1.690   2.619 -0.0963 -0.1639  0.1689
28082W        W44216  12.534   7.485   5.212  0.1468  0.0780 -0.0188
28083W        W44217   7.574   5.548   2.225  0.2235 -0.0269  0.2017
28084W        W44218   5.757   0.097   6.615  0.4891  0.1606  0.2253
28085W        W44219   3.712  13.229  12.051  0.2642 -0.1133 -0.4188
28086W        W44220  16.127  16.843  11.808  0.1605  0.1093 -0.0836
28087W        W44221  17.300  12.718  14.961 -0.1261 -0.3106 -0.1334
28088W        W44222  15.649  12.906   1.125 -0.1285 -0.1299  0.1628
28089W        W44223  13.321   3.775  12.280 -0.1088  0.0713 -0.0465
28090W        W44224   9.887   0.453   4.597  0.0984 -0.1164  0.1391
28091W        W44225  12.018  12.574   3.945 -0.0702 -0.1653 -0.1781
28092W        W44226  12.446   1.147  11.526  0.0250  0.1677 -0.2807
28093W        W44227   7.429  17.114  14.435 -0.1464 -0.0658 -0.1838
28094W        W44228  15.008  13.558  14.353  0.2488  0.6133  0.0642
28095W        W44229   1.565   0.918   4.309 -0.1087 -0.0705  0.1058
28096W        W44230  14.742  16.662   4.191 -0.1459  0.1720 -0.1052
28097W        W44231   7.309  16.434  16.421  0.0642 -0.1203 -0.2255
28098W        W44232   2.616   8.036   5.260  0.1657 -0.2352  0.1937
28099W        W44233   8.896   7.437   4.232 -0.1401 -0.0923 -0.0370
28100W        W44234  13.402  13.842  15.280  0.0249 -0.1523 -0.2966
28101W        W44235  11.207   1.250  15.102  0.1488 -0.0009 -0.3306
28102W        W44236   5.696   9.386  13.329 -0.0195 -0.3549 -0.1587
28103W        W44237   1.038   5.050   5.280 -0.3750 -0.1397 -0.2271
28104W        W44238  11.651  17.348  14.429 -0.2154  0.0612  0.2555
28105W        W44239  14.720  15.533   2.967  0.1646 -0.0325  0.0449
28106W        W44240  13.505   7.232   0.967 -0.0237  0.1787 -0.0715
28107W        W44241   3.083   2.571  16.590  0.0640 -0.0874  0.0137
28108W        W44242  17.896   3.981  16.384 -0.1414  0.1033 -0.0777
28109W        W44243  13.224  16.998   3.241 -0.0584 -0.1017  0.1900
28110W        W44244  11.017   9.854   1.804  0.0637  0.1653  0.1243
28111W        W44245  15.800  10.208   0.656 -0.0240 -0.1615  0.1820
28112W        W44246  16.600   8.932   3.785 -0.0789  0.1881 -0.1619
28113W        W44247  17.218   2.139  14.524 -0.0221  0.0505 -0.1851
28114W        W44248   7.043  10.898  13.253 -0.0834 -0.1971  0.0765
28115W        W44249   1.000   3.167  14.887 -0.1088  0.2293  0.1851
28116W        W44250   2.500  14.995   3.179  0.1153  0.0540  0.1211
28117W        W44251  11.677   6.940   4.057  0.2914  0.2068 -0.3425
28118W        W44252   3.435   1.489  14.754 -0.2409 -0.0587  0.0396
28119W        W44253   1.867  10.532  11.757  0.0893 -0.0213  0.2097
28120W        W44254   5.775   7.885   1.016 -0.0571 -0.0121 -0.2022
28121W        W44255  15.974  16.325  14.729  0.2595 -0.2993 -0.1195
28122W        W44256   9.971   3.783   4.927  0.0855  0.0794 -0.0365
28123W        W44257  11.757   0.180   4.256  0.0981  0.3190  0.1394
28124W        W44258   8.413   3.710  15.839  0.2989 -0.0394 -0.1001
28125W        W44259   5.016  15.050   5.072 -0.2402  0.0159 -0.1288
28126W        W44260  13.307  13.075   3.660  0.0538  0.0417  0.2807
28127W        W44261   1.332   5.759  14.916  0.1597  0.0036 -0.0645
28128W        W44262   6.457  14.331   3.249 -0.1186  0.4273 -0.1403
28129W        W44263   7.121  14.262  15.945 -0.2124 -0.1701  0.1453
28130W        W44264   8.644   6.312  13.278  0.2385  0.1962 -0.0424
28131W        W44265   0.254   0.596  12.039  0.0800 -0.0807  0.0472
28132W        W44266   4.509   3.094  14.716  0.0324  0.3207  0.0804
28133W        W44267   8.054   1.292   2.251 -0.0508  0.2270 -0.2818
28134W        W44268  11.442  16.648  12.239 -0.0953  0.0072 -0.2078
28135W        W44269   8.290   7.852   4.633 -0.3981 -0.0288 -0.0067
28136W        W44270  13.694   9.339  14.260 -0.0469  0.1845 -0.0219
28137W        W44271  14.811   0.191  14.980 -0.0567  0.1824 -0.0365
28138W        W44272   8.773   1.954  12.037  0.2916  0.0568 -0.1046
28139W        W44273  10.792   7.797   1.773  0.0513  0.3232  0.3782
28140W        W44274  14.046   4.847  14.380  0.0599 -0.3125  0.0271
28141W        W44275   9.559  11.426   0.768  0.1712  0.1577 -0.1804
28142W        W44276  14.886  11.095   4.104 -0.2856 -0.0497 -0.1139
28143W        W44277  11.457   8.423   0.612  0.1545 -0.0582  0.1579
28144W        W44278  11.062  15.296   0.493  0.0953  0.0800 -0.1241
28145W        W44279  16.125  13.199  12.483  0.0431 -0.2004 -0.0409
28146W        W44280   6.057   4.902  11.668  0.2742 -0.0146  0.2194
28147W        W44281  14.254  12.911   3.410  0.0213 -0.0526 -0.0063
28148W        W44282  12.030   6.543  15.466  0.2055 -0.0297 -0.0354
28149W        W44283  16.573   9.373   5.934  0.1151 -0.0269  0.0073
28150W        W44284   9.429   9.592   3.596 -0.3377  0.0067 -0.0003
28151W        W44285  13.014   0.137   2.889  0.0091 -0.3812  0.0259
28152W        W44286  12.226  16.894   5.585 -0.2211  0.4655  0.1506
28153W        W44287  11.704  16.651   4.965 -0.0382  0.2359  0.1107
28154W        W44288   5.134  10.967   5.123  0.3031  0.2936 -0.0236
28155W        W44289  12.141  11.255   4.790 -0.3010  0.3126 -0.1016
28156W        W44290  14.498   3.409   4.640  0.2184  0.0936  0.1564
28157W        W44291   0.710   8.516  14.578 -0.0216  0.0680  0.0390
28158W        W44292  10.767   2.183  15.391 -0.0463  0.1623  0.1308
28159W        W44293   1.115   6.980  16.370  0.2353 -0.0276  0.1108
28160W        W44294  17.856  13.648   0.743  0.2627 -0.0938 -0.0444
28161W        W44295  17.032   8.571   5.222  0.1393 -0.2713  0.1350
28162W        W44296   9.686   7.167  16.031 -0.2098 -0.0863  0.0293
28163W        W44297   5.770  12.896   3.088 -0.1009 -0.1964  0.1092
28164W        W44298   5.910  10.048  14.811  0.0509  0.0798  0.0148
28165W        W44299   5.406  14.430   2.646  0.0812 -0.1190  0.3013
28166W        W44300   1.945  16.690   0.635 -0.2524 -0.2661 -0.1017
28167W        W44301  17.401   8.324  16.525 -0.1300 -0.1428  0.3353
28168W        W44302   4.982   4.318   1.595 -0.2311 -0.1695 -0.3223
28169W        W44303   2.456   8.867   0.668 -0.0635  0.0625 -0.0518
28170W        W44304   1.010  11.411   4.273 -0.0253  0.1466  0.3151
28171W        W44305   4.334   7.832  13.895  0.0241  0.0752  0.1865
28172W        W44306   4.215   6.486   4.074  0.0631 -0.2875  0.0456
28173W        W44307  15.553  13.949   0.215 -0.1755 -0.0031  0.0370
28174W        W44308   0.277   5.326   2.563  0.2824 -0.0794  0.0207
28175W        W44309   6.566   8.629  16.437 -0.0344 -0.1462 -0.1954
28176W        W44310   5.825   8.039  15.220  0.0762  0.0631  0.2517
28177W        W44311   8.667   3.124  14.572  0.0637  0.0946 -0.0019
28178W        W44312   4.654  12.960  16.665  0.0180 -0.1084  0.2320
28179W        W44313  11.825   5.865  16.055 -0.0920  0.2011  0.1211
28180W        W44314  16.299   6.927  14.852 -0.0151  0.0777 -0.1257
28181W        W44315   8.514   0.194  14.297  0.0815 -0.1441  0.0399
28182W        W44316   2.970  17.119   3.176  0.0220  0.0738  0.2002
28183W        W44317   7.144   8.782  14.053  0.1447  0.1572  0.1770
28184W        W44318   9.993  14.922   0.719 -0.3250 -0.4573  0.0228
28185W        W44319   1.958   2.385  12.831 -0.0641  0.3260 -0.1996
28186W        W44320  11.524  15.969  15.902  0.0681  0.0815 -0.3522
28187W        W44321  11.094   0.015  15.542  0.0415 -0.1001  0.0330
28188W        W44322   2.672   0.618  15.709  0.0189 -0.0506 -0.0009
28189W        W44323  15.549   0.028  12.471 -0.0853  0.3184 -0.3149
28190W        W44324  10.818   0.548   6.403  0.0073  0.2303  0.2528
28191W        W44325  16.150   6.563   2.748 -0.0415  0.1708 -0.0577
28192W        W44326   9.679   8.341   5.116  0.5468 -0.1102  0.1524
28193W        W44327   8.157   5.971   4.214 -0.0263  0.0327  0.0978
28194W        W44328  11.290  10.522   3.996  0.1443 -0.0720 -0.0952
28195W        W44329   2.208   0.417   2.081 -0.0736  0.2067  0.0512
28196W        W44330   5.518   3.030  16.564 -0.1310  0.3590  0.2185
28197W        W44331   3.586  15.131  12.961 -0.4051  0.2528 -0.0636
28198W        W44332   2.918  10.457  14.515 -0.1031  0.1635  0.0229
28199W        W44333  12.470  10.746  13.464 -0.0717  0.1434 -0.0338
28200W        W44334   8.199   4.222  15.585  0.3892 -0.0012  0.1979
28201W        W44335  13.911   7.710  11.354 -0.0788 -0.1996  0.0483
28202W        W44336   3.751  15.612  12.997 -0.0859 -0.2153  0.1306
28203W        W44337   2.448   3.249  12.754 -0.0483 -0.2405  0.0193
28204W        W44338  13.354   8.408   1.475  0.0363  0.1394  0.1791
28205W        W44339   1.886  12.125  15.062  0.4580 -0.0992 -0.1876
28206W        W44340  15.879  13.546   0.050  0.0516 -0.0056  0.1211
28207W        W44341  12.293   4.431   0.676 -0.0438 -0.2577 -0.1372
28208W        W44342   9.640   0.614   5.033 -0.0235 -0.0351 -0.4115
28209W        W44343   3.746   3.355   5.814 -0.0533 -0.2967  0.0590
28210W        W44344  12.013   8.969  14.972  0.0568  0.2774 -0.1664
28211W        W44345   6.718   6.918  14.380 -0.1474 -0.2506  0.2927
28212W        W44346  17.036  10.680   2.075 -0.0786  0.4824  0.4236
28213W        W44347  16.350  12.057   5.919 -0.4148 -0.0300 -0.3297
28214W        W44348   5.406  17.403  12.998  0.0576 -0.0327  0.1158
28215W        W44349   1.950   4.547   2.052  0.1992  0.0015  0.0734
28216W        W44350   5.448   3.047  13.746  0.2044 -0.1443  0.2222
28217W        W44351   6.377   8.641   5.033 -0.1313  0.1266  0.3604
28218W        W44352   0.512   3.311  15.737 -0.0685 -0.1238 -0.1737
28219W        W44353   7.228  10.086  14.844 -0.0157 -0.3760  0.1671
28220W        W44354   7.769   5.179   0.908  0.0506 -0.0879 -0.2756
28221W        W44355   5.056   2.308  14.717 -0.1092 -0.2794  0.2781
28222W        W44356  10.236   4.319  13.185  0.1237  0.1910 -0.1811
28223W        W44357  13.427  16.587   2.013 -0.5158  0.0534 -0.0702
28224W        W44358  10.157   1.463   0.664  0.3050 -0.0574 -0.1060
28225W        W44359   2.298  15.108  16.232 -0.1447  0.0142 -0.2657
28226W        W44360   0.504   6.363   0.613  0.0882 -0.0351  0.1434
28227W        W44361  14.448   5.947  12.725 -0.1846 -0.3736 -0.0718
28228W        W44362   1.708   3.539   3.715 -0.0344  0.0383 -0.0290
28229W        W44363  13.190  12.411   1.859 -0.0531  0.3298 -0.0332
28230W        W44364   2.957   8.148  15.830  0.0890 -0.2499 -0.0045
28231W        W44365   7.267  10.840   0.307  0.2530  0.1689 -0.0972
28232W        W44366   3.153  13.201  16.405  0.1676  0.0337 -0.0668
28233W        W44367  16.587  13.201   0.486  0.1159 -0.0048  0.1888
28234W        W44368  12.123   8.085   4.699  0.2893  0.3058 -0.1272
28235W        W44369  17.799   8.430  12.506 -0.0898 -0.0788 -0.0864
28236W        W44370   2.777   7.600  11.156  0.0797 -0.0284 -0.0606
28237W        W44371  17.811   5.938   0.356  0.2171 -0.2792 -0.1241
28238W        W44372   9.682  16.806  11.679 -0.3274 -0.0199  0.0325
28239W        W44373   3.834  11.613  15.500  0.2751  0.2609  0.0040
28240W        W44374  11.039  11.795   2.907 -0.2325  0.1330  0.0941
28241W        W44375  13.016   9.329   1.068 -0.3395 -0.0196  0.2334
28242W        W44376  11.960  16.317   3.331 -0.1703 -0.0561 -0.0830
28243W        W44377  10.184   9.968   1.253  0.0993  0.1818  0.0562
28244W        W44378   2.306  16.506   2.020  0.0303  0.2708  0.2508
28245W        W44379   0.209   7.069  11.913 -0.1104 -0.5270 -0.1091
28246W        W44380   2.440   7.631   2.178 -0.1533  0.0775 -0.2494
28247W        W44381   1.760  14.467  11.868 -0.1861 -0.4676 -0.1263
28248W        W44382   0.335  16.089  12.204  0.0473 -0.1725  0.1550
28249W        W44383   6.627   0.799   0.251  0.1830  0.0207  0.0563
28250W        W44384   4.215  12.629  14.175  0.1920  0.0316  0.1207
28251W        W44385   1.885  17.403  15.024 -0.4275  0.1278  0.0878
28252W        W44386  13.895   9.332  15.255  0.1200  0.0534  0.0038
28253W        W44387  13.483  16.399  14.426 -0.2734 -0.3083  0.1450
28254W        W44388  16.318  16.990   1.020  0.0614 -0.0280  0.2987
28255W        W44389   2.790  11.437   4.163 -0.1165 -0.2622  0.0936
28256W        W44390   3.149   0.689   5.126 -0.0452  0.4182 -0.0199
28257W        W44391   8.705   7.077   2.634  0.4449 -0.1600 -0.2648
28258W        W44392  11.775  11.954   0.108 -0.0613 -0.2672 -0.0186
28259W        W44393   8.580   7.223  12.393  0.1312 -0.2188  0.0923
28260W        W44394   6.984  17.110  10.342 -0.0687  0.0167 -0.0633
28261W        W44395   1.226   7.190   1.597  0.1789 -0.1828 -0.1482
28262W        W44396   2.844  15.551  14.703 -0.1304 -0.1473  0.1739
28263W        W44397   8.508  11.346   0.151  0.1791 -0.0408  0.2764
28264W        W44398   4.299  17.909   5.504  0.2795  0.2396 -0.0596
28265W        W44399   5.073   4.137  11.609  0.2231  0.0643  0.1052
28266W        W44400   2.721  17.070  15.281 -0.1546 -0.2571 -0.0327
28267W        W44401  10.413   8.623   1.403  0.1675 -0.1488  0.2241
28268W        W44402   7.999  10.099   2.948  0.0725  0.1575  0.1024
28269W        W44403   9.156  16.735   2.740 -0.0348  0.1086  0.0638
28270W        W44404   3.838  17.338   3.469 -0.1551  0.3734  0.0547
28271W        W44405   8.598  12.635  13.493 -0.2899 -0.0086  0.1192
28272W        W44406   7.627  12.945   2.923  0.0633 -0.2975 -0.2675
28273W        W44407   8.409  10.081  12.462  0.0600  0.0624 -0.0770
28274W        W44408  14.895   0.697  12.337 -0.0848  0.2600  0.1606
28275W        W44409  16.220  13.861   2.738  0.0757 -0.0786 -0.0658
28276W        W44410   7.906   0.862  15.166 -0.3874  0.0600 -0.0615
28277W        W44411   8.759  15.343  12.996 -0.1632 -0.0511  0.0030
28278W        W44412  17.362   2.114  13.464  0.1852 -0.1559 -0.0568
28279W        W44413   6.430   9.436  12.425  0.3018  0.0503  0.1191
28280W        W44414  17.036  12.551   0.383  0.2204  0.0010 -0.0481
28281W        W44415  14.977  12.046   0.927  0.0341 -0.1703  0.1193
28282W        W44416  15.473  11.595  14.895  0.0121  0.1193  0.0620
28283W        W44417  14.689  15.937  13.147 -0.1269 -0.0658 -0.0272
28284W        W44418   6.805   5.106   4.576 -0.0245 -0.0997 -0.3070
28285W        W44419   4.860   8.702  12.287  0.1244  0.0149  0.0014
28286W        W44420   4.427  17.186  11.492 -0.0608  0.1300  0.0820
28287W        W44421   1.374  11.871   4.802 -0.0575 -0.0513 -0.0272
28288W        W44422   7.155   3.004  13.764  0.4333 -0.0423 -0.2592
28289W        W44423   9.600  15.080   0.249 -0.2418  0.0648 -0.4020
28290W        W44424   0.630   5.790  12.997 -0.1266 -0.1878 -0.0112
28291W        W44425   7.148  13.813  12.606  0.1115 -0.1382 -0.0853
28292W        W44426  17.918  15.258   2.138 -0.2450 -0.3555  0.1384
28293W        W44427   9.893   3.423   0.749 -0.1327  0.3223  0.1747
28294W        W44428  10.912  16.834   1.800  0.2120  0.0511  0.1687
28295W        W44429   9.022  11.166   0.911 -0.0344 -0.1613  0.0936
28296W        W44430   0.839   7.757   2.910 -0.1472  0.1660  0.1299
28297W        W44431   8.364  14.237  15.511  0.3247  0.1336  0.0178
28298W        W44432   5.460  10.524   3.315  0.5567  0.0902  0.1314
28299W        W44433   4.634  16.117   2.904 -0.3887  0.1288  0.1789
28300W        W44434  11.659   5.608  16.505 -0.0511  0.0706 -0.1798
28301W        W44435   1.195   7.998  13.255 -0.1195  0.2464  0.0239
28302W        W44436  17.305  12.908  12.879 -0.0398  0.1907  0.1473
28303W        W44437  16.700   4.450   4.459  0.1379  0.0696  0.0578
28304W        W44438   9.444  14.473  13.979  0.0140 -0.0005  0.2564
28305W        W44439   4.461   3.117  16.083  0.3415  0.0308 -0.2667
28306W        W44440  11.804  12.906   5.871  0.0147 -0.3772  0.1962
28307W        W44441  13.777   3.814   5.362 -0.0770 -0.2212  0.1982
28308W        W44442  15.827  10.248   4.298  0.0566 -0.0898 -0.2559
28309W        W44443  14.569  13.562   4.025 -0.0997  0.1993  0.2376
28310W        W44444  10.878  15.609  11.883 -0.3019 -0.1892  0.2313
28311W        W44445  17.051   7.381   4.512  0.0891  0.1509  0.0764
28312W        W44446   1.219  12.346   0.466  0.2020  0.0785 -0.0220
28313W        W44447   6.071   5.379   4.381 -0.1571  0.1986  0.1158
28314W        W44448  15.077   9.487  15.298  0.0918 -0.1231  0.1384
28315W        W44449   9.335   2.193   5.256 -0.0383 -0.0717  0.3592
28316W        W44450  17.959  13.584  13.359  0.2116 -0.1839 -0.0524
28317W        W44451   7.186   1.066   2.789  0.3185  0.0839 -0.0130
28318W        W44452  15.580   2.314   2.993 -0.3142 -0.0596  0.1668
28319W        W44453   4.819   1.007  14.176  0.3583 -0.0720  0.3448
28320W        W44454  15.634  13.458  12.537 -0.1372  0.1154  0.0730
28321W        W44455  17.899   7.902  11.805 -0.0167  0.1345 -0.0494
28322W        W44456  15.968  12.405  12.533 -0.0204  0.0610  0.0279
28323W        W44457   3.551   1.809  13.229  0.1245  0.0059  0.0395
28324W        W44458  13.792   8.908  13.622  0.1304 -0.3892 -0.1279
28325W        W44459   6.186   0.235   0.780 -0.2193  0.0556 -0.2613
28326W        W44460  14.510   4.945  13.404 -0.1169  0.0125  0.3635
28327W        W44461  16.160   8.865  14.580  0.0333  0.0292 -0.1437
28328W        W44462  13.512   3.404  14.986  0.0370  0.0917 -0.3298
28329W        W44463   1.565  13.497  16.397 -0.0629  0.0075 -0.2456
28330W        W44464  15.871   0.401  12.524  0.1957  0.0078  0.0089
28331W        W44465  11.181   6.103  12.535  0.0942  0.0480  0.0326
28332W        W44466   1.540  15.007   3.161  0.1865 -0.1288 -0.3568
28333W        W44467  10.432  10.886   5.419  0.0105  0.0649  0.1743
28334W        W44468  11.127  15.301  13.813  0.2264 -0.1789 -0.2947
28335W        W44469   4.533  16.810   2.241  0.1419 -0.3950 -0.2015
28336W        W44470   3.564   2.790  11.757  0.1803 -0.1409 -0.3044
28337W        W44471   4.404  15.387   4.413  0.4100 -0.1749 -0.0064
28338W        W44472   6.194  12.553   4.603  0.0515  0.4138  0.0155
28339W        W44473   7.146   4.085  15.779  0.2545 -0.1624  0.2114
28340W        W44474   9.761  11.865   0.931 -0.1191  0.0414  0.1286
28341W        W44475   6.305   2.058  12.825 -0.0713  0.1664 -0.3133
28342W        W44476   9.973  12.130  13.662  0.1458  0.0347 -0.4414
28343W        W44477   0.578   6.508   3.634  0.1364  0.1303  0.0165
28344W        W44478   9.290   6.908  13.108  0.0599  0.0348  0.0989
28345W        W44479   2.617  15.762  15.145  0.1486  0.1274 -0.2341
28346W        W44480  15.663  12.103  13.523  0.0812  0.0244  0.1875
28347W        W44481  16.309  11.339  15.034 -0.2013 -0.0487  0.1557
28348W        W44482   1.259   0.772  13.166  0.0933 -0.0787  0.0888
28349W        W44483   8.911  15.060  15.710 -0.0983 -0.2126  0.4407
28350W        W44484   9.659  10.923   5.167  0.2894 -0.0237 -0.0454
28351W        W44485   7.885  17.942   0.899 -0.0106 -0.2443 -0.1894
28352W        W44486   0.447  17.700   4.438  0.1999  0.0719 -0.0076
28353W        W44487  11.486   7.097  15.252 -0.3021 -0.1717 -0.1685
28354W        W44488   4.256  16.457   1.956 -0.1705 -0.2698 -0.2582
28355W        W44489  10.639   2.271  12.543 -0.0560 -0.1600  0.0283
28356W        W44490  13.356  15.180   0.437  0.3338 -0.3049  0.0661
28357W        W44491   4.912  12.466  15.130  0.1174 -0.2851 -0.1252
28358W        W44492  13.500  16.246  16.137 -0.0409 -0.1178 -0.3180
28359W        W44493  16.105  17.458   0.874  0.0818 -0.1089  0.2577
28360W        W44494   6.636   0.310  16.249 -0.2552 -0.1722 -0.3428
28361W        W44495  14.543  10.345   2.305  0.1727 -0.0321  0.1402
28362W        W44496   9.004   3.614   4.225  0.1261  0.0215 -0.0748
28363W        W44497   3.312  13.416   3.165  0.0868  0.2699  0.0149
28364W        W44498   9.170   2.795  15.927 -0.1249 -0.0836 -0.2137
28365W        W44499   9.872   7.073  11.685  0.0383 -0.0824  0.1599
28366W        W44500   1.193   8.662   0.546 -0.0589 -0.1892 -0.0818
28367W        W44501   4.103  17.219   1.220 -0.1967  0.0003  0.1165
28368W        W44502   0.124   6.294   1.662  0.0258 -0.0674 -0.0124
28369W        W44503  17.113   8.525   1.838  0.1401 -0.0959  0.0443
28370W        W44504  15.809   2.949  16.082  0.0596 -0.0654  0.0784
28371W        W44505   4.167   1.003   3.747 -0.0324  0.1375 -0.4057
28372W        W44506   8.011  10.091   6.041  0.0261  0.0083  0.3799
28373W        W44507  10.792   8.275   4.968  0.0562 -0.1554 -0.1880
28374W        W44508  13.787  11.173   5.314 -0.2704  0.1492 -0.4798
28375W        W44509   9.734   1.928   3.242 -0.0605  0.1289  0.4467
28376W        W44510  10.242  14.588  14.441 -0.0883 -0.1069 -0.0055
28377W        W44511  15.111  11.147  11.771 -0.0190 -0.3635  0.2654
28378W        W44512  10.110  14.724   2.260  0.0263  0.1809  0.1411
28379W        W44513   2.975   6.050   0.149 -0.2199  0.0400 -0.0753
28380W        W44514  11.308  17.241  15.330  0.0732  0.2112 -0.1760
28381W        W44515  12.562  17.479  12.324  0.1030  0.0220  0.2833
28382W        W44516  15.387   6.292  15.237  0.0543 -0.0469 -0.0270
28383W        W44517  17.203  17.537  16.431 -0.0319  0.0738 -0.0501
28384W        W44518  12.926  15.982   3.363  0.0409 -0.0733 -0.1465
28385W        W44519   4.389  14.882   5.812  0.2474  0.2174  0.0340
28386W        W44520   7.620   9.436   2.291  0.3290  0.1503  0.0741
28387W        W44521   0.645   0.817   3.723  0.1480  0.0979  0.4065
28388W        W44522  12.004   4.534  12.564 -0.0033  0.0182 -0.0606
28389W        W44523   5.443   7.924   2.560 -0.1733  0.1966 -0.1930
28390W        W44524  17.731  15.916  15.375  0.1608 -0.1827  0.3243
28391W        W44525  17.510   7.102  16.534  0.1475  0.2427  0.1267
28392W        W44526   4.426   9.969   1.722  0.2177  0.0403  0.2379
28393W        W44527   2.139   3.722  15.853 -0.0663  0.2735  0.2417
28394W        W44528   1.029   2.886  12.361  0.1025 -0.0027 -0.0702
28395W        W44529  11.267   2.469  16.083 -0.1003  0.1503  0.0212
28396W        W44530   1.451   2.004  12.583  0.0899  0.0528  0.1301
28397W        W44531   0.538  13.012   1.804 -0.0370 -0.0266 -0.0557
28398W        W44532   9.501  16.720   3.285 -0.1251  0.4573 -0.2925
28399W        W44533  16.313  17.473  16.703  0.1404 -0.1203 -0.2757
28400W        W44534   3.910  16.738   2.755 -0.1351  0.2846  0.0853
28401W        W44535   4.998   9.289   3.025  0.0722 -0.1311 -0.1089
28402W        W44536  10.354   8.369  12.470 -0.0616  0.4257  0.2543
28403W        W44537  13.895  10.747  13.425  0.1784 -0.0847 -0.0123
28404W        W44538   0.485   9.901   3.133 -0.0318  0.1427  0.0760
28405W        W44539   1.032  14.314  15.423 -0.1923  0.3567 -0.0801
28406W        W44540   8.182   5.563   4.539  0.0406  0.0898  0.0144
28407W        W44541   7.511   2.102  15.181 -0.2237  0.2233  0.2336
28408W        W44542   1.707   8.789   0.842 -0.0434  0.2483 -0.0261
28409W        W44543  12.754  12.237   0.037  0.1672 -0.0278 -0.3187
28410W        W44544   9.353  13.369  15.390 -0.2111 -0.2331 -0.3597
28411W        W44545   7.524   1.158   0.004  0.0257  0.2580 -0.1901
28412W        W44546  14.353   2.167  13.999  0.0585 -0.2156  0.1861
28413W        W44547   7.104   9.134   1.694 -0.0055  0.0210 -0.2923
28414W        W44548  17.937  14.332   5.689  0.0835 -0.3976  0.0727
28415W        W44549   7.669  14.591   2.754 -0.1070 -0.0393 -0.3366
28416W        W44550   8.973  17.468  10.490  0.1205  0.0077  0.1160
28417W        W44551  11.714  17.355   4.706 -0.0530  0.0609 -0.0359
28418W        W44552   5.855  13.479   4.511  0.0143  0.1689 -0.0817
28419W        W44553  12.561   8.705  15.793  0.1472  0.3578 -0.1228
28420W        W44554   6.600  13.021  13.126  0.2151  0.0588  0.1263
28421W        W44555  15.307  17.279   1.354  0.0991 -0.1072  0.0942
28422W        W44556   2.409  17.955   4.977  0.1657  0.1572  0.2290
28423W        W44557  16.998   4.464   1.277 -0.1486 -0.1646  0.1771
28424W        W44558   1.992  10.726  12.817  0.3183 -0.0738 -0.0849
28425W        W44559  12.326  15.943  13.244  0.2249  0.0838 -0.2305
28426W        W44560  10.035  13.617  14.967  0.0336 -0.0816 -0.0707
28427W        W44561  14.945  15.456  15.368 -0.0052  0.0236 -0.4210
28428W        W44562  10.204   8.452   3.522 -0.0079  0.0682  0.3660
28429W        W44563   2.454   9.979  11.396  0.0083 -0.0509 -0.0968
28430W        W44564   8.837   9.072   0.793  0.3148 -0.1473  0.0240
28431W        W44565   1.601   3.927  14.174 -0.0243  0.1374 -0.0745
28432W        W44566  14.931   6.136  12.927  0.0975 -0.0218 -0.0292
28433W        W44567   4.403  17.378   2.069 -0.1748  0.1955  0.1012
28434W        W44568   0.356   1.764  15.895 -0.1182 -0.0890 -0.2106
28435W        W44569   6.034  14.456   0.153  0.0629  0.0414  0.0662
28436W        W44570   9.964  11.245   0.615  0.1211 -0.1005 -0.0464
28437W        W44571  11.051   6.815   1.619  0.0530  0.1132  0.3027
28438W        W44572   4.957   7.962   2.369  0.5030 -0.2077  0.1469
28439W        W44573   0.048  13.652   4.006  0.1358 -0.0547  0.2637
28440W        W44574  15.273   1.660   2.158  0.1601  0.2088 -0.1019
28441W        W44575   2.637   1.916  11.315 -0.0834 -0.1997  0.2917
28442W        W44576  12.140   9.733   1.160 -0.0943  0.3053 -0.3911
28443W        W44577  14.409  12.393   3.276  0.2092 -0.2497  0.2985
28444W        W44578   4.404  10.932   3.899  0.1650 -0.1284  0.1512
28445W        W44579   9.935   5.074  15.739  0.0098 -0.2338  0.3068
28446W        W44580  17.173   0.237   1.579 -0.0406  0.3435  0.1054
28447W        W44581  16.477  14.226  14.421 -0.0931  0.1415  0.0263
28448W        W44582  10.234   9.865  15.677  0.0418 -0.0484  0.3574
28449W        W44583  13.519   4.532   5.012 -0.1485 -0.1090 -0.1609
28450W        W44584   1.152  12.184  15.409  0.0641 -0.0622 -0.1890
28451W        W44585   3.921  17.790  13.689 -0.2415  0.0274  0.0692
28452W        W44586  12.979   2.986   1.973  0.0189  0.0054  0.1539
28453W        W44587  11.810   0.968  16.247  0.3284 -0.1417 -0.1023
28454W        W44588  10.795   0.704  12.786 -0.0443 -0.4027 -0.0143
28455W        W44589  13.367   8.079  16.672 -0.1778 -0.1230  0.0941
28456W        W44590   5.563   0.460   3.161 -0.0995 -0.1259 -0.3196
28457W        W44591   6.224   6.507   5.104 -0.1641  0.0278 -0.0465
28458W        W44592   7.946   2.878   0.898 -0.0408  0.3368  0.3601
28459W        W44593   4.052  14.804   1.402 -0.0242 -0.0025 -0.1362
28460W        W44594   8.948  15.887  15.298 -0.1655  0.1697  0.0642
28461W        W44595   6.953  14.446   5.122 -0.0516  0.2201  0.3701
28462W        W44596   5.813   8.361   0.206  0.2458  0.0918 -0.2738
28463W        W44597  17.588   3.785  11.348 -0.0439 -0.1084 -0.0888
28464W        W44598  10.092   3.295  16.402  0.1169  0.2003  0.3241
28465W        W44599   6.330   7.146   0.821 -0.1061  0.2695  0.1008
28466W        W44600   0.852   2.601   1.856  0.0641 -0.2577  0.0311
28467W        W44601   9.621  14.452  16.044  0.0211  0.1624  0.0230
28468W        W44602   5.447   8.714   3.339  0.1754  0.4356  0.2325
28469W        W44603   6.940   5.783   0.423  0.1414 -0.1646  0.0633
28470W        W44604   2.327   5.444   1.118  0.1837 -0.0502 -0.0811
28471W        W44605  10.731   8.186   0.546  0.2213  0.0512  0.0152
28472W        W44606   1.097  10.042   5.552 -0.1105  0.1939 -0.0110
28473W        W44607  16.535  15.545   2.344 -0.1251 -0.2731  0.0267
28474W        W44608   5.384   8.535   0.079  0.2871 -0.1226 -0.1113
28475W        W44609   1.203   3.358   1.066 -0.1736 -0.1920 -0.3659
28476W        W44610   7.711  17.555  14.154 -0.1511  0.1060 -0.0610
28477W        W44611   9.020  12.469  11.252 -0.0584  0.1195 -0.0059
28478W        W44612   1.790   8.829   0.202 -0.3689 -0.1212  0.0186
28479W        W44613   3.189   5.297  13.688  0.0831 -0.0881 -0.0663
28480W        W44614   8.412  17.923   4.930 -0.1557  0.1404 -0.0412
28481W        W44615  15.655   8.349  11.923 -0.1821  0.1378 -0.1777
28482W        W44616   4.760   7.743  13.428 -0.1199  0.2767 -0.1294
28483W        W44617   7.622   7.875   2.227  0.0023 -0.0573  0.0656
28484W        W44618   9.485   2.329  11.712 -0.2870  0.0157  0.2644
28485W        W44619   3.798   6.529  13.017 -0.2693  0.0002 -0.0171
28486W        W44620   0.447  16.121  12.974 -0.1446 -0.0913  0.0710
28487W        W44621  15.850   9.884   1.598 -0.1940 -0.0916 -0.0970
28488W        W44622  12.176  15.046  12.043 -0.0626  0.0004  0.1265
28489W        W44623   2.308  14.035   4.812  0.1907 -0.0443 -0.0638
28490W        W44624   5.289   2.451   1.780  0.0666  0.2847  0.1831
28491W        W44625   7.969  11.918  13.464  0.0221  0.1607 -0.1161
28492W        W44626   0.748   4.434  13.734 -0.1842 -0.1531 -0.1513
28493W        W44627  16.142   0.283  13.166  0.0422  0.1873 -0.1591
28494W        W44628  16.719   8.119   4.110  0.0590  0.1036 -0.1874
28495W        W44629   9.105  14.148  10.915  0.2048  0.1877  0.1522
28496W        W44630   9.035   3.176  13.078  0.4521  0.0994 -0.3293
28497W        W44631   1.073   3.634   0.598 -0.1965 -0.0181  0.0448
28498W        W44632  14.138   6.318   4.123  0.1857  0.1821 -0.1584
28499W        W44633  16.744   9.928  12.114 -0.0830 -0.0960 -0.0117
28500W        W44634  11.040   0.903  11.714  0.0841  0.0333 -0.2506
28501W        W44635  15.459   4.532   5.320  0.1141 -0.0789  0.0725
28502W        W44636   5.297   1.017  13.911  0.0991 -0.3187 -0.3697
28503W        W44637   7.295  13.626  14.783 -0.0500 -0.0404 -0.2378
28504W        W44638  12.112  16.926   1.757 -0.2657  0.1656  0.2576
28505W        W44639  16.895   4.663   0.776 -0.1976  0.1035  0.2212
28506W        W44640  15.178  16.191   3.718 -0.2769  0.2166 -0.1118
28507W        W44641  10.412   5.558   1.663  0.2058  0.0833 -0.1309
28508W        W44642   0.010   7.935  12.830  0.4432 -0.0939 -0.0191
28509W        W44643   1.695  10.952  15.633 -0.0194  0.1388 -0.0917
28510W        W44644   1.938  17.104  15.913 -0.2382 -0.1252 -0.0679
28511W        W44645   3.238  12.262  15.108  0.0546  0.1611  0.3315
28512W        W44646  16.346   1.482   2.242  0.3360  0.3947  0.1671
28513W        W44647   2.086   0.685   0.240 -0.2888  0.0342 -0.0122
28514W        W44648   4.927   9.081  11.320  0.1818 -0.0453 -0.3957
28515W        W44649  12.371   5.647   3.676 -0.0815  0.0737 -0.2387
28516W        W44650   2.903   8.533  12.322 -0.1859  0.2923  0.2556
28517W        W44651  15.095   9.065   5.324 -0.0227  0.0020  0.2719
28518W        W44652  15.033   4.027   1.099 -0.2151 -0.2378  0.1383
28519W        W44653  16.465   5.267  12.830 -0.0930 -0.0135  0.1459
28520W        W44654  11.197  10.158  14.892 -0.1768 -0.1674 -0.0618
28521W        W44655   1.961  13.540  13.933  0.1235 -0.0724 -0.0165
28522W        W44656   4.902  10.029   3.569  0.0993  0.0595 -0.3358
28523W        W44657   8.502   2.243  15.582  0.2198 -0.0286  0.1608
28524W        W44658  17.676   5.986   2.907  0.1065 -0.1694 -0.1345
28525W        W44659   0.467  10.076  13.202 -0.0468 -0.0729  0.0949
28526W        W44660   5.893   8.345  15.813 -0.1541 -0.0547  0.1021
28527W        W44661   4.235  11.197  14.894 -0.3111  0.0539  0.1117
28528W        W44662   1.918   9.529   3.342  0.0730  0.0175  0.1469
28529W        W44663  14.372   8.259  13.874  0.1093  0.1038 -0.2214
28530W        W44664  13.428   7.021   1.980  0.0966  0.0021  0.0261
28531W        W44665   3.845   5.186   1.124  0.4209 -0.1326 -0.0993
28532W        W44666   0.506  10.831   3.361  0.1969  0.0152 -0.0567
28533W        W44667   2.949   8.564  15.433 -0.1385 -0.1445  0.2276
28534W        W44668  10.755   4.409   1.655 -0.0960 -0.4546  0.1639
28535W        W44669  12.640  15.831   4.476  0.1339  0.0092  0.2929
28536W        W44670   7.252   7.842   1.667 -0.0616 -0.1316  0.1201
28537W        W44671  16.567   6.081   1.575  0.0872 -0.2576 -0.1933
28538W        W44672   3.214  14.182  14.461  0.1863  0.1447 -0.0207
28539W        W44673  14.855   1.791  12.448  0.1038 -0.1054 -0.0976
28540W        W44674  12.414   9.956  12.948  0.0365  0.1384 -0.1357
28541W        W44675  17.389   2.239   2.119 -0.1518 -0.2015 -0.0897
28542W        W44676  14.305   1.177  11.343 -0.1654  0.2208  0.4026
28543W        W44677   0.144   2.611   2.668 -0.0821 -0.1321 -0.1228
28544W        W44678   9.507  11.392   2.559  0.0426  0.1095 -0.0698
28545W        W44679   4.413  16.651  12.337 -0.0328  0.0502 -0.0195
28546W        W44680  11.699   1.466   3.976 -0.5309 -0.0892 -0.2304
28547W        W44681  15.058   4.932   0.726 -0.2764  0.0496  0.0302
28548W        W44682   3.058  16.696   2.987 -0.2298  0.0923 -0.1488
28549W        W44683  10.689   8.135   2.138  0.1660  0.1365 -0.1892
28550W        W44684   1.721  16.424  16.349  0.1694  0.0829 -0.0807
28551W        W44685  15.686   3.847   2.353  0.3503  0.2913 -0.1997
28552W        W44686  10.692   4.161  15.580 -0.1952 -0.1377  0.2715
28553W        W44687   7.842   2.628   0.448 -0.0045 -0.2114 -0.2204
28554W        W44688   1.016   4.804  13.954 -0.1801 -0.3326 -0.0719
28555W        W44689   2.303   5.204  16.112  0.3136  0.1878  0.1317
28556W        W44690   7.976   1.798   3.616 -0.1605 -0.0082  0.1418
28557W        W44691  13.769  14.081   1.647 -0.2622  0.0761  0.1300
28558W        W44692   1.920   8.376   2.208 -0.0883  0.1281  0.0057
28559W        W44693   3.711   0.295  12.314  0.1056  0.2333 -0.1239
28560W        W44694   5.333   7.124  15.087  0.1079  0.0598  0.0468
28561W        W44695  14.312  17.524   1.195 -0.3432 -0.2658 -0.2104
28562W        W44696   2.136  14.216   6.353  0.1617  0.0381 -0.1611
28563W        W44697  12.768  13.836  12.398  0.0714  0.0874 -0.2281
28564W        W44698   0.739  15.231  13.826 -0.0633 -0.1891  0.2717
28565W        W44699   8.432   4.001  14.150  0.3042  0.0242  0.2909
28566W        W44700  15.406   8.414   2.896  0.1435  0.2383  0.1532
28567W        W44701  11.810   6.723  11.554  0.0262 -0.1323 -0.1476
28568W        W44702   3.494  16.465   2.665  0.0889  0.1941  0.1812
28569W        W44703  16.779   2.569  12.290  0.1238  0.2147 -0.0293
28570W        W44704  13.297  17.189  16.216  0.0356 -0.1335 -0.3173
28571W        W44705   3.339   2.430   5.325  0.0083  0.3176  0.3135
28572W        W44706  16.865   7.488   1.552 -0.0779 -0.0086  0.0463
28573W        W44707   7.891   1.539  16.597 -0.0694 -0.0562 -0.1637
28574W        W44708  14.219  14.300  14.734 -0.1342  0.0410 -0.1395
28575W        W44709   6.409   9.923   3.686  0.1923  0.4120  0.0130
28576W        W44710   1.286   4.878  11.202  0.0064  0.0489 -0.0396
28577W        W44711  15.718   8.637  11.521 -0.1707 -0.0621  0.3587
28578W        W44712   9.646   3.910  14.142  0.2675  0.0765  0.1089
28579W        W44713  17.451  13.932   5.543 -0.1910  0.0970 -0.0096
28580W        W44714  17.390   8.911   4.365  0.0860 -0.1320  0.0487
28581W        W44715  13.961  13.587   0.843 -0.1017  0.2203  0.3304
28582W        W44716   0.270  14.778   0.008  0.0578 -0.0321 -0.0889
28583W        W44717  11.708  17.551  13.374 -0.1832 -0.0296 -0.1877
28584W        W44718   7.840  13.631   4.886  0.0344 -0.0712  0.5132
28585W        W44719   6.107   3.467  16.060  0.0299  0.0153  0.1731
28586W        W44720   5.748   4.610  15.808  0.0068 -0.3909  0.0536
28587W        W44721  10.684   1.347   6.529  0.1673  0.1784 -0.1859
28588W        W44722  13.152   7.432   5.184  0.2349  0.0050 -0.0893
28589W        W44723   1.387  17.237   0.643  0.0555 -0.1724  0.0420
28590W        W44724   7.553  16.031  15.015 -0.1151 -0.3102  0.0811
28591W        W44725  16.073  16.003  12.963  0.1858  0.0576 -0.0170
28592W        W44726  15.709   7.446  15.794 -0.1388 -0.3213 -0.2085
28593W        W44727   7.205   7.275  15.960  0.1697  0.0518 -0.0413
28594W        W44728  15.570  12.041  15.435  0.2883 -0.0603 -0.0302
28595W        W44729  14.157  14.180  13.739 -0.1159  0.3278  0.3032
28596W        W44730  12.250   7.891  11.849 -0.1521 -0.1303  0.4009
28597W        W44731  11.221  12.274  15.522 -0.1051  0.1140 -0.0862
28598W        W44732   2.984  17.071  13.256  0.3766 -0.0370  0.3357
28599W        W44733   8.698   1.418   2.984  0.0902  0.1961 -0.1126
28600W        W44734   2.224   7.145  11.587  0.1607 -0.1101  0.0225
28601W        W44735  11.728  15.255   5.875 -0.0890 -0.1294 -0.0463
28602W        W44736   9.733   5.036   6.116 -0.0217 -0.1708 -0.0260
28603W        W44737  10.646   2.905   4.801 -0.3610  0.0953  0.1402
28604W        W44738  14.879   3.638  14.722  0.0224 -0.0953 -0.1374
28605W        W44739  11.676  14.656   0.318  0.0588  0.2584  0.1431
28606W        W44740   0.275   0.958   5.497 -0.0971  0.0623  0.3219
28607W        W44741   3.844   6.674   4.906  0.2352 -0.2171  0.0634
28608W        W44742   3.828  16.929  16.280  0.1865 -0.2589 -0.0614
28609W        W44743   2.976  15.902  15.974  0.0747  0.0843  0.1780
28610W        W44744   1.602   7.741   5.388  0.1564  0.1386 -0.1257
28611W        W44745   7.145   6.169   4.234  0.1614  0.2844 -0.0288
28612W        W44746  15.297   6.237  12.529  0.1686 -0.3214 -0.0131
28613W        W44747  12.405   1.733   4.501 -0.1854  0.0610  0.1556
28614W        W44748  10.494   1.846   3.899 -0.0093  0.0169 -0.2123
28615W        W44749  13.356   7.186  13.168 -0.1282 -0.1925 -0.3761
28616W        W44750   4.515  11.994  12.021  0.2092  0.0393 -0.0025
28617W        W44751  15.252   0.334  12.698  0.4519  0.0443 -0.0530
28618W        W44752   0.743  10.875   0.380 -0.1294 -0.1060  0.1041
28619W        W44753  12.983   6.624  15.552  0.0111 -0.3161 -0.1235
28620W        W44754   8.033   4.008  12.308  0.1969 -0.0470  0.1888
28621W        W44755   2.780  12.957   5.226  0.1038 -0.2965 -0.2678
28622W        W44756   5.396  16.053   3.488 -0.2054 -0.1820  0.3625
28623W        W44757  11.166   7.460  16.664 -0.0337  0.1569 -0.0043
28624W        W44758  16.809   4.039  12.734 -0.0110 -0.0936  0.1863
28625W        W44759  14.107   9.840   3.919  0.1883  0.1140  0.0788
28626W        W44760  10.699  14.987   4.088  0.0003  0.0419  0.0229
28627W        W44761   5.159  12.928  16.447  0.1122  0.2194  0.1182
28628W        W44762  16.379   2.919   4.203 -0.0771  0.0258 -0.0181
28629W        W44763   4.854  11.136   1.348 -0.1689  0.2305  0.1227
28630W        W44764   3.532   8.727   1.220  0.0283  0.2194  0.0697
28631W        W44765   7.377   3.666   4.118  0.0958 -0.2519 -0.2125
28632W        W44766   2.800   7.726   5.706  0.1126 -0.0528 -0.2475
28633W        W44767  14.536  13.817  15.661  0.1570  0.2888  0.0783
28634W        W44768   0.594   9.725   1.088 -0.0716 -0.0303 -0.1186
28635W        W44769   3.276  14.082   3.395 -0.0071  0.0158 -0.0808
28636W        W44770  10.969  16.256   1.151 -0.0496 -0.0601  0.1390
28637W        W44771  11.177   1.154  12.088  0.0330  0.0583 -0.1645
28638W        W44772  15.105   7.487  14.351  0.2846 -0.0443 -0.2603
28639W        W44773  12.925  15.413  12.759 -0.1818  0.3473  0.0826
28640W        W44774  17.408  13.540   2.455 -0.1473 -0.2432 -0.1669
28641W        W44775   0.889   0.483   2.949 -0.3236 -0.0268  0.0401
28642W        W44776   8.736   0.940   4.989  0.3055  0.0650 -0.1736
28643W        W44777   4.712  14.530   3.048 -0.0148  0.4344  0.0666
28644W        W44778  14.952  17.615  13.163  0.1681 -0.1684  0.2044
28645W        W44779   7.885   6.385   3.884  0.5527 -0.0210  0.0744
28646W        W44780   9.814   1.373  12.080 -0.2395 -0.2462  0.0874
28647W        W44781   7.001  15.666   1.998  0.0832  0.0162 -0.4116
28648W        W44782  14.210   1.797  15.285 -0.0915  0.3666 -0.0702
28649W        W44783   0.762  12.931  16.574 -0.0843 -0.0018 -0.2110
28650W        W44784  11.477  12.949   4.702 -0.0787  0.1062 -0.0776
28651W        W44785   1.423   6.583   5.716  0.1714  0.0570 -0.0506
28652W        W44786  13.020  11.391  13.418 -0.1592  0.1517  0.1725
28653W        W44787   4.664   3.533  13.815  0.3450  0.0674 -0.0500
28654W        W44788   3.091  13.746  14.168 -0.0933  0.3418  0.1214
28655W        W44789   2.718   4.468  16.154 -0.2411 -0.2294 -0.0621
28656W        W44790   5.385   7.385  16.596 -0.0600 -0.1809  0.5492
28657W        W44791  11.899   3.633  15.761 -0.2000 -0.3136 -0.0465
28658W        W44792  11.556   0.883  11.680  0.1264 -0.1126 -0.2723
28659W        W44793  13.471   6.049  16.389  0.3613 -0.3466 -0.0058
28660W        W44794   7.081  15.179  16.146 -0.1299 -0.0600  0.0233
28661W        W44795   9.337   5.316  11.755  0.3396  0.1652 -0.1627
28662W        W44796  17.335  10.692   0.850  0.1056 -0.0345 -0.2586
28663W        W44797  10.674   5.946   1.838 -0.0190 -0.2343  0.2733
28664W        W44798   0.850   0.741   0.758 -0.1231  0.2770 -0.1672
28665W        W44799   0.550  16.615  13.749 -0.1470 -0.0817 -0.0214
28666W        W44800   6.631   2.092   0.903  0.2086 -0.1039 -0.0917
28667W        W44801   0.737   8.309  13.161  0.2148  0.1361 -0.0414
28668W        W44802  14.986   0.190   1.183 -0.2104  0.3796 -0.0545
28669W        W44803   3.052   9.133  13.674  0.2829 -0.1527  0.2063
28670W        W44804   2.288   1.608   2.354 -0.2126  0.0706 -0.1502
28671W        W44805   4.513  15.478  15.647 -0.1372 -0.0437 -0.0371
28672W        W44806  15.684  10.665  13.019 -0.0459 -0.2546 -0.0152
28673W        W44807   8.384   0.821  14.925 -0.2384  0.0483 -0.1488
28674W        W44808  14.478   0.580  16.067 -0.1580 -0.2740  0.0071
28675W        W44809  10.460  17.032   1.625  0.1145 -0.0367  0.0618
28676W        W44810   2.813   3.132   3.582  0.1526  0.1166 -0.3006
28677W        W44811  17.261  12.846  14.355  0.0945  0.2698  0.0044
28678W        W44812   7.158   8.140  16.646 -0.2385 -0.0935  0.1127
28679W        W44813  17.291   4.022  13.939  0.0519  0.2800 -0.0655
28680W        W44814   4.312   4.510   0.240 -0.1600 -0.1675  0.1486
28681W        W44815  11.944   5.616  13.481 -0.3608  0.1598 -0.1609
28682W        W44816  17.875   7.559  12.599  0.0858  0.1916  0.2106
28683W        W44817  16.424  14.714  13.872  0.3261 -0.1121  0.2034
28684W        W44818   9.679  14.080  16.388 -0.0963 -0.1302  0.0390
28685W        W44819   0.810   0.811  16.035 -0.0002  0.2055 -0.4955
28686W        W44820   3.752  17.186  15.287 -0.2851  0.4823 -0.1275
28687W        W44821  11.083   8.848  13.087  0.2610 -0.2480  0.0034
28688W        W44822   7.597  14.314  11.430 -0.3116  0.0728 -0.0608
28689W        W44823   1.775  12.010   2.768  0.1650 -0.0396 -0.0278
28690W        W44824  10.912  16.485   2.413 -0.2176  0.7235 -0.0366
28691W        W44825   1.589   7.331  13.911  0.2740 -0.0311 -0.1498
28692W        W44826  14.041   0.234   4.178  0.2762 -0.1240 -0.1485
28693W        W44827   2.596  13.700   3.662 -0.0031  0.0639  0.1069
28694W        W44828   9.680   8.074   3.100  0.3499  0.1578  0.0255
28695W        W44829  10.142  15.308   2.895  0.1277 -0.0140  0.1968
28696W        W44830  12.927   2.846  14.273  0.0125 -0.2252  0.0817
28697W        W44831  14.662   8.112  14.302 -0.0841  0.2102 -0.0677
28698W        W44832   0.978  10.105   3.311 -0.1659  0.2429  0.2827
28699W        W44833   1.705  15.804  12.726 -0.1160 -0.1080  0.2391
28700W        W44834  12.762  14.605  14.508 -0.0632 -0.0636 -0.2061
28701W        W44835   4.969  17.619   1.999 -0.0147 -0.2152 -0.2892
28702W        W44836   1.225   5.795  11.381 -0.1071 -0.2994  0.0931
28703W        W44837   3.707  16.486  14.481 -0.0855  0.1789 -0.1740
28704W        W44838  13.635  12.778   4.698 -0.3861  0.1984 -0.0554
28705W        W44839  13.916  17.088  14.581  0.3117 -0.1072 -0.0687
28706W        W44840  17.279   3.800  15.861 -0.2751  0.4932  0.0350
28707W        W44841   9.372   8.396   4.029 -0.1625 -0.2849  0.0537
28708W        W44842   3.093  10.308   2.633 -0.2164 -0.0138 -0.0128
28709W        W44843  12.816   4.424   2.364 -0.1934  0.0123 -0.1593
28710W        W44844   5.822   1.586  14.386  0.3435 -0.0257  0.0556
28711W        W44845   4.198  10.298   1.432 -0.1657  0.1368 -0.2433
28712W        W44846   2.318  12.351  15.144 -0.0948  0.0692 -0.1845
28713W        W44847  13.244  10.719  11.464  0.2117  0.0325 -0.1003
28714W        W44848   3.167   1.957  11.476  0.4442 -0.0621 -0.1935
28715W        W44849   8.257  13.333  14.878  0.0993  0.2175  0.1016
28716W        W44850  15.910  13.178  11.858  0.3625 -0.2747  0.1724
28717W        W44851   6.998  16.258   2.235 -0.0371  0.2046 -0.1158
28718W        W44852   9.199  15.378  11.978  0.0079  0.1917  0.0300
28719W        W44853   6.433   6.011  13.195 -0.0099 -0.1039  0.0487
28720W        W44854  12.879   6.661  14.187  0.1525  0.1628  0.2210
28721W        W44855  10.187   6.671   4.250 -0.0648  0.0025  0.0065
28722W        W44856  14.963  13.918  15.398  0.3148  0.0099  0.2682
28723W        W44857   3.823  15.411  14.467  0.0582  0.2691  0.2362
28724W        W44858   5.132  17.802  16.236  0.1907  0.1475 -0.0148
28725W        W44859   0.162  15.981  15.757 -0.0275  0.1466 -0.0962
28726W        W44860   5.448   9.137   3.801 -0.3372 -0.4282  0.2370
28727W        W44861   1.580   6.508   0.699  0.0455  0.0719  0.0583
28728W        W44862   0.818   2.542   0.741  0.2457 -0.0494 -0.0289
28729W        W44863  15.743   3.489  12.290 -0.0591  0.3555  0.0662
28730W        W44864  11.666   0.680   1.443 -0.3545  0.1837  0.3020
28731W        W44865   7.429  15.545  14.398 -0.1126 -0.0044 -0.2733
28732W        W44866  15.431  10.961   0.522 -0.1030  0.3538 -0.2445
28733W        W44867  16.022  10.600  16.419 -0.2944 -0.1119 -0.1244
28734W        W44868  11.231   8.007   3.079  0.0096 -0.0567 -0.1026
28735W        W44869   0.086  14.137   3.847  0.1641  0.1529 -0.3308
28736W        W44870  14.666   2.020   5.150  0.1100  0.0638 -0.1552
28737W        W44871  11.764   8.766  13.246 -0.1768  0.2632  0.2211
28738W        W44872  10.945  12.966  13.731 -0.0470  0.0693  0.0609
28739W        W44873  15.552  14.798   5.235  0.1737 -0.0696  0.0136
28740W        W44874  13.436   9.603   2.922  0.2199 -0.0645 -0.0563
28741W        W44875   9.337  12.235  11.515 -0.0078  0.0613  0.2223
28742W        W44876  12.790   0.270  13.857  0.3329  0.3053 -0.0456
28743W        W44877   8.503   6.609  13.609  0.5570 -0.0924 -0.4360
28744W        W44878  15.215  15.094  15.188 -0.1920  0.0984  0.1407
28745W        W44879   4.027  12.485  16.656  0.0352  0.1068 -0.0576
28746W        W44880   7.251   3.216   4.559 -0.1319 -0.4103  0.0241
28747W        W44881  14.363  13.283  16.295 -0.0429 -0.2750  0.1646
28748W        W44882   8.151  11.091  10.583  0.1905 -0.0241  0.0995
28749W        W44883   2.941  17.744   4.960  0.0261 -0.0165  0.1341
28750W        W44884   9.813   7.688   2.172  0.3157 -0.2707 -0.4105
28751W        W44885   3.298  14.137  11.403  0.1666  0.1580 -0.0267
28752W        W44886  12.304   4.615  15.851 -0.0620 -0.1384  0.1789
28753W        W44887   3.142  15.109  15.956 -0.0363 -0.0241  0.0440
28754W        W44888  16.487  16.146  13.448 -0.0637  0.0880 -0.1440
28755W        W44889   0.800  11.846   0.975  0.0865 -0.0667  0.3095
28756W        W44890   3.300  10.783  13.494  0.3435 -0.1608 -0.0563
28757W        W44891   8.019   7.823  16.197 -0.1484  0.3817  0.1464
28758W        W44892  16.481  16.743   5.337 -0.1939 -0.3804  0.2500
28759W        W44893   4.970  10.212   0.953 -0.0716 -0.1213 -0.0340
28760W        W44894   8.445  16.649   5.008 -0.1147  0.1179  0.3670
28761W        W44895   9.852  17.803   1.399  0.2827 -0.0617  0.2572
28762W        W44896   0.297   8.146   5.183 -0.0415  0.2179 -0.1721
28763W        W44897  11.704   3.883  12.763 -0.1804  0.4157  0.0450
28764W        W44898  12.223  15.869   0.150 -0.1127  0.0952 -0.0647
28765W        W44899   7.231  12.719  13.023 -0.1539  0.1888  0.2299
28766W        W44900   6.017   9.094  12.485 -0.0038  0.1353  0.0777
28767W        W44901  12.417   4.294   2.079  0.0431 -0.1133 -0.0973
28768W        W44902  12.186   8.794  14.100 -0.1967 -0.1603 -0.3447
28769W        W44903   4.068   9.632   3.600 -0.0652 -0.0982 -0.3936
28770W        W44904  12.496   4.583   1.083 -0.0974 -0.0945 -0.0772
28771W        W44905  16.703  12.324   0.111  0.1172  0.1969  0.0748
28772W        W44906   2.383  14.448  11.816  0.0229  0.0204  0.0040
28773W        W44907  14.649  16.673  16.028 -0.1182  0.0659 -0.1153
28774W        W44908   3.450  17.197   3.034  0.1011 -0.0129  0.0684
28775W        W44909  10.791   0.247   0.458 -0.0671 -0.1940 -0.0307
28776W        W44910   5.773  13.236  15.638  0.0614  0.0087 -0.2701
28777W        W44911   8.989   7.049  11.520 -0.0608  0.1329  0.0659
28778W        W44912   4.207   7.225   0.594 -0.0809  0.1333 -0.1137
28779W        W44913   4.019   6.032  14.640 -0.1653  0.0139 -0.3256
28780W        W44914   1.431  14.996  15.144  0.3920 -0.2667 -0.1658
28781W        W44915  12.349  14.561   4.299  0.0090 -0.1831  0.0595
28782W        W44916   0.884  13.045  13.735 -0.0138  0.1287  0.2060
28783W        W44917  15.606   3.456   2.078 -0.1615 -0.0279  0.0566
28784W        W44918   6.994   9.890   4.619 -0.0155 -0.0663  0.2955
28785W        W44919  11.570  13.295   3.065  0.0151  0.0971 -0.4074
28786W        W44920  17.583   4.232  16.045  0.2571 -0.0840 -0.1092
28787W        W44921   7.959  11.687  14.979 -0.2225  0.0729  0.2685
28788W        W44922  14.477   0.935  12.188 -0.2177  0.2085 -0.0070
28789W        W44923   7.405   4.152   5.179 -0.0110 -0.3026 -0.2237
28790W        W44924   0.003  16.251   5.692  0.0539 -0.1805  0.0223
28791W        W44925   7.258   4.884   3.710 -0.0475 -0.0377  0.3022
28792W        W44926  12.324   9.450  16.248 -0.3428  0.0160  0.2202
28793W        W44927   2.755  15.576   5.451  0.0789 -0.0450  0.0530
28794W        W44928   5.032  16.657  14.224 -0.1786  0.2398 -0.0822
28795W        W44929   8.408  14.524   1.538 -0.1014 -0.1666 -0.0560
28796W        W44930  10.002   7.336  13.583  0.1306  0.0257 -0.1780
28797W        W44931  14.430  15.501   0.397 -0.1428  0.1473  0.2464
28798W        W44932  17.676   9.021   1.048  0.2466  0.3304 -0.1216
28799W        W44933   3.406   2.221  16.432 -0.4470 -0.0007  0.1503
28800W        W44934  10.260   9.098   2.294 -0.1464 -0.2249  0.0454
28801W        W44935   2.538   5.508  15.679  0.0651  0.0752 -0.0438
28802W        W44936   2.415   2.356   5.022 -0.1789 -0.0640 -0.4611
28803W        W44937   7.568   5.167  13.560 -0.2110 -0.1588  0.0555
28804W        W44938  12.304   9.247   1.231 -0.1975 -0.1797 -0.0971
28805W        W44939   7.535   4.577   4.918  0.2635  0.3740  0.0677
28806W        W44940   6.370   0.446  15.850 -0.0098  0.0646  0.3309
28807W        W44941   5.714   5.797   2.601  0.1762  0.0287 -0.2622
28808W        W44942   2.548  15.889   0.308 -0.1985 -0.0313 -0.0392
28809W        W44943  14.753   2.501  14.733 -0.2027  0.0143 -0.1050
28810W        W44944   6.447  17.563   5.607 -0.2420  0.1104 -0.1868
28811W        W44945   2.649   2.591   2.558 -0.0803 -0.0991 -0.0350
28812W        W44946  14.301  13.790  12.417 -0.1645 -0.0321 -0.0336
28813W        W44947  10.364  13.347  15.340 -0.1902 -0.1460  0.0973
28814W        W44948   9.907  15.553   3.824 -0.0747  0.3409  0.0175
28815W        W44949   6.412   7.245  12.771 -0.2730 -0.1305 -0.0934
28816W        W44950  13.390   7.635   0.732 -0.1924  0.0834  0.1624
28817W        W44951   1.220  10.801  15.792 -0.1437  0.0955 -0.2021
28818W        W44952  16.450   7.731  12.758 -0.1898  0.1050 -0.2446
28819W        W44953  15.043  17.627  11.894 -0.2512  0.1061  0.2314
28820W        W44954   7.864   8.631   0.537 -0.1126 -0.0781 -0.0425
28821W        W44955   4.961  10.534  12.706  0.0073 -0.3249  0.2051
28822W        W44956   6.221   2.362   0.950  0.0933 -0.2846  0.1552
28823W        W44957  11.226  11.343   4.321  0.2740  0.0868  0.1618
28824W        W44958   3.163  13.450  15.939 -0.0623  0.4600 -0.0205
28825W        W44959  14.580   6.893   0.788  0.0920 -0.0386 -0.0683
28826W        W44960   7.539  15.224   5.311 -0.1944 -0.1094 -0.0887
28827W        W44961   6.109  13.142  13.359  0.1016  0.2196  0.0363
28828W        W44962   2.231  17.419  12.324  0.3909  0.0374 -0.1038
28829W        W44963   8.585  10.644  14.275 -0.0632  0.0180  0.0004
28830W        W44964  12.915   8.211   2.509 -0.2502  0.2486  0.0886
28831W        W44965  11.358  17.702  14.144  0.0320  0.2435 -0.2666
28832W        W44966  15.464   7.240   1.682  0.0189  0.0650 -0.2627
28833W        W44967  17.702   5.718   5.279  0.3088 -0.3636 -0.0112
28834W        W44968  12.539  11.160  13.131 -0.2126 -0.0448  0.0259
28835W        W44969   5.658  12.761  15.537 -0.0449 -0.1208 -0.1663
28836W        W44970  10.659   1.406  15.028  0.0168 -0.0338 -0.0661
28837W        W44971   8.309  14.559  11.309  0.2522  0.0473 -0.2006
28838W        W44972  11.800  14.394   0.696  0.0167 -0.0322 -0.0519
28839W        W44973  12.023  13.478  12.853 -0.0839 -0.1618 -0.0245
28840W        W44974  10.003   7.233   3.442  0.1889  0.0334 -0.1244
28841W        W44975  11.384   2.754  13.604 -0.0360  0.0657 -0.0599
28842W        W44976   5.156   2.567   4.872  0.0602 -0.3171  0.2953
28843W        W44977  13.055  11.874  16.628  0.3314  0.1693 -0.1026
28844W        W44978   2.133   3.763   3.929 -0.0829  0.1634 -0.0423
28845W        W44979  14.645  11.089  13.457 -0.2069 -0.0976 -0.0003
28846W        W44980  16.075   6.427  11.910  0.1653  0.0119  0.1675
28847W        W44981  15.868   4.202   2.765  0.0307 -0.2322 -0.0048
28848W        W44982   3.948  17.504   0.893 -0.2885 -0.1761  0.2283
28849W        W44983   5.425   7.937  10.902  0.1447  0.0923 -0.0298
28850W        W44984  17.639  13.992   3.447 -0.3176  0.0380 -0.1439
28851W        W44985   3.457   8.822   3.751 -0.1074  0.2656  0.3566
28852W        W44986   7.172  17.921  16.592  0.3105 -0.0896 -0.0239
28853W        W44987   2.770  16.685   0.969  0.0593 -0.1191 -0.2719
28854W        W44988  16.126   2.718  14.878 -0.1843  0.0129  0.0049
28855W        W44989   3.568  10.312   2.710 -0.0334  0.2557 -0.1690
28856W        W44990   1.947   3.231  12.421 -0.0973 -0.0153 -0.0748
28857W        W44991   2.323  17.122  15.567  0.2371 -0.3352 -0.1754
28858W        W44992  15.492   3.044   5.017  0.0784  0.1456  0.0933
28859W        W44993   9.521   6.736  12.571 -0.1984 -0.2144 -0.0217
28860W        W44994  14.587   7.485   3.059 -0.2626 -0.4593 -0.0228
28861W        W44995   1.819  16.117  14.074 -0.0426 -0.1296  0.1959
28862W        W44996   5.832  17.836  16.637  0.1007  0.1310  0.0329
28863W        W44997   0.862  10.085  15.054  0.0899 -0.0561 -0.1838
28864W        W44998   8.242   6.677   4.778  0.1287 -0.0530  0.0174
28865W        W44999   3.516   8.048  13.022 -0.3091 -0.0904  0.0702
28866W        W45000   2.047   6.830   2.584  0.2347 -0.0383  0.0255
28867W        W45001  11.495  15.404  15.291  0.0741  0.3003  0.1279
28868W        W45002   8.602   0.421   4.981  0.0770  0.1143 -0.2471
28869W        W45003  11.635   0.748  15.269  0.1702 -0.2670  0.1317
28870W        W45004   8.162   7.189   3.123  0.0562 -0.0828  0.0260
28871W        W45005  16.152   9.251   3.590 -0.0593  0.1524 -0.0386
28872W        W45006   6.989   2.588   5.110  0.0908 -0.3854  0.3969
28873W        W45007   5.051   7.062   4.645 -0.0622 -0.1304  0.1813
28874W        W45008   7.908  11.097   2.800  0.0529  0.2384 -0.0624
28875W        W45009  11.045   3.363  11.605  0.1676 -0.1177 -0.1263
28876W        W45010   7.126  10.669  12.789  0.0073  0.0168 -0.0903
28877W        W45011   2.783  13.707  12.806  0.0556  0.2172  0.0236
28878W        W45012   0.006   7.829  15.278  0.2732 -0.1165  0.0972
28879W        W45013  14.291  14.885  15.283 -0.0629  0.0858 -0.2014
28880W        W45014  11.267   3.419  14.656 -0.0426  0.3043 -0.2124
28881W        W45015   2.447  11.235   5.554  0.0030 -0.4132  0.2615
28882W        W45016  15.300   1.234   3.323  0.2505 -0.0329 -0.1150
28883W        W45017  16.345   5.664   3.643  0.2598 -0.0590 -0.1708
28884W        W45018   0.630  15.971   1.637 -0.0809 -0.2722  0.0272
28885W        W45019   5.580   9.326  15.853  0.0029  0.0675 -0.0045
28886W        W45020  10.532  16.388  12.996 -0.2322 -0.2184 -0.0154
28887W        W45021  12.419  10.634  12.265 -0.0042 -0.2501  0.1977
28888W        W45022   8.522  13.476   1.714  0.2191 -0.2251 -0.2106
28889W        W45023  14.110  17.908   1.439 -0.2922 -0.1621 -0.0059
28890W        W45024   5.871   2.733  16.632 -0.3300 -0.1277 -0.2346
28891W        W45025  16.380  12.999   0.027  0.2442 -0.3596 -0.3419
28892W        W45026  17.246  16.628  13.059 -0.2400 -0.0831 -0.0696
28893W        W45027   0.426   2.916   0.894 -0.4801  0.1822  0.0016
28894W        W45028  16.526   9.218  14.353 -0.3211  0.0659  0.1040
28895W        W45029   7.754   5.487  14.247 -0.0963 -0.0866 -0.2143
28896W        W45030  15.336   9.835   4.235  0.0832 -0.0351 -0.0133
28897W        W45031  13.177  12.355   1.310 -0.1605  0.2470  0.1936
28898W        W45032  13.516   9.337   0.297 -0.0034 -0.0598 -0.1936
28899W        W45033   7.922  16.206   0.012  0.2353 -0.1331  0.0768
28900W        W45034  16.790  14.370   0.410  0.1461  0.0535 -0.2961
28901W        W45035   4.574  14.809   0.520  0.1544 -0.1539 -0.2269
28902W        W45036   4.636   7.384  16.643 -0.0162 -0.0814 -0.0623
28903W        W45037   6.156   6.289   4.679  0.0589 -0.1948 -0.1126
28904W        W45038   6.270   3.671  15.569  0.2326 -0.1713 -0.2386
28905W        W45039  12.386  17.879   5.279 -0.1400 -0.3134 -0.1444
28906W        W45040  13.697  11.305   0.544  0.3046  0.0481  0.0945
28907W        W45041   3.807   1.530  12.899 -0.2015 -0.0718  0.0378
28908W        W45042  15.101   1.822  15.271  0.1909 -0.0008 -0.0744
28909W        W45043   7.875  11.706  11.656  0.0649 -0.0634  0.3899
28910W        W45044   2.469   1.108  14.014 -0.0030 -0.1451 -0.0069
28911W        W45045  12.888  16.901  11.747 -0.0568 -0.0007 -0.1009
28912W        W45046  11.356  12.852   2.752 -0.2399  0.1953  0.1057
28913W        W45047  16.149   1.919   0.785  0.0445 -0.1036 -0.0211
28914W        W45048  17.894  16.876   3.106  0.3041 -0.1445  0.1039
28915W        W45049   9.713   1.655  14.049  0.1151  0.2423 -0.0790
28916W        W45050   7.421   6.288   3.853  0.6064  0.1012  0.0862
28917W        W45051   1.569  12.866  14.944 -0.0178  0.0445 -0.0363
28918W        W45052   8.781  16.195  11.515 -0.0431 -0.0505 -0.0065
28919W        W45053   7.872   7.183   2.696  0.0035  0.3641 -0.0666
28920W        W45054  15.115   7.276  13.885 -0.1574  0.1859 -0.1362
28921W        W45055   0.590   1.045   1.084  0.0591  0.1110  0.1768
28922W        W45056   1.413  13.046   1.072 -0.0453 -0.0576 -0.2288
28923W        W45057   3.987  13.470  13.642 -0.1180 -0.0345  0.1774
28924W        W45058   2.046  12.383   3.473  0.1219 -0.4522 -0.1542
28925W        W45059   3.852  14.176   0.636  0.0922 -0.2191  0.2602
28926W        W45060   5.478  10.181   2.829  0.1198  0.3373 -0.3565
28927W        W45061  13.886  10.572   5.684  0.2122  0.0379 -0.1040
28928W        W45062   5.683   3.560  11.444 -0.2728  0.1680 -0.1147
28929W        W45063  11.757  11.101   3.690  0.0145  0.0513  0.2306
28930W        W45064   3.927   7.101  16.082 -0.3769 -0.4732  0.0605
28931W        W45065  13.286   0.851   1.325  0.1144  0.0036 -0.0177
28932W        W45066   3.957  14.314   1.534 -0.2051  0.2657  0.1765
28933W        W45067  15.920   7.945   3.605 -0.1836 -0.3017  0.0384
28934W        W45068  10.048   5.176  14.199  0.0273 -0.1750  0.1965
28935W        W45069  17.506  11.629   2.715 -0.1118  0.1209  0.0438
28936W        W45070   6.958   7.733   2.641  0.1220  0.0296 -0.2197
28937W        W45071   2.667   3.150  14.791 -0.0710 -0.1498 -0.1235
28938W        W45072  14.667   1.008   1.521 -0.2349 -0.2291 -0.1699
28939W        W45073   1.071   5.623   0.821  0.2688  0.0460 -0.0561
28940W        W45074   5.841   3.137  13.392 -0.2866  0.0960  0.1585
28941W        W45075  14.795   0.912  11.797 -0.2405  0.1944 -0.1355
28942W        W45076  17.824  11.839   3.828 -0.1925 -0.1625 -0.0255
28943W        W45077  14.430  17.872  15.882  0.0933  0.0206 -0.0171
28944W        W45078   5.356   6.241   2.489 -0.2905  0.0621  0.0793
28945W        W45079  16.598   0.790  14.236  0.1896  0.1692  0.0996
28946W        W45080   6.428   3.946  11.434  0.2404  0.0419 -0.0227
28947W        W45081   0.718   5.127  11.844  0.0453 -0.0540  0.1099
28948W        W45082   4.124   2.752  11.689 -0.0785  0.1040  0.3373
28949W        W45083  11.252   8.010   3.600 -0.2412  0.0017 -0.4297
28950W        W45084   3.013   7.019   2.470  0.2346 -0.1341  0.1629
28951W        W45085   7.439   7.138   5.134  0.0926 -0.0238  0.0915
28952W        W45086   8.192   7.595  15.138  0.1227  0.1671  0.0156
28953W        W45087   3.010  17.886   3.611 -0.1962  0.1584  0.0075
28954W        W45088   0.584   7.957  14.083 -0.0836 -0.1284  0.3865
28955W        W45089   9.013   9.903  15.581 -0.0654 -0.4143 -0.0803
28956W        W45090   1.512   7.571  14.966 -0.2459 -0.2405 -0.0196
28957W        W45091   9.909   7.646   3.124  0.0043 -0.2914  0.2097
28958W        W45092  12.234   6.829   2.706 -0.1261 -0.0740  0.1945
28959W        W45093   9.915   1.102   3.629 -0.1789  0.2563 -0.1151
28960W        W45094  14.243  12.486  13.121  0.0890  0.0466 -0.0560
28961W        W45095   5.788  12.792   0.927  0.2627 -0.1575 -0.0890
28962W        W45096   5.079   9.028   3.539 -0.1794  0.1321  0.1210
28963W        W45097   9.918  12.563   0.916  0.1086 -0.0664  0.2715
28964W        W45098   9.514  17.047   1.842 -0.0550  0.0551  0.0346
28965W        W45099   4.374   1.175   4.207  0.1692 -0.2969  0.2124
28966W        W45100  14.353  13.659  16.645 -0.1180  0.0160 -0.2358
28967W        W45101  14.220   7.651  12.927 -0.2890 -0.3488 -0.0773
28968W        W45102  11.071   8.315  12.848  0.3732  0.0909  0.2801
28969W        W45103  15.330  10.786   3.545 -0.0521  0.1582 -0.2796
28970W        W45104  15.013  13.045  15.571  0.0083  0.2003  0.2191
28971W        W45105  17.934   5.185   3.266  0.2904  0.1133 -0.0707
28972W        W45106  15.473   7.905  14.019 -0.1130  0.1240 -0.2348
28973W        W45107   9.156   0.765  16.564  0.0147 -0.0652 -0.1293
28974W        W45108  10.095   8.895   4.485 -0.1039  0.0134  0.1439
28975W        W45109   2.429  13.773   1.945  0.2194 -0.0856  0.2144
28976W        W45110   8.487   0.668   3.155 -0.0676  0.0823 -0.2231
28977W        W45111   4.528   0.762  11.401 -0.3479 -0.0300  0.0412
28978W        W45112   7.887   6.582   1.769  0.2682  0.2504  0.2460
28979W        W45113  14.459  17.055   1.367 -0.0404 -0.1084  0.0725
28980W        W45114  14.422  17.570   4.543 -0.1267  0.1621  0.2152
28981W        W45115   1.915  15.918   0.446 -0.1938 -0.1597  0.3453
28982W        W45116   5.914  11.131   1.373 -0.3223  0.0454 -0.2499
28983W        W45117  17.729  17.622  15.070  0.0635 -0.1270  0.3686
28984W        W45118  13.736   7.741   2.787 -0.0876  0.1580  0.0558
28985W        W45119   7.006  16.664   5.064 -0.1660  0.0147 -0.0614
28986W        W45120   9.371   3.418   1.946 -0.3857 -0.0770 -0.0287
28987W        W45121  13.183   9.142  14.811 -0.1126 -0.0417  0.1057
28988W        W45122   0.597   8.936  16.437  0.0130 -0.0117 -0.4204
28989W        W45123   1.848  12.779  13.318 -0.2432 -0.0940  0.1817
28990W        W45124   3.650  15.073   1.274 -0.2853  0.1023 -0.1400
28991W        W45125   4.640   3.976   1.355  0.0054  0.0376  0.2334
28992W        W45126   4.526  14.011   5.249  0.1481  0.0587 -0.0959
28993W        W45127   2.982   9.121   0.898  0.1452  0.0780  0.2142
28994W        W45128  12.945  14.510  13.066  0.0360  0.0176  0.3036
28995W        W45129  17.861  17.749  10.532  0.3789 -0.0784  0.2346
28996W        W45130   3.139   9.896   2.190 -0.0302  0.0708  0.1230
28997W        W45131   4.526   3.230  15.562  0.1956 -0.1975  0.1388
28998W        W45132   4.783   2.463  16.426  0.1592 -0.2754 -0.1443
28999W        W45133   1.265  11.304  13.203 -0.1826  0.0858  0.0135
29000W        W45134   0.051   9.056  15.572 -0.0559  0.1228 -0.0539
29001W        W45135   2.139  14.146   1.616  0.4362 -0.1940 -0.0428
29002W        W45136  10.681  16.672   5.071 -0.2167  0.0153 -0.5206
29003W        W45137  16.322  10.108  15.523 -0.2748 -0.0244  0.0568
29004W        W45138  11.262   9.005  14.516  0.2651  0.3355 -0.2836
29005W        W45139   0.686   7.143   1.786  0.0080 -0.0415  0.0276
29006W        W45140   5.669  17.174   2.990 -0.1093 -0.2503  0.2031
29007W        W45141  16.488   7.443  13.550 -0.0391  0.1985 -0.0111
29008W        W45142  17.890   6.701   1.473 -0.0973  0.0229 -0.0370
29009W        W45143   0.297   7.226  14.038  0.1646  0.0047 -0.1300
29010W        W45144  12.609  12.943   4.349 -0.0709 -0.3351 -0.0652
29011W        W45145  17.366  14.981   3.806  0.0378 -0.0167 -0.0144
29012W        W45146  15.768   9.599  14.119  0.2169  0.0231 -0.1081
29013W        W45147   9.229   8.636  12.615 -0.0377  0.2605  0.0311
29014W        W45148  14.046   1.981  12.198 -0.0409 -0.0240  0.0799
29015W        W45149   1.304   6.771   3.067  0.4306 -0.1094 -0.0758
29016W        W45150   0.724  16.777  12.858  0.1319 -0.1124  0.2252
29017W        W45151   5.616  16.501  11.081  0.5307 -0.1453  0.0963
29018W        W45152  16.883   3.561  16.571  0.0661  0.0166  0.1260
29019W        W45153  17.518  17.665   3.601  0.2735  0.1855 -0.1042
29020W        W45154   4.496  15.158   3.865  0.0700 -0.0177  0.2323
29021W        W45155  16.385  11.152   0.273  0.1136  0.0681  0.0774
29022W        W45156   2.566  12.002   1.051 -0.0334  0.1737 -0.0605
29023W        W45157   5.346   5.157  12.297 -0.4121 -0.0331  0.0987
29024W        W45158  12.137   6.445  11.832 -0.0647  0.1165  0.2225
29025W        W45159   1.674  11.541  13.144 -0.0319  0.0465  0.1316
29026W        W45160  11.076  13.593   5.107 -0.2410  0.0421  0.2014
29027W        W45161   4.862   4.526   5.069 -0.0758  0.3670  0.0452
29028W        W45162   8.697  16.772  14.393 -0.0399 -0.1992  0.2700
29029W        W45163   7.703   7.060   0.463  0.1229  0.0122  0.1036
29030W        W45164   1.622   5.570  14.479 -0.2126 -0.2666  0.4068
29031W        W45165   3.777   5.262  16.455  0.2105 -0.0707 -0.0268
29032W        W45166   5.696   8.339   2.379  0.0591  0.2041 -0.0232
29033W        W45167  14.694   0.725   2.022 -0.2377  0.0265  0.1642
29034W        W45168   1.057  13.644   4.562  0.2523  0.0412  0.1698
29035W        W45169   1.187   3.073  12.830  0.0147 -0.1809  0.2245
29036W        W45170   8.982   3.688   0.583 -0.2838 -0.0656  0.0024
29037W        W45171  14.436  11.541   4.831  0.2444  0.1319 -0.2182
29038W        W45172   5.075  17.213   1.336  0.1108 -0.2167 -0.0587
29039W        W45173   9.034  14.156   3.007 -0.2264 -0.1697  0.2026
29040W        W45174  15.284  14.437   1.856  0.3623  0.0499 -0.0800
29041W        W45175  16.186   0.767  14.525  0.2535  0.0449 -0.1709
29042W        W45176   8.372  13.975   1.998  0.0382 -0.4148 -0.1165
29043W        W45177  14.908  13.070  12.113 -0.1735  0.0466 -0.0627
29044W        W45178  10.989   1.073  14.208  0.2148 -0.0734  0.4046
29045W        W45179  15.434   4.287  15.366 -0.2735  0.0643 -0.0511
29046W        W45180  11.760  16.349   4.568  0.0337  0.2428  0.1239
29047W        W45181   8.130  15.688   1.710  0.2244  0.0507 -0.1845
29048W        W45182   9.552   8.661   0.260 -0.0650 -0.0650 -0.4965
29049W        W45183   9.265  10.149   2.777  0.3241 -0.0560  0.0506
29050W        W45184   5.446   3.720   0.468  0.0528 -0.0378  0.0445
29051W        W45185  12.284  10.157  15.094  0.1755  0.0855 -0.2021
29052W        W45186   1.694  13.528  13.517  0.0443  0.1941  0.1204
29053W        W45187   2.711  14.940   0.996  0.0434  0.0627 -0.0731
29054W        W45188   0.466  10.688  11.863  0.2024 -0.1031 -0.2956
29055W        W45189  14.267   5.411   2.239 -0.0737 -0.0234 -0.1755
29056W        W45190  16.373   0.369   2.211  0.2067  0.0865 -0.1740
29057W        W45191   2.808  14.233   2.160  0.1556  0.0761  0.1353
29058W        W45192   2.352   6.850   4.394 -0.0467  0.1452 -0.1028
29059W        W45193   1.867   3.876  14.683 -0.0613 -0.2194  0.2668
29060W        W45194   7.269  16.644   0.578 -0.1370 -0.1469  0.2199
29061W        W45195  13.621   3.754   2.241 -0.1667  0.0544  0.0528
29062W        W45196  14.773  17.920   4.636  0.1475 -0.2559  0.0079
29063W        W45197   5.199   7.232  16.097  0.1035  0.0901  0.1080
29064W        W45198   1.716  11.362   0.991  0.2487  0.2069 -0.1550
29065W        W45199   5.007  14.327   1.395 -0.1315  0.1100 -0.0633
29066W        W45200   2.073  10.322  13.179 -0.0657  0.0218  0.0354
29067W        W45201  12.325  16.996  13.868  0.0240 -0.0807 -0.1925
29068W        W45202  15.619  11.929   1.547  0.0014 -0.1107 -0.1131
29069W        W45203   3.611  13.791  12.040 -0.0617  0.1887 -0.2646
29070W        W45204  15.734   1.592  10.575  0.3268 -0.0171 -0.1695
29071W        W45205  15.112  15.891  12.903  0.4343  0.0507 -0.1571
29072W        W45206   5.713  10.952  16.701  0.2905 -0.1024 -0.4432
29073W        W45207   4.598  11.861   1.793 -0.0319  0.0246 -0.1296
29074W        W45208  16.780  15.124   0.848 -0.0056  0.2273  0.0968
29075W        W45209  15.559  13.918  14.696 -0.0378 -0.0335  0.1496
29076W        W45210   5.676   2.694  16.115 -0.1404  0.1515 -0.2138
29077W        W45211  10.936   5.051   3.337 -0.1106  0.0955 -0.3262
29078W        W45212  13.832  16.223   5.900  0.2784 -0.0258  0.3197
29079W        W45213   8.773  11.554  11.752 -0.0845 -0.0668  0.0706
29080W        W45214  10.140   8.361  14.632  0.0190  0.1531  0.1082
29081W        W45215  10.271   7.080   3.826  0.0820 -0.1421 -0.1041
29082W        W45216   8.103  12.658   4.882  0.0174 -0.0006  0.0541
29083W        W45217   2.989  16.151   0.234 -0.0709  0.2038  0.2114
29084W        W45218   8.005   1.213  14.804  0.2231 -0.2497 -0.0821
29085W        W45219  16.754  13.722  16.500 -0.0963 -0.2567  0.0249
29086W        W45220  16.870  12.967   2.099 -0.3163  0.1324  0.0492
29087W        W45221  15.684   8.307   4.401  0.0894 -0.0969  0.0014
29088W        W45222   7.281   8.661  16.405 -0.0482  0.0766 -0.1929
29089W        W45223   2.427   2.541   2.111 -0.0349 -0.1314  0.0496
29090W        W45224  12.270   8.171   4.200 -0.1498 -0.0706  0.3640
29091W        W45225   1.905   8.835   2.552 -0.3426 -0.0777  0.1932
29092W        W45226   0.066   8.717   2.627 -0.2332  0.2563 -0.0200
29093W        W45227   8.022  13.260   2.929  0.0401  0.1279 -0.1673
29094W        W45228   0.107   6.062  12.147  0.0936 -0.0239  0.0875
29095W        W45229   2.307  14.062   5.789 -0.0099  0.0845 -0.0087
29096W        W45230   0.263   5.237  12.528 -0.1049 -0.0585 -0.0681
29097W        W45231   5.757  11.953   1.880  0.1478 -0.1865 -0.2433
29098W        W45232  17.637   7.758   3.037 -0.3081 -0.1297 -0.0704
29099W        W45233  15.879   2.945  12.815 -0.1988 -0.0089 -0.0793
29100W        W45234  12.788   9.476  15.906  0.0736 -0.2677  0.0728
29101W        W45235  11.034   7.126   3.467 -0.0329 -0.0061  0.2424
29102W        W45236  14.447  14.448   0.863  0.2232  0.0397  0.2352
29103W        W45237  13.464   7.549   3.810 -0.1006  0.1229  0.2426
29104W        W45238  10.971   4.895   2.645  0.3307 -0.4669  0.0373
29105W        W45239  15.208   0.288  11.185 -0.2545 -0.1166  0.2175
29106W        W45240   6.489  14.087   1.883 -0.1400 -0.2945  0.1342
29107W        W45241  10.823  17.024  16.034  0.0580 -0.0295  0.0138
29108W        W45242   5.293   1.159  12.615 -0.3413 -0.1439  0.0438
29109W        W45243   3.614   7.059  11.018  0.0477  0.0307  0.1672
29110W        W45244  12.728  12.463   4.545  0.0119 -0.1074  0.2494
29111W        W45245   8.502   1.126  11.752  0.1010 -0.0123  0.0534
29112W        W45246   2.368  14.589  16.071  0.1023  0.1651 -0.0222
29113W        W45247   5.239   2.956  16.052 -0.0861  0.0116 -0.0056
29114W        W45248   2.792  10.277  15.316  0.0045 -0.1068 -0.2225
29115W        W45249  10.971  17.858  16.516 -0.1000  0.1014 -0.0686
29116W        W45250   9.990   8.552  13.812  0.0295  0.2979  0.1254
29117W        W45251  16.185   7.240   2.333  0.2035 -0.0787 -0.0552
29118W        W45252   1.996   3.918   1.996 -0.1265  0.1605  0.0291
29119W        W45253  12.912  13.314   4.925 -0.4773 -0.1738 -0.2893
29120W        W45254  14.089  13.671   0.384 -0.0486  0.0324  0.0910
29121W        W45255   5.052   0.344   5.158  0.0784  0.2178  0.1570
29122W        W45256   3.920   4.281   4.715  0.2405  0.0302  0.0443
29123W        W45257   3.949   4.399  16.403 -0.3622  0.1052  0.1998
29124W        W45258   7.002  13.035  11.506  0.0242  0.1205  0.1098
29125W        W45259  17.570   4.296   2.879  0.0715 -0.1008 -0.3131
29126W        W45260  10.937  11.645  12.336  0.0221 -0.1366  0.0526
29127W        W45261  16.646   1.544  11.796  0.4020  0.0699  0.2801
29128W        W45262   7.958   3.956  16.109 -0.0640 -0.1367 -0.1491
29129W        W45263   9.258  10.398  14.123 -0.2772 -0.0861  0.0490
29130W        W45264  10.581   3.399   3.245  0.1054 -0.2492  0.4856
29131W        W45265  16.168   2.639   5.565 -0.0240 -0.1505  0.1977
29132W        W45266  12.757  10.614   4.696 -0.2520 -0.0773 -0.0782
29133W        W45267  11.355   5.475   4.832  0.1631 -0.0916  0.0784
29134W        W45268  17.872   8.074   2.687  0.0461 -0.2191  0.0525
29135W        W45269   8.811   9.975  10.656 -0.0428 -0.2765  0.0336
29136W        W45270   4.135   5.580  13.896  0.0723 -0.1368  0.1307
29137W        W45271   9.310   1.655   4.520 -0.0378  0.2530  0.1381
29138W        W45272   7.362  13.692   2.761 -0.0327  0.0425 -0.0492
29139W        W45273   3.269  10.204  15.464  0.1478 -0.0124  0.3962
29140W        W45274   0.264   4.081   0.540  0.0511  0.0139 -0.0623
29141W        W45275  15.868   9.431   3.993 -0.2311 -0.0217 -0.1393
29142W        W45276  15.518  12.130  12.630 -0.0872 -0.0291  0.1387
29143W        W45277   9.069   0.364   0.677 -0.0588 -0.1882 -0.1585
29144W        W45278  11.891  11.769  11.316 -0.0153 -0.0746 -0.1076
29145W        W45279   0.170   9.140  16.523  0.3378  0.2380 -0.2010
29146W        W45280   5.034   2.294   5.841 -0.0204  0.1310  0.1023
29147W        W45281  14.658   1.052  16.373  0.0976 -0.0573  0.1368
29148W        W45282  11.758   1.044   2.223  0.1619  0.1993  0.0694
29149W        W45283  10.736   3.158  13.368  0.1044  0.3033 -0.3172
29150W        W45284   5.806   6.371  12.644 -0.2486 -0.0871  0.0139
29151W        W45285   8.314   0.355   4.500 -0.2082 -0.1865  0.1640
29152W        W45286  15.097  11.210   0.872  0.2175  0.1209 -0.0115
29153W        W45287  10.669   0.942  13.874  0.0086  0.0117 -0.0732
29154W        W45288   1.762   4.117   3.999 -0.1117  0.0765 -0.1585
29155W        W45289   3.672   5.958   4.228 -0.0447 -0.1429  0.1815
29156W        W45290   8.466  15.929   2.757  0.0077 -0.1428  0.0173
29157W        W45291   8.204   2.184   5.027  0.2287 -0.1453  0.1244
29158W        W45292   8.764   9.480   2.572  0.2253 -0.0724 -0.0999
29159W        W45293   0.687   5.024   0.268 -0.0569 -0.2334 -0.0054
29160W        W45294  13.135  16.717  12.121  0.1770  0.1176  0.0423
29161W        W45295   9.489   4.596  11.572 -0.3147 -0.1391 -0.1247
29162W        W45296  13.525   5.063   0.163  0.1500 -0.0283  0.0351
29163W        W45297   9.692  16.058   1.155 -0.1567 -0.1479 -0.3135
29164W        W45298   6.821   0.961   1.348  0.1164 -0.0649 -0.3548
29165W        W45299   1.502   6.087  14.552 -0.4178 -0.0937  0.3622
29166W        W45300  12.297  12.701   0.384 -0.0638  0.1168 -0.2190
29167W        W45301  12.471   1.682  16.439  0.1498  0.0702  0.1505
29168W        W45302  12.270  10.863   2.119  0.1020  0.2529  0.1882
29169W        W45303   1.098   7.099   2.137  0.1282  0.1359 -0.0248
29170W        W45304   5.127   0.945   2.491  0.1548  0.3451  0.0225
29171W        W45305   0.888  11.216  14.642 -0.1302 -0.1512 -0.2043
29172W        W45306   7.575  12.877   4.716 -0.0864  0.1504  0.0747
29173W        W45307   7.310   9.324  13.841 -0.0398  0.1080  0.1603
29174W        W45308   1.386   4.506  14.192  0.1250 -0.1528 -0.0339
29175W        W45309   9.562  10.412  11.877 -0.2052  0.0858 -0.2002
29176W        W45310   2.021  15.297   4.902 -0.3195  0.0561 -0.1195
29177W        W45311   9.981  11.589  11.666 -0.2819 -0.0726 -0.0940
29178W        W45312   7.591   7.546   1.355 -0.0743  0.3942  0.2692
29179W        W45313  16.878   2.600  16.000 -0.2870  0.1836 -0.1956
29180W        W45314  15.379   9.115   5.879 -0.2496 -0.0617 -0.0605
29181W        W45315   0.448  13.531  15.846  0.1258 -0.0785  0.1482
29182W        W45316  14.744   3.794  16.591  0.1158  0.0386  0.2095
29183W        W45317  17.467   1.392   2.372 -0.1348 -0.3855  0.1715
29184W        W45318  15.373  16.013   5.627 -0.0313 -0.1479  0.2629
29185W        W45319  12.822  10.019   1.725 -0.2730  0.3443 -0.0955
29186W        W45320  12.027  14.900   4.777  0.1597 -0.3032 -0.1216
29187W        W45321   2.207   5.982  12.126 -0.0726  0.3164  0.0417
29188W        W45322  13.331   8.659   2.617  0.2938 -0.1144  0.0217
29189W        W45323   4.881  12.278   4.131 -0.2557  0.0068 -0.2460
29190W        W45324  15.990   9.507   0.331  0.2420  0.0622  0.2061
29191W        W45325  14.215  14.349  14.229 -0.0127 -0.1766  0.0931
29192W        W45326   8.802  12.500   4.002  0.0020  0.1910 -0.2423
29193W        W45327  12.367   9.390   4.580  0.0780 -0.1043  0.0435
29194W        W45328   1.124   4.857  11.751  0.3614  0.1466  0.0268
29195W        W45329  15.250  13.088  12.524 -0.3487  0.0164  0.3777
29196W        W45330   3.780   1.183   0.839 -0.2383  0.0314 -0.0743
29197W        W45331  17.297   5.708   3.623 -0.0507 -0.1119 -0.3841
29198W        W45332   9.933  14.160   3.116  0.0230  0.2396  0.2037
29199W        W45333   2.347  16.739  15.153 -0.2588  0.2453 -0.0143
29200W        W45334   2.965   4.849  15.775 -0.0398  0.1313 -0.0226
29201W        W45335   7.427  11.665  16.658  0.0947  0.0714  0.1267
29202W        W45336  10.552   4.998  12.324  0.0345  0.0498 -0.1378
29203W        W45337   2.666  12.354   2.885  0.1027 -0.0258 -0.1118
29204W        W45338   7.929  13.590   4.370  0.2641  0.1133  0.1590
29205W        W45339  12.208   9.077   0.370  0.2513  0.2846 -0.2096
29206W        W45340   1.817  16.269   0.874  0.0271 -0.0485  0.1557
29207W        W45341   7.418  17.711   0.823 -0.1632 -0.0989 -0.3995
29208W        W45342   8.724   1.439   5.634  0.1074 -0.0585  0.0033
29209W        W45343  15.700  14.208   5.827 -0.2040 -0.0739 -0.1043
29210W        W45344  16.329  12.392  12.976 -0.3438 -0.0414 -0.2891
29211W        W45345   9.873  13.483  11.787  0.2296  0.0415  0.4146
29212W        W45346  17.560  10.544  11.925  0.2114  0.1693 -0.1036
29213W        W45347  14.047   4.790  13.385  0.2942  0.1334  0.0273
29214W        W45348  17.886   1.982   4.704 -0.4784 -0.2996 -0.0922
29215W        W45349   4.226   4.960   0.873 -0.1605 -0.0432 -0.0179
29216W        W45350   8.621   5.126   0.259 -0.0565 -0.2342 -0.0002
29217W        W45351  14.964   7.697  15.307  0.2065  0.0924  0.1335
29218W        W45352   6.194  14.615  15.981 -0.0599 -0.1787 -0.0376
29219W        W45353   4.183  10.512  16.262 -0.3232 -0.2270  0.3315
29220W        W45354   2.425  11.082   6.070  0.0247  0.3287  0.0205
29221W        W45355   1.578  13.136   2.879 -0.1208  0.2415  0.0354
29222W        W45356   7.737  14.252  13.957 -0.0924  0.0753  0.1686
29223W        W45357  12.389  15.636   1.121  0.0298 -0.1472  0.2146
29224W        W45358  14.925   0.307  13.120 -0.1003  0.0046 -0.2104
29225W        W45359  15.542   8.349  14.190  0.2068  0.1053  0.0849
29226W        W45360   4.822   6.546  11.484  0.1791 -0.1123 -0.0341
29227W        W45361   7.694  16.936   0.729  0.0592  0.0444  0.0014
29228W        W45362   7.153   1.898  11.860 -0.1356  0.0242  0.1145
29229W        W45363  12.388  10.931  15.568 -0.0042 -0.0925 -0.1968
29230W        W45364   6.116   5.409  15.240  0.0500  0.1134 -0.1989
29231W        W45365   6.102  12.187   2.390  0.1146  0.2667  0.0542
29232W        W45366  15.354  14.494   5.562 -0.1330  0.3544 -0.0962
29233W        W45367  13.405   7.719  16.265  0.0685  0.0596 -0.2739
29234W        W45368  15.344  11.272   4.477  0.0248  0.0827  0.0194
29235W        W45369  11.001   1.220   0.836 -0.2002 -0.0406  0.0725
29236W        W45370  17.570   8.323   3.019 -0.0037 -0.2525 -0.0539
29237W        W45371  12.577   6.785   1.375 -0.1302 -0.1382 -0.0868
29238W        W45372  16.945  11.485  16.276 -0.0471 -0.2983 -0.3834
29239W        W45373   5.048  10.297   2.543  0.4811  0.3228  0.1963
29240W        W45374   7.028  17.952   4.523  0.1380 -0.3523 -0.2323
29241W        W45375  13.023   0.887  15.168  0.0200  0.4876  0.0571
29242W        W45376   0.614   1.254  11.306  0.0839 -0.0057 -0.0118
29243W        W45377  10.383   5.935  14.527 -0.2113  0.2705 -0.1291
29244W        W45378  14.455   7.603  13.397  0.1304 -0.0007  0.1225
29245W        W45379  12.259   4.194   1.494  0.2052  0.0220 -0.0185
29246W        W45380   7.687  17.438  15.250  0.0879  0.0218 -0.0979
29247W        W45381   8.682   4.658   3.660 -0.2227  0.1246 -0.0148
29248W        W45382  15.597  14.136   5.334 -0.1770  0.1589 -0.4673
29249W        W45383   5.519   6.829  11.873 -0.0368 -0.1087 -0.3626
29250W        W45384   9.629  11.392   6.405 -0.1562 -0.2611 -0.0170
29251W        W45385   5.415   2.579   3.284 -0.2109  0.2152 -0.2972
29252W        W45386   5.193   7.892   0.248  0.1201 -0.0149  0.2450
29253W        W45387   3.553  17.808   4.265  0.4163  0.2332  0.2908
29254W        W45388  10.575  17.678   3.937  0.1673 -0.1482  0.1196
29255W        W45389  11.374  17.358   0.513  0.1253  0.1980 -0.1179
29256W        W45390  11.060   8.771  16.067 -0.1862 -0.0422  0.0675
29257W        W45391   3.965   3.005  16.239  0.0273  0.0070 -0.0001
29258W        W45392  13.289  17.901  14.944 -0.0800  0.3019 -0.1094
29259W        W45393   5.377   2.788  14.757  0.0804 -0.3812 -0.0238
29260W        W45394   5.878  10.298   4.890 -0.2234 -0.1643 -0.0104
29261W        W45395   0.664  13.623   2.073  0.0859 -0.0197 -0.4357
29262W        W45396  10.989  11.769   3.565 -0.2898  0.4914  0.0825
29263W        W45397   0.667  10.567  12.898  0.0466 -0.1480 -0.1375
29264W        W45398  14.502   2.142  12.317 -0.0060 -0.0032 -0.0409
29265W        W45399  16.525   4.687  11.063 -0.0903  0.1635 -0.1264
29266W        W45400   8.720  12.921   1.729 -0.3008  0.2075 -0.3895
29267W        W45401   8.841  10.550  13.346  0.2981 -0.1304  0.0402
29268W        W45402   8.625   8.263  16.326 -0.0854  0.0918 -0.1663
29269W        W45403  11.160  16.921   2.883  0.2210 -0.2918  0.2181
29270W        W45404  10.383   9.975   0.661  0.0746  0.1965 -0.1162
29271W        W45405   4.704  17.653   5.054 -0.0829 -0.4174  0.0823
29272W        W45406  12.880   3.543   5.136 -0.0454 -0.0880  0.1877
29273W        W45407  17.375  11.570  15.541  0.0915  0.0942  0.1854
29274W        W45408  12.222   9.680  13.301 -0.1516  0.1267 -0.1703
29275W        W45409   0.005   6.654  12.270  0.3106 -0.0898  0.1180
29276W        W45410  10.987   3.879   5.190 -0.4291  0.0847  0.0662
29277W        W45411  15.946  11.200  14.366  0.1049 -0.0280 -0.0899
29278W        W45412  16.885  10.372  13.742  0.3485  0.0340 -0.0157
29279W        W45413  12.878   3.675  16.168 -0.1731  0.0018 -0.1695
29280W        W45414   7.416   6.724   4.919  0.0890  0.2710 -0.0947
29281W        W45415   3.006   8.527  14.272 -0.1975 -0.0262  0.1850
29282W        W45416   1.908  15.464   1.584  0.1886 -0.2145  0.1709
29283W        W45417   5.741   0.453   0.887  0.3917 -0.1016  0.2611
29284W        W45418  11.508  13.966  13.887  0.0657 -0.1791  0.4358
29285W        W45419   3.814   5.122   4.360 -0.1628  0.1647  0.1378
29286W        W45420  12.452  16.237  14.474  0.0535 -0.0726  0.2440
29287W        W45421  13.414  11.858  13.749 -0.0086 -0.1294 -0.0600
29288W        W45422   6.542  16.526   3.832  0.1640 -0.0562  0.0379
29289W        W45423   2.609  10.123   3.039 -0.0822 -0.0348  0.1706
29290W        W45424   6.710  14.197  11.926 -0.0084  0.4661  0.1386
29291W        W45425   0.903  10.793   0.813  0.0316 -0.1388  0.2734
29292W        W45426  17.751   7.347   3.953  0.0875  0.2937 -0.2188
29293W        W45427  13.326   3.058   1.569  0.0712  0.0841 -0.0732
29294W        W45428   8.945  13.079  15.441 -0.0012  0.0887  0.2794
29295W        W45429   3.966   6.659   3.738 -0.0182 -0.1390  0.1163
29296W        W45430  13.404   8.547  11.514 -0.1047 -0.2048  0.0735
29297W        W45431   0.456   0.642   5.088  0.0319 -0.0762  0.1947
29298W        W45432   8.851  13.774  13.301  0.2330 -0.1368  0.4888
29299W        W45433  13.689  17.964   2.294 -0.0906 -0.0680  0.2756
29300W        W45434  12.785  10.068   4.200  0.1360 -0.1382 -0.2922
29301W        W45435  13.329   5.325   6.672 -0.0201  0.0936 -0.0718
29302W        W45436   4.652   3.590  14.741 -0.4082  0.1093  0.0452
29303W        W45437   8.450  16.080   0.895 -0.0876 -0.0485  0.0446
29304W        W45438   7.005  11.646  12.098  0.0882 -0.0906  0.1548
29305W        W45439  17.835   6.921   2.898  0.0870 -0.1971 -0.2531
29306W        W45440   9.164   1.719   5.070 -0.0936 -0.0234  0.0691
29307W        W45441   6.863   7.936   4.112 -0.0969 -0.1352 -0.2221
29308W        W45442   2.240  17.808  14.156 -0.1660  0.1552  0.0199
29309W        W45443  14.570  13.398  13.102  0.1251  0.2379 -0.2745
29310W        W45444   6.752  13.232  15.526  0.0378  0.0554  0.4723
29311W        W45445   1.980   3.201  16.323  0.2335  0.0938 -0.0901
29312W        W45446   6.270  12.066  13.384 -0.0936  0.3002  0.2341
29313W        W45447   6.336   7.868  15.208  0.1697  0.1330  0.0367
29314W        W45448  15.241  13.955  12.212 -0.1628  0.1402  0.2576
29315W        W45449  14.917   0.015  13.659  0.0319  0.1191 -0.0609
29316W        W45450   4.562   7.778  14.750  0.1412 -0.0672 -0.2381
29317W        W45451  11.579   6.163  16.323  0.0142 -0.1122  0.0505
29318W        W45452   0.625  14.971  12.460  0.0408  0.1897  0.2323
29319W        W45453  12.503   3.534   3.523  0.2520 -0.1462  0.2275
29320W        W45454   7.260   5.655   1.209 -0.1977  0.0804  0.0677
29321W        W45455   5.946   7.483   1.214  0.0469 -0.2435 -0.0923
29322W        W45456   7.363  15.431   1.202  0.0371 -0.0605  0.1305
29323W        W45457  16.190   0.327   4.293  0.0113 -0.3770 -0.0871
29324W        W45458   6.887  12.402   5.206 -0.2049 -0.3239 -0.0153
29325W        W45459   2.197  13.038  11.395  0.0491 -0.1364 -0.2890
29326W        W45460  17.157   9.974  12.463  0.2279  0.0380  0.2457
29327W        W45461  13.991   0.390  14.487  0.0070 -0.0990 -0.0785
29328W        W45462   5.945  13.749  16.270  0.0399 -0.1875  0.2768
29329W        W45463  12.502  14.932  14.879  0.1264  0.0541  0.0034
29330W        W45464  13.184  13.227  14.246 -0.0957  0.0317  0.4074
29331W        W45465   6.122   9.069  16.621 -0.2732  0.0677 -0.0675
29332W        W45466  10.873  17.815   5.139 -0.0600 -0.0458 -0.0107
29333W        W45467   8.572   5.232  15.493  0.3371 -0.0336 -0.1029
29334W        W45468  10.556   0.266   1.816  0.2455 -0.1235  0.0741
29335W        W45469  11.656  13.475  15.180  0.3079  0.0102  0.0749
29336W        W45470   8.201  12.775  13.232 -0.1726 -0.0890 -0.5621
29337W        W45471   4.599   0.116  14.076  0.0847 -0.0692  0.0718
29338W        W45472   2.091  17.488  11.080 -0.0738  0.1900  0.1546
29339W        W45473   2.712  17.890   4.104 -0.5166 -0.2981  0.1692
29340W        W45474   9.162  17.498  14.498 -0.2077 -0.0062 -0.1220
29341W        W45475   7.286   5.026   0.004  0.0186  0.1771  0.0897
29342W        W45476   6.934  10.142  15.859  0.1223 -0.2024  0.2407
29343W        W45477  13.755   6.855  11.046  0.0278 -0.3560  0.0794
29344W        W45478   6.150   7.367   3.725  0.1275  0.1908  0.0581
29345W        W45479   9.216  10.885   1.736  0.5705  0.1614  0.1624
29346W        W45480  15.736   9.414   2.439  0.0941  0.1292  0.1981
29347W        W45481   7.297   6.983  13.653  0.2854 -0.3572  0.1978
29348W        W45482   2.880  12.874  12.243  0.1844  0.0734 -0.0320
29349W        W45483   1.562   8.934  16.468  0.1325 -0.1655  0.0182
29350W        W45484   4.785  15.128  15.958 -0.0963 -0.1437 -0.3060
29351W        W45485   3.620   9.149   2.039  0.1315 -0.0526  0.1585
29352W        W45486  15.991  12.653  11.130 -0.1202  0.1123  0.0786
29353W        W45487   1.472   9.197   2.566 -0.1381 -0.0785  0.0889
29354W        W45488   1.206   4.585   4.672  0.0309 -0.2736 -0.1996
29355W        W45489  17.790  16.506  11.426  0.1251  0.0231 -0.2485
29356W        W45490   2.773   6.341  11.909  0.2711  0.1016 -0.0607
29357W        W45491  14.686  10.666  16.274  0.0660  0.1566  0.2225
29358W        W45492   2.402   8.722   5.276 -0.0726  0.0370  0.1233
29359W        W45493  10.006  13.910  13.736  0.0204 -0.5199 -0.1696
29360W        W45494  12.069   6.021   1.638 -0.1479  0.0541  0.1483
29361W        W45495   8.473  15.813  11.323 -0.3369 -0.1192 -0.0246
29362W        W45496   5.449  10.137   5.346  0.0812  0.3310 -0.0321
29363W        W45497   5.622   8.441   4.871  0.0566  0.1075 -0.1899
29364W        W45498   9.939  13.670  12.248  0.0344  0.2125  0.0064
29365W        W45499   2.148   4.942  15.058  0.0946 -0.0128  0.0944
29366W        W45500  13.856   6.557  13.053 -0.1227 -0.0636 -0.1503
29367W        W45501   9.236   9.444  13.886 -0.4281  0.2549 -0.2175
29368W        W45502   0.778  10.272   5.177 -0.0128  0.0718 -0.1236
29369W        W45503   4.252   6.470  14.773 -0.3017  0.5604 -0.0517
29370W        W45504   8.063   0.427  13.188 -0.3058 -0.1099 -0.3553
29371W        W45505  10.303  15.774   4.022 -0.4321  0.0349 -0.3515
29372W        W45506   2.214  13.675   0.535 -0.0106  0.0352  0.0708
29373W        W45507  10.275   1.619   1.597  0.0917  0.2219  0.2344
29374W        W45508   8.609  15.779  16.639 -0.0687  0.1017 -0.1823
29375W        W45509   0.053  12.916  12.498  0.1468 -0.2386  0.0181
29376W        W45510   3.447   0.169   3.481 -0.1407  0.0081 -0.0930
29377W        W45511   3.440   7.852   3.585 -0.0739 -0.3426  0.0245
29378W        W45512   1.116   6.966  12.942  0.2578  0.2697 -0.0187
29379W        W45513   1.744  11.669  16.320 -0.1452 -0.0466 -0.1196
29380W        W45514  11.617   6.631   4.536  0.0096 -0.1654  0.1278
29381W        W45515   2.671   2.730  12.877 -0.1393 -0.3769 -0.0201
29382W        W45516  15.965   6.961  11.925 -0.1163  0.5012 -0.1144
29383W        W45517   3.327   7.231  15.382  0.1794 -0.0851 -0.0004
29384W        W45518  16.999   3.415   3.592  0.0464 -0.0177  0.0448
29385W        W45519   7.501   7.621   2.653 -0.0651 -0.1687  0.1029
29386W        W45520   1.376  13.958  13.576 -0.0773 -0.0622 -0.3103
29387W        W45521  17.845  16.382  16.195 -0.4104  0.0245  0.2138
29388W        W45522   7.455  17.027   0.275 -0.1783 -0.1613 -0.0444
29389W        W45523  14.242  11.309  14.024 -0.3367 -0.2172 -0.2601
29390W        W45524   7.917  12.148   3.647  0.0376 -0.0728 -0.0220
29391W        W45525   3.671   3.583   5.375  0.1628 -0.2722 -0.0085
29392W        W45526   3.792  11.905  14.247  0.1202  0.1064 -0.0264
29393W        W45527   2.244   9.876  15.188 -0.0749 -0.1373 -0.1388
29394W        W45528  13.026  13.247   4.192 -0.1380 -0.0845  0.1316
29395W        W45529   2.154   5.260  11.391 -0.0616  0.0429  0.0277
29396W        W45530   3.260  14.787   2.946 -0.0164  0.1265 -0.0216
29397W        W45531  16.317   8.891   3.205 -0.0213 -0.0252  0.1127
29398W        W45532   0.757  10.667   2.060 -0.1369 -0.0797  0.0534
29399W        W45533  13.834   0.720   4.275 -0.1124 -0.0370 -0.1796
29400W        W45534   6.468  17.356   4.577 -0.0244  0.0651 -0.0043
29401W        W45535   3.495  11.358   1.190 -0.1709 -0.1022 -0.0961
29402W        W45536  12.050   3.107   0.418 -0.0664 -0.1614  0.1531
29403W        W45537  16.216   1.771   1.852  0.0465  0.1223  0.0583
29404W        W45538   4.269  14.545  14.616 -0.0010  0.1690 -0.2470
29405W        W45539  11.034   7.431   0.788 -0.1863 -0.2536  0.0015
29406W        W45540   0.323   8.860  13.784 -0.1837 -0.2365 -0.2753
29407W        W45541   8.476  11.978  16.169  0.0532 -0.1030 -0.5329
29408W        W45542  13.822  12.806   1.956 -0.1161 -0.0169  0.0127
29409W        W45543   5.409   6.464  11.471 -0.3477  0.0645 -0.1913
29410W        W45544   8.565   1.754  15.846  0.3618 -0.1932  0.0367
29411W        W45545   1.498   8.352   5.656  0.0212 -0.1239 -0.3199
29412W        W45546   2.035   7.170  13.743  0.2384  0.2499 -0.3993
29413W        W45547   6.504  16.770   0.097 -0.0557  0.1354 -0.0208
29414W        W45548   6.190   4.983  14.213 -0.1096  0.1096 -0.1249
29415W        W45549  10.870   6.346   1.469  0.0180  0.1571  0.0354
29416W        W45550  11.318   2.463   2.367  0.0486  0.2985  0.2822
29417W        W45551   5.140  10.622   0.706 -0.0030 -0.1741  0.0012
29418W        W45552   5.409  11.775   1.142  0.1348 -0.0586  0.0300
29419W        W45553   2.977   0.035   1.182 -0.2858 -0.1916 -0.0156
29420W        W45554   1.083   3.130  14.013 -0.0140 -0.2715 -0.1444
29421W        W45555   7.601  13.959  16.129 -0.1170 -0.1203 -0.0268
29422W        W45556   3.957   6.727   1.232 -0.0764 -0.1624 -0.0947
29423W        W45557  13.379   1.323  16.707  0.3313 -0.0257 -0.0452
29424W        W45558   7.795  11.724   2.090  0.1382  0.1377 -0.0297
29425W        W45559   6.955   7.490   0.764 -0.1915 -0.2556 -0.1941
29426W        W45560   2.627   6.818   3.604  0.0275  0.4608 -0.2843
29427W        W45561   0.071   0.149  11.912  0.2251  0.0107  0.2327
29428W        W45562  15.861  14.945  13.741  0.0991 -0.1216  0.0883
29429W        W45563  17.922  13.868   2.229  0.1145  0.2285  0.1499
29430W        W45564   1.867  13.663  12.221  0.0475  0.2469 -0.0681
29431W        W45565   3.708   8.898   5.056 -0.0898 -0.2706 -0.0205
29432W        W45566   1.482   5.167  15.642 -0.3522  0.0354 -0.1498
29433W        W45567   9.505  15.195   3.810  0.1364  0.0401  0.2353
29434W        W45568   2.123  10.139   3.205  0.3499  0.0369 -0.1627
29435W        W45569  11.200   3.848   2.940  0.0609 -0.3858  0.1200
29436W        W45570   3.042   8.087  13.933  0.1256  0.1764  0.2528
29437W        W45571   8.690   0.614  11.941  0.1695  0.1482  0.0206
29438W        W45572   1.261   0.403   0.841  0.1637  0.4143  0.0579
29439W        W45573   5.694   0.082   5.656 -0.1385  0.1925 -0.1259
29440W        W45574  11.238   0.213   0.154 -0.2315 -0.1153  0.1890
29441W        W45575   5.544  11.436  13.268 -0.3817  0.0890 -0.1335
29442W        W45576   1.855   2.148   0.114  0.2607  0.0260  0.0353
29443W        W45577  14.770   8.217  15.711  0.1498 -0.3273 -0.0255
29444W        W45578  10.597  15.108   0.340 -0.1998 -0.5166 -0.0364
29445W        W45579  12.127   0.774   2.499  0.1453 -0.0316  0.1577
29446W        W45580   2.996   4.255   5.136 -0.1074  0.1428 -0.2017
29447W        W45581  10.688   7.823  15.257 -0.1119 -0.1406  0.0011
29448W        W45582  16.096  10.276   1.074 -0.1551  0.2183 -0.3235
29449W        W45583   2.767   0.337   3.761  0.0916  0.1331 -0.3320
29450W        W45584   8.234  15.181   0.972  0.1058  0.1113  0.1185
29451W        W45585   9.288  13.714   2.959  0.0125 -0.0256  0.2621
29452W        W45586   0.450   0.972  12.692  0.1204 -0.0671  0.1213
29453W        W45587   6.651   1.619  15.314 -0.3014 -0.3245 -0.0497
29454W        W45588   5.996   0.183  12.897 -0.0483 -0.1027  0.1467
29455W        W45589   3.909   2.392  13.893 -0.1463  0.0890 -0.1464
29456W        W45590   2.472  14.409  15.611  0.2149 -0.1596  0.2181
29457W        W45591  15.293  17.393   5.629 -0.2094 -0.2211  0.0830
29458W        W45592  16.282  12.523   1.480  0.0784 -0.1488 -0.1263
29459W        W45593   8.359   1.725   4.307  0.0718  0.2228  0.1811
29460W        W45594   4.769   2.756  15.519  0.1707  0.1959  0.1928
29461W        W45595   5.130  14.848   0.512 -0.1766 -0.0242 -0.0393
29462W        W45596  16.476  15.749  12.575  0.0510 -0.0324  0.0473
29463W        W45597   4.130   0.301  14.000  0.2648 -0.3503 -0.6440
29464W        W45598  11.823  12.976   1.912  0.0472 -0.0638  0.0670
29465W        W45599  13.694  17.514  12.174 -0.0754 -0.1950  0.0399
29466W        W45600  12.239   6.096   0.498  0.3883 -0.1098 -0.0340
29467W        W45601  12.495  13.790  12.832  0.2095 -0.1893 -0.1637
29468W        W45602   0.599  10.506  15.128  0.2594  0.4131 -0.0288
29469W        W45603   5.652   8.530  16.421  0.1720 -0.1062 -0.0910
29470W        W45604   4.881  13.293  14.503 -0.1042  0.2309  0.0736
29471W        W45605  10.787   7.830   4.760  0.0740 -0.0777 -0.0354
29472W        W45606  11.201  17.456  15.768 -0.3300  0.3615  0.0347
29473W        W45607  14.240   0.016   1.966 -0.2266  0.1916 -0.3314
29474W        W45608   5.887  15.346   0.798 -0.2929 -0.0584 -0.0209
29475W        W45609   0.803   5.227   3.211 -0.0490 -0.0812 -0.0770
29476W        W45610   0.777  11.970   2.895  0.2249 -0.1279 -0.0192
29477W        W45611   7.191   5.765   2.475 -0.1060  0.3192 -0.1749
29478W        W45612  12.260  15.390   4.719 -0.0502 -0.0579 -0.2605
29479W        W45613  13.986   8.102  11.805 -0.1924  0.0106 -0.2163
29480W        W45614   4.134   4.027   1.643  0.0567  0.0282 -0.1572
29481W        W45615   6.548  10.513   0.561 -0.0997  0.0108 -0.1132
29482W        W45616  13.106  11.348   3.931  0.0111  0.0594 -0.1539
29483W        W45617  15.673  16.718   1.516 -0.2831 -0.0525 -0.0566
29484W        W45618   0.829  10.789  14.434  0.0686 -0.0037 -0.0981
29485W        W45619  11.708  15.863  12.568  0.2559 -0.0947 -0.3858
29486W        W45620   1.893   0.361   4.456 -0.0804 -0.0620  0.2858
29487W        W45621  16.673  14.352   4.066  0.2720  0.3231  0.0748
29488W        W45622   1.415  11.889   5.712  0.1196  0.1438 -0.1660
29489W        W45623  15.149   3.920  10.493  0.0901  0.2059  0.2267
29490W        W45624   1.379  16.483   3.452 -0.0859  0.0001  0.0845
29491W        W45625  17.192  16.348  13.533 -0.2496 -0.0513  0.1905
29492W        W45626   7.980   3.600  12.616  0.2515  0.0465 -0.1186
29493W        W45627   8.504  10.223   4.484  0.0103  0.2152 -0.0659
29494W        W45628   4.949  15.383   0.677  0.1648 -0.0283 -0.1253
29495W        W45629   8.585   0.237  15.533  0.0252 -0.0594 -0.4079
29496W        W45630   2.352   3.707   1.645 -0.1669  0.1028  0.2262
29497W        W45631   1.512   1.482   5.056 -0.2078  0.1530 -0.1831
29498W        W45632  16.035   5.009  11.336  0.1327  0.0143 -0.3255
29499W        W45633   4.228   1.129   1.427 -0.2165  0.2001  0.0465
29500W        W45634   3.100   1.277  15.577 -0.0745  0.1395 -0.3408
29501W        W45635   5.298  17.752   0.446  0.0438 -0.2107 -0.0479
29502W        W45636  13.778   1.482   2.126 -0.2959  0.1298 -0.2770
29503W        W45637   5.383  17.237   2.111  0.3598  0.0755  0.1559
29504W        W45638  13.643   4.100  13.134 -0.1148 -0.1948 -0.0397
29505W        W45639  17.211  13.315  14.490  0.0312  0.1177 -0.1605
29506W        W45640   6.906   2.597   4.008  0.1436 -0.1079 -0.2061
29507W        W45641  13.139  16.425  14.982  0.0356 -0.1738  0.3281
29508W        W45642   1.504   5.870   2.112  0.0587  0.0944 -0.0921
29509W        W45643   1.288  15.668  11.435 -0.1346  0.3793  0.1553
29510W        W45644   6.629   9.700   2.354 -0.4024  0.1056 -0.1210
29511W        W45645  14.968   1.641  14.824 -0.2733  0.2249  0.0856
29512W        W45646   2.031   9.494   5.275 -0.2145  0.0535 -0.0328
29513W        W45647  15.888   5.415   3.763 -0.3261  0.2593 -0.2419
29514W        W45648   7.493   4.248   2.710 -0.2999 -0.0933 -0.1633
29515W        W45649  14.205   2.478   5.149  0.0119 -0.1458 -0.0507
29516W        W45650   3.680   1.683  16.285 -0.0097 -0.1508 -0.0734
29517W        W45651   9.921   0.928   0.633 -0.0842  0.0423 -0.4305
29518W        W45652  10.036  13.152   3.315  0.1356 -0.1931  0.1290
29519W        W45653  10.307   6.132  12.876  0.0651  0.0185 -0.0760
29520W        W45654   1.822   0.850   2.006 -0.0916 -0.1840 -0.4004
29521W        W45655   7.339   8.453  12.258  0.1670 -0.0958 -0.2341
29522W        W45656  12.286  12.239   0.829 -0.4318 -0.0108 -0.0086
29523W        W45657  17.147   9.887   2.623 -0.0915  0.0026 -0.1863
29524W        W45658   0.843  12.081  13.319  0.1834 -0.0506  0.1490
29525W        W45659   0.470  12.789  13.428  0.2803  0.1874  0.0005
29526W        W45660   8.385  12.141   1.406 -0.2215 -0.1627 -0.3108
29527W        W45661  15.779   0.171  15.059 -0.0840  0.2883 -0.2216
29528W        W45662   0.801   8.284  12.073 -0.1457  0.2108 -0.1294
29529W        W45663  11.441  14.586  12.248  0.1192  0.0701 -0.1927
29530W        W45664  11.187   7.065   3.981  0.3937  0.1647 -0.0776
29531W        W45665  12.884  12.260  15.641  0.0098  0.1480 -0.1541
29532W        W45666  10.974  14.004  11.216 -0.0329  0.1033  0.1454
29533W        W45667  16.978  11.994  12.776  0.2002  0.0419 -0.0255
29534W        W45668   0.926   1.947   5.768  0.2681  0.0566  0.2260
29535W        W45669  14.290   9.479   1.636  0.1870 -0.1090 -0.2235
29536W        W45670   4.444   8.248   4.345  0.0880 -0.0677  0.0331
29537W        W45671  14.553   4.327  12.848  0.0951 -0.2140  0.1106
29538W        W45672  10.015   3.754  14.447  0.3553  0.2244 -0.6117
29539W        W45673  13.500  14.768   2.299 -0.2021  0.0774 -0.2133
29540W        W45674  16.236  16.496   4.288 -0.2398  0.0410 -0.0119
29541W        W45675  16.143   2.467   4.280  0.0649 -0.1421 -0.0661
29542W        W45676   6.719   1.444   3.975 -0.3506 -0.0755  0.2648
29543W        W45677  11.152   3.988  15.272  0.2354  0.2851  0.0282
29544W        W45678  12.241   8.691  13.126  0.2118 -0.0902  0.2429
29545W        W45679   5.476   1.373   2.640 -0.3169  0.3014 -0.1290
29546W        W45680  13.641  16.590  12.057 -0.1470  0.0304 -0.2439
29547W        W45681  12.026  11.845   0.615 -0.0757  0.1249  0.1486
29548W        W45682  11.951  10.611   2.385 -0.0283  0.1488 -0.0081
29549W        W45683   7.257  17.838   5.394  0.4458  0.0720 -0.2469
29550W        W45684   3.941   6.474  13.662 -0.0005 -0.0085 -0.2453
29551W        W45685   1.617   8.052  16.058 -0.3560 -0.1264 -0.1219
29552W        W45686   8.878  17.354  13.576 -0.0893  0.2019  0.1445
29553W        W45687   6.351  13.975   2.380 -0.0456 -0.0232  0.0270
29554W        W45688  17.118   2.638   2.316 -0.0159  0.0096 -0.3843
29555W        W45689   6.290  10.369   5.160  0.0515 -0.0051 -0.0044
29556W        W45690   0.539  11.457   4.383 -0.0823  0.1318  0.0995
29557W        W45691  11.032   2.191  11.700 -0.0946  0.0105 -0.0348
29558W        W45692   4.154   4.160  14.050 -0.1499 -0.2313  0.1719
29559W        W45693  13.404   3.369   4.778 -0.2089  0.0861 -0.2769
29560W        W45694  10.598  15.536   6.192  0.2103 -0.2256 -0.1944
29561W        W45695   1.488  15.049  12.690 -0.2370 -0.2446 -0.1323
29562W        W45696   2.886   0.468   5.505 -0.1573  0.1715 -0.1410
29563W        W45697   8.235  13.772  16.630 -0.2283  0.4022 -0.0632
29564W        W45698  10.823  11.308  10.633 -0.1405 -0.3065  0.0196
29565W        W45699  13.420  12.658   5.217 -0.3084 -0.0395  0.0073
29566W        W45700  13.823  10.247  13.356  0.3017  0.0441  0.1891
29567W        W45701   0.954   9.134  15.691 -0.2297  0.2475 -0.2929
29568W        W45702  11.657   2.067   2.436  0.2982  0.0536  0.0635
29569W        W45703  17.781   1.246   3.760 -0.2925  0.1844  0.3072
29570W        W45704   4.540  12.852   4.584 -0.1114 -0.1630 -0.1697
29571W        W45705   2.554  13.418   5.784 -0.1529 -0.0691  0.1162
29572W        W45706   4.927   0.247  14.527 -0.1327 -0.1174 -0.0011
29573W        W45707  14.877  11.597  16.023 -0.2120  0.1863 -0.0958
29574W        W45708   4.580   6.127   4.842  0.3080  0.0704 -0.2357
29575W        W45709   1.461  12.816   3.444  0.1851  0.1808 -0.1701
29576W        W45710   8.052  11.465   5.933  0.0008 -0.1890  0.1911
29577W        W45711  11.134  11.970   0.904  0.1813 -0.0195 -0.1055
29578W        W45712   8.512   3.044  11.422  0.0462  0.0752  0.0931
29579W        W45713  16.805  17.575  11.655  0.2785 -0.1849  0.2833
29580W        W45714   3.252   6.223   2.896  0.0664 -0.0465  0.0047
29581W        W45715  10.242   3.681  16.700  0.1420  0.3866 -0.0916
29582W        W45716   0.268  10.320   4.923 -0.0569 -0.0552 -0.2853
29583W        W45717   7.387  15.149  11.358  0.1456 -0.1221  0.1451
29584W        W45718  11.846   0.412   4.779 -0.1152 -0.1216  0.0865
29585W        W45719   9.121   7.421   4.724 -0.0565 -0.0462  0.1203
29586W        W45720   9.383   5.119   3.742 -0.0380 -0.1535  0.1531
29587W        W45721   1.803   7.880  14.659 -0.2438 -0.1258  0.0313
29588W        W45722   4.108  13.108   4.717  0.1728  0.1439 -0.0075
29589W        W45723   0.507   6.926  16.280  0.1730  0.2792 -0.2633
29590W        W45724  12.943  10.834  13.302  0.0790  0.2637 -0.1745
29591W        W45725   4.477  10.550  12.596  0.2327  0.2545  0.0286
29592W        W45726  12.263   6.493   1.932  0.1054 -0.2237 -0.0167
29593W        W45727   0.362  10.920  14.515  0.1474 -0.1136 -0.0238
29594W        W45728   9.722  12.229   1.318 -0.2255 -0.1848  0.2892
29595W        W45729   5.201  14.542   6.588  0.1173  0.1386 -0.1250
29596W        W45730   0.534   4.852   1.125 -0.1444 -0.1229  0.1297
29597W        W45731  11.780   7.653  11.829 -0.0973  0.1417 -0.1967
29598W        W45732  17.762   2.788  14.107 -0.0212 -0.3674 -0.0850
29599W        W45733  10.657  10.748  15.468 -0.1565 -0.0115  0.0706
29600W        W45734  12.192   5.630  15.799 -0.1434 -0.1047 -0.2316
29601W        W45735   8.411   2.801  13.159 -0.0304  0.1968  0.0365
29602W        W45736  15.003  13.810  14.881 -0.1940  0.0891 -0.0258
29603W        W45737  11.951   2.957  12.777 -0.0610  0.0076  0.1531
29604W        W45738   4.495  14.958   1.232 -0.1407 -0.0301 -0.2109
29605W        W45739  17.331  15.049  15.501  0.0080  0.0176 -0.5036
29606W        W45740   9.275   4.643   0.094 -0.1184 -0.1029 -0.2864
29607W        W45741   6.874   4.710  14.486  0.1202  0.2538  0.0421
29608W        W45742   9.558  11.846   0.416  0.1066  0.1097 -0.0042
29609W        W45743   3.166  13.035   4.720  0.1968  0.0499  0.1308
29610W        W45744   6.378   4.138   0.678 -0.2277  0.1876  0.3768
29611W        W45745   1.327  15.872  15.693  0.0119  0.0172  0.1006
29612W        W45746  12.712   6.886  15.959 -0.1244 -0.1917  0.0285
29613W        W45747   6.703   4.528   0.707  0.1935  0.2663 -0.0248
29614W        W45748   5.470   6.245  14.695  0.2545 -0.0564  0.1498
29615W        W45749   1.330   2.226  14.916 -0.0875  0.0823 -0.0008
29616W        W45750   9.063   8.397  15.348  0.2893  0.1304 -0.1581
29617W        W45751  12.277  17.154  15.318  0.0800 -0.0680  0.0000
29618W        W45752  13.414   7.701   0.255 -0.1810  0.0475 -0.3387
29619W        W45753   2.297  13.475   4.767 -0.1997 -0.0933 -0.0628
29620W        W45754  14.856  14.921  14.550 -0.0116 -0.0229  0.3058
29621W        W45755   6.348  17.319  15.107  0.0781 -0.0716 -0.1717
29622W        W45756   2.601  15.777  15.643 -0.0620  0.0289 -0.1789
29623W        W45757   5.085   2.125  16.694 -0.1117 -0.1514  0.0521
29624W        W45758   1.648   7.265   5.353  0.0701  0.1083  0.0505
29625W        W45759   9.626  14.025   1.695  0.0372 -0.0065 -0.2197
29626W        W45760   9.306   4.165   1.775  0.1397  0.0434 -0.0239
29627W        W45761  13.383   3.343   1.953 -0.2986 -0.0872  0.0117
29628W        W45762  11.342   2.957   1.030 -0.0800  0.1217  0.0597
29629W        W45763  17.089   0.674  14.505  0.0722 -0.0125 -0.1627
29630W        W45764  15.499   3.722   4.660  0.0653 -0.3638  0.0433
29631W        W45765  13.672   5.303   1.258  0.2985 -0.0631  0.1063
29632W        W45766  15.509  12.597   5.433  0.3145  0.1092  0.0149
29633W        W45767  10.446   1.801   3.360  0.0466 -0.0989 -0.1732
29634W        W45768  16.637   6.804   0.899 -0.2049 -0.0513  0.1971
29635W        W45769   3.035  15.541  16.359  0.0514  0.1171  0.1115
29636W        W45770  14.201   8.745   3.643 -0.0812 -0.1441 -0.0973
29637W        W45771   5.618   4.702   6.007 -0.0248 -0.1356 -0.0417
29638W        W45772   5.503   9.223   2.422 -0.3596 -0.1620 -0.0089
29639W        W45773   0.028   5.289   0.880  0.0157 -0.2284  0.1495
29640W        W45774  10.990   6.360   0.220  0.1298  0.0770  0.2801
29641W        W45775  15.336   2.041  11.771  0.1105  0.0095 -0.1874
29642W        W45776   5.923  14.407   1.775 -0.1068  0.0433  0.0661
29643W        W45777   4.665   8.300  15.860 -0.0692 -0.0884  0.0017
29644W        W45778   3.448   9.924   3.593 -0.0465  0.3196  0.0618
29645W        W45779  13.327   0.303   4.337 -0.0559  0.2027 -0.2034
29646W        W45780  16.296   1.569  15.859 -0.0725 -0.1217 -0.1287
29647W        W45781  15.714  15.452   3.598  0.3606  0.0058  0.0482
29648W        W45782  15.996  13.372   6.409 -0.0054  0.1497  0.2100
29649W        W45783  14.086   7.979   4.290 -0.0924 -0.1625  0.1800
29650W        W45784   6.329   7.503   1.636  0.2697 -0.1362 -0.0875
29651W        W45785  16.921   9.931  13.359 -0.2603 -0.3107  0.2065
29652W        W45786   6.650  12.094  11.949  0.0737  0.0400 -0.1944
29653W        W45787  12.329   5.764  12.282 -0.2194 -0.2181  0.0636
29654W        W45788   3.612  17.740  11.207  0.2958 -0.4716  0.2475
29655W        W45789   6.477  14.730   0.246 -0.1119  0.3468 -0.1405
29656W        W45790  10.105  10.438   0.660  0.0464 -0.0348  0.0994
29657W        W45791   6.145   9.328  13.627 -0.2616 -0.0671 -0.0499
29658W        W45792  13.865   3.238  15.913 -0.1223  0.1103 -0.0459
29659W        W45793  14.000   2.727   0.507  0.3870  0.2522 -0.0945
29660W        W45794  13.547  15.736   2.109  0.0484  0.0823  0.0661
29661W        W45795   6.755  10.199   1.634 -0.1244  0.0883  0.1539
29662W        W45796  16.125   9.616  15.312  0.1758 -0.1145 -0.3806
29663W        W45797   8.044   7.349   0.300 -0.0898 -0.1742  0.0331
29664W        W45798  13.330   3.594  11.788  0.3378 -0.0109  0.1599
29665W        W45799   3.205   2.362   4.214  0.2869 -0.2154  0.1725
29666W        W45800   1.932   3.008  15.219 -0.1199  0.2159 -0.2525
29667W        W45801  16.379  14.455   1.141  0.0976 -0.2585  0.1446
29668W        W45802   3.792   6.293   3.447 -0.0446 -0.2291 -0.2378
29669W        W45803   4.230  11.965   1.481  0.0185 -0.0310 -0.0115
29670W        W45804  12.931  15.334   4.423  0.1333  0.1534  0.0579
29671W        W45805   0.611   5.850   5.347 -0.1102 -0.1556  0.2072
29672W        W45806   8.414   4.588   2.512  0.1089 -0.2151  0.3192
29673W        W45807  16.131   8.512  13.640 -0.3633 -0.3236 -0.0503
29674W        W45808  12.792   3.953   2.173  0.0146 -0.0016 -0.3432
29675W        W45809   6.342   0.330   5.186 -0.1760  0.1930 -0.2558
29676W        W45810   3.186  14.537   4.631 -0.4779  0.0308  0.2775
29677W        W45811   1.195   1.604   3.143  0.1158  0.2276  0.2636
29678W        W45812   6.029  11.776  15.077 -0.1726  0.0727  0.0524
29679W        W45813   6.339  10.991   0.652 -0.0543 -0.3380  0.2833
29680W        W45814   3.467   1.853   4.793 -0.1464 -0.2142  0.1537
29681W        W45815   7.245   1.750   0.559  0.0280  0.2807 -0.2639
29682W        W45816  17.319  11.437   5.093 -0.2864  0.0680 -0.0384
29683W        W45817  17.963  14.008  14.287  0.2589 -0.1067  0.2109
29684W        W45818   1.034  14.242  14.916 -0.0152 -0.1272  0.0998
29685W        W45819  15.884  16.764  13.227 -0.3625  0.1414 -0.0721
29686W        W45820   0.903  16.169  15.729 -0.1685 -0.2036 -0.0506
29687W        W45821  13.739   9.010   5.822  0.0773 -0.0408 -0.2305
29688W        W45822  12.265   2.754  14.655 -0.0422 -0.0435  0.0540
29689W        W45823   4.328   9.249  16.020  0.1385  0.1681 -0.2817
29690W        W45824   9.457  16.638  10.555  0.4284 -0.0345 -0.1859
29691W        W45825   8.233  15.130  13.022 -0.1708  0.1267  0.0539
29692W        W45826  16.254   3.971  15.465 -0.4061  0.1893  0.0700
29693W        W45827   3.956  10.008   3.942  0.3422  0.4781 -0.1530
29694W        W45828  10.394   8.411   0.943 -0.0846  0.0191 -0.0076
29695W        W45829  14.461   5.330   4.072  0.1896 -0.2502 -0.0641
29696W        W45830   5.760   7.812   0.408  0.1369  0.2220 -0.1019
29697W        W45831   6.854  16.406  15.818 -0.0350 -0.1208  0.0142
29698W        W45832   4.684   6.070  15.493 -0.1713  0.0272 -0.0270
29699W        W45833  17.652  12.229   0.954  0.1407  0.0540  0.1981
29700W        W45834  17.364  11.899  16.213 -0.0187 -0.0582 -0.2314
29701W        W45835  16.186   6.364  10.967  0.2002  0.0077  0.1433
29702W        W45836   7.866  14.806   5.193  0.0880  0.1388  0.1111
29703W        W45837  10.712  17.191   1.145  0.1676  0.1197  0.0118
29704W        W45838   8.521  14.803  16.530 -0.2269  0.0981  0.1219
29705W        W45839   1.423   9.940   2.158 -0.0230 -0.1311 -0.3156
29706W        W45840  12.603  14.216   4.768 -0.0986 -0.0286  0.0809
29707W        W45841  11.036   1.209   4.355 -0.1833  0.1593 -0.0727
29708W        W45842   5.256   7.276  11.187 -0.1588 -0.1440 -0.1140
29709W        W45843  15.162  12.641  11.996 -0.2334 -0.2669 -0.1635
29710W        W45844  13.226  11.042  15.049  0.0738 -0.1750  0.0025
29711W        W45845   3.897   1.597   4.608 -0.1712 -0.2002  0.0924
29712W        W45846   7.926   9.604  15.871  0.1386  0.4289  0.0448
29713W        W45847  11.771  14.650  15.444 -0.2328 -0.2989 -0.3425
29714W        W45848   2.024   3.169  14.145 -0.2235 -0.1045  0.2783
29715W        W45849  13.592   2.973  12.755 -0.2004  0.1129  0.1330
29716W        W45850   3.448   4.872  13.678  0.1660  0.1119  0.0801
29717W        W45851  17.693   6.578   1.968 -0.0164 -0.4814 -0.0587
29718W        W45852  12.962  12.801   3.954 -0.3147  0.2674  0.0417
29719W        W45853  17.181   3.107   4.708 -0.0592 -0.1684 -0.0265
29720W        W45854   9.580  16.602  12.478 -0.2196 -0.0008  0.1795
29721W        W45855  12.210  15.888   2.383  0.0318 -0.3108 -0.1046
29722W        W45856   0.803   9.707   4.009 -0.0745 -0.0309 -0.0710
29723W        W45857   2.508   9.058  15.916 -0.3219  0.0086 -0.0367
29724W        W45858   4.504  12.942  14.494  0.3850  0.2045 -0.0321
29725W        W45859  12.638  17.668   2.166 -0.1976 -0.0155 -0.0123
29726W        W45860   8.331  16.313   1.904 -0.1759  0.0622  0.0945
29727W        W45861  15.234  10.258   3.960 -0.0821  0.1235 -0.0478
29728W        W45862  16.023   9.497  15.741 -0.2022  0.2211 -0.1848
29729W        W45863   8.994  13.234  16.386  0.2340  0.0725 -0.1572
29730W        W45864   8.729  12.306   1.030  0.0163  0.2181 -0.2795
29731W        W45865   6.760   1.271  14.042  0.1407  0.1842 -0.4578
29732W        W45866   5.343   0.315  13.671  0.1133  0.3330 -0.4382
29733W        W45867   5.422  11.433  12.763  0.2334 -0.0712 -0.0853
29734W        W45868   2.894  16.929  16.437  0.2982  0.1239  0.0001
29735W        W45869  15.352   6.255   1.956  0.2354 -0.1020 -0.1172
29736W        W45870  16.760  14.494   4.989 -0.4266 -0.1014 -0.2412
29737W        W45871   9.257   9.645   1.404 -0.1389  0.0578  0.1343
29738W        W45872  12.027   6.836   3.750 -0.2622  0.0005 -0.1956
29739W        W45873   3.349   5.668   3.105 -0.1209  0.1014 -0.0370
29740W        W45874   0.858   8.541  13.959 -0.0753  0.2827 -0.3738
29741W        W45875   2.749   6.116   2.315  0.1734  0.1896 -0.2827
29742W        W45876  17.106   6.602  14.926  0.0250  0.0559  0.1181
29743W        W45877  17.832  14.496  14.148 -0.5528  0.2464 -0.0603
29744W        W45878  15.101   6.599  12.820  0.4138 -0.4326  0.0952
29745W        W45879   5.973   7.230   2.567  0.0587  0.3467 -0.2837
29746W        W45880  17.778  13.070  15.400 -0.0347  0.3940 -0.0388
29747W        W45881  16.038  17.533   3.155 -0.1078  0.2874  0.3297
29748W        W45882  13.256  11.134   1.259  0.3893 -0.0778  0.0098
29749W        W45883  17.864  11.267  12.982 -0.0885  0.0368  0.0031
29750W        W45884   9.007   5.509  14.085 -0.1372 -0.0511  0.0442
29751W        W45885  13.696  12.318   2.029  0.1010  0.2910  0.0530
29752W        W45886  14.973  16.384  15.773  0.2985 -0.1328  0.0394
29753W        W45887  12.106  13.910   0.079  0.0795  0.0028  0.0846
29754W        W45888   6.981  17.583  15.941 -0.0559  0.1432 -0.3303
29755W        W45889  16.883   9.788  16.000 -0.1979 -0.0920  0.0200
29756W        W45890  13.271  13.791  12.479 -0.1216  0.1815 -0.0135
29757W        W45891   9.225   6.393   4.546  0.1570 -0.3035  0.0438
29758W        W45892   5.559  12.161  14.423  0.1349  0.0720  0.0103
29759W        W45893  16.993  14.931  13.423  0.0918 -0.1716  0.1649
29760W        W45894   0.792  11.231  10.749  0.1465  0.1208  0.2841
29761W        W45895   6.000   0.331  15.053 -0.1459 -0.0681 -0.1928
29762W        W45896  12.991  14.035  12.827 -0.0514  0.1518 -0.1853
29763W        W45897  13.452   9.312   3.931 -0.2528 -0.1268 -0.1573
29764W        W45898   6.298  12.044   3.003  0.0998 -0.5758  0.1292
29765W        W45899   5.917  12.486   3.321  0.0745 -0.0121 -0.0500
29766W        W45900   5.803   7.608  13.647  0.2890 -0.0287 -0.1960
29767W        W45901  14.673   7.523   4.498  0.0316 -0.0150 -0.1627
29768W        W45902   1.474  13.013   0.585 -0.1224  0.0511  0.0493
29769W        W45903   8.376   1.334  14.505 -0.0470 -0.1392  0.1307
29770W        W45904  12.180   4.487  14.637 -0.2811  0.0442  0.1709
29771W        W45905   5.640   7.593  11.226 -0.2590 -0.2722  0.0359
29772W        W45906   6.217   3.535   3.410  0.1543  0.1056  0.0845
29773W        W45907   4.538  11.077  12.530 -0.0416  0.1644 -0.1562
29774W        W45908  16.860  15.810  15.438  0.0442 -0.2635 -0.0209
29775W        W45909  17.035   5.192  15.292  0.0478  0.0151  0.1841
29776W        W45910  11.691   5.837  15.478 -0.0358  0.0657  0.1044
29777W        W45911  16.767   7.816  13.692 -0.1651 -0.2145  0.4547
29778W        W45912  11.122  16.766  13.645  0.1418  0.1596  0.2562
29779W        W45913  11.886   1.162  13.822  0.1485 -0.1992  0.1037
29780W        W45914  10.143  16.697   4.559 -0.0021 -0.0860 -0.1731
29781W        W45915   2.424  17.889  12.423  0.0727  0.2944  0.0295
29782W        W45916  17.877  10.174   5.219  0.1142 -0.1347  0.0032
29783W        W45917   9.103  17.070  13.208 -0.0116 -0.0015 -0.0319
29784W        W45918  17.862  14.563  13.062 -0.2538  0.0863 -0.2793
29785W        W45919   7.718  11.529  13.147 -0.1743 -0.2483  0.1815
29786W        W45920   9.467  17.571   2.567  0.2853 -0.3329 -0.0814
29787W        W45921   6.723   3.753   5.812  0.0283  0.2543 -0.1245
29788W        W45922   3.576   2.756  13.765 -0.1094  0.0422 -0.1136
29789W        W45923   6.234  13.420  12.967  0.2176  0.1028 -0.0294
29790W        W45924   1.603   0.780  15.037 -0.1515 -0.2180  0.0839
29791W        W45925   8.021   8.451  12.660  0.2906  0.0822 -0.0691
29792W        W45926   9.153   8.822   4.129 -0.4749 -0.1601 -0.2056
29793W        W45927   7.095  15.839   2.482 -0.1961  0.0437 -0.0228
29794W        W45928   2.004  16.021   5.374 -0.1865 -0.1571  0.0821
29795W        W45929   4.123   2.189   5.889 -0.2617  0.1207 -0.1654
29796W        W45930  13.107   0.659  15.582  0.1443  0.3049 -0.1200
29797W        W45931  14.123  10.476   2.027  0.0105 -0.0625 -0.0826
29798W        W45932  16.466  12.773  13.295 -0.1001  0.1089  0.2348
29799W        W45933  15.770   0.034  13.436  0.0435  0.0352 -0.0479
29800W        W45934   8.430  15.289  12.553  0.1366 -0.1906 -0.2121
29801W        W45935   3.902  11.441  11.658  0.4186 -0.2711 -0.1481
29802W        W45936   7.753  17.341   4.674 -0.0846  0.2025  0.2290
29803W        W45937   1.100  16.768   3.066  0.0199  0.0488  0.4591
29804W        W45938  10.059  16.263   1.434 -0.0689 -0.3272  0.2739
29805W        W45939   4.523   9.491   2.988  0.0714  0.2272 -0.0589
29806W        W45940   4.397   0.679  13.407  0.1052 -0.2179 -0.0158
29807W        W45941   6.310   8.923   3.256  0.1235  0.1572 -0.0169
29808W        W45942   9.603   0.372   4.019 -0.3912 -0.3477 -0.1004
29809W        W45943   2.339  15.556   4.439  0.1639 -0.3061 -0.3681
29810W        W45944  12.288   8.040   0.585 -0.2546  0.0249 -0.0829
29811W        W45945  11.806   1.218   1.514 -0.2260  0.0133  0.2678
29812W        W45946  10.271  14.507  12.315  0.1633 -0.0415 -0.0750
29813W        W45947  13.306  10.525   2.744  0.0994  0.0760  0.1993
29814W        W45948  15.937   0.099   4.710 -0.0727 -0.0800  0.0474
29815W        W45949  17.593   7.466  15.214  0.4543  0.3047 -0.3080
29816W        W45950   9.079   4.891  11.668 -0.1629 -0.2227  0.0974
29817W        W45951  17.905   9.888   4.748 -0.0582  0.0959  0.3889
29818W        W45952  15.310   6.818   2.603 -0.0615  0.0938 -0.1235
29819W        W45953  17.241  14.586   3.319 -0.0084  0.0206  0.1777
29820W        W45954   0.495   5.237   4.377 -0.2202 -0.0438  0.0390
29821W        W45955   8.732  17.333   3.874 -0.0251  0.0015 -0.0979
29822W        W45956  16.710   4.038  16.697  0.0607  0.2030  0.2066
29823W        W45957   5.229  16.118  12.409  0.5326  0.2152 -0.2104
29824W        W45958   2.990  17.895  14.627  0.0385  0.1286  0.0852
29825W        W45959  10.898   0.108  15.098 -0.2073  0.0594 -0.0898
29826W        W45960   7.383  11.975   2.161 -0.1214 -0.1808  0.0502
29827W        W45961   0.205   4.676   0.359  0.1393 -0.2728  0.0190
29828W        W45962   8.120  14.629  14.004  0.1537 -0.2977  0.0929
29829W        W45963   9.425   3.620   4.470  0.1108 -0.0639  0.3440
29830W        W45964   0.527   4.114  13.092  0.2486  0.3358 -0.1392
29831W        W45965   9.830   2.177  13.810  0.1209  0.0406 -0.1702
29832W        W45966   5.843   6.819  14.243 -0.1615 -0.1727 -0.2151
29833W        W45967  15.619   9.493   4.512 -0.0744  0.2569  0.2682
29834W        W45968  16.135  17.239   2.731 -0.0782  0.1854  0.1843
29835W        W45969   5.408   9.840  14.545 -0.0845 -0.0898  0.3296
29836W        W45970  11.272  12.116   5.834  0.0393  0.0294  0.1288
29837W        W45971  17.901  15.422  12.423  0.0087  0.1613 -0.2154
29838W        W45972  11.624  11.044  12.442  0.1620  0.0295 -0.0205
29839W        W45973   8.844   7.487  13.843  0.0628 -0.0640  0.0941
29840W        W45974   8.926   0.734  12.699  0.0417  0.4175  0.1674
29841W        W45975   0.000  15.221   0.089 -0.1553  0.1299 -0.4266
29842W        W45976   0.371  17.456   5.895 -0.2789  0.2160  0.1695
29843W        W45977  15.030  14.906   4.054  0.0370 -0.0254  0.1206
29844W        W45978  12.919  16.445  12.947  0.2734 -0.0703  0.0402
29845W        W45979  16.154  17.886   3.925  0.1790  0.0072 -0.2163
29846W        W45980  12.921   7.637   2.564 -0.2421 -0.0544  0.3111
29847W        W45981  17.750  10.512   0.222 -0.0126  0.0148  0.1493
29848W        W45982   8.453  11.899  13.715  0.1726 -0.2053 -0.0308
29849W        W45983   1.884   6.644  14.930  0.1254  0.1133 -0.1304
29850W        W45984   3.375  14.098  13.899  0.0459 -0.0259  0.1389
29851W        W45985  15.843   5.949  14.735  0.0232  0.3590 -0.1619
29852W        W45986  17.720   4.272   0.413 -0.2911 -0.0046 -0.0743
29853W        W45987  11.378   1.005   2.612 -0.4157 -0.0446  0.0067
29854W        W45988  13.156  15.965  15.255 -0.1674  0.1250  0.0508
29855W        W45989   3.525  12.624   1.382 -0.0898  0.3414  0.0788
29856W        W45990   2.510  13.397  13.158  0.1312  0.0169 -0.0079
29857W        W45991   5.434   4.010  16.034  0.0725 -0.0994 -0.2150
29858W        W45992   8.277  15.079  11.243  0.1476  0.1357  0.0137
29859W        W45993  13.779  13.464   4.653 -0.0687  0.0766 -0.1665
29860W        W45994  16.736   5.771  15.005  0.0623 -0.0303  0.3624
29861W        W45995   8.960  10.472   4.524 -0.0720  0.0248 -0.0272
29862W        W45996   6.314   3.008  11.789  0.2594 -0.0233 -0.1220
29863W        W45997  15.664  13.682   1.864  0.2254  0.2510 -0.0982
29864W        W45998   0.252  15.125   3.440  0.0234 -0.0158  0.0022
29865W        W45999   1.688  17.667  12.961 -0.1661 -0.4719  0.0318
29866W        W46000   0.157   8.566  14.541  0.1813 -0.0773 -0.0377
29867W        W46001  17.410   2.983  13.820 -0.2603  0.3958  0.1737
29868W        W46002   2.327  15.354  15.422 -0.1459 -0.0605 -0.1395
29869W        W46003   7.433   9.935   0.525 -0.2407 -0.0808 -0.0635
29870W        W46004   3.288   5.536  14.433 -0.0356  0.3385  0.1281
29871W        W46005  11.994   6.440  16.092  0.1888  0.0476 -0.2797
29872W        W46006  14.765   0.029   5.648 -0.1074 -0.1547  0.0564
29873W        W46007  14.492   6.039   2.001 -0.2681 -0.1162  0.0395
29874W        W46008  12.900   9.770   2.872  0.3825  0.0548  0.1000
29875W        W46009  15.327   4.145   4.007  0.0246  0.0416  0.2348
29876W        W46010   1.635  12.193  15.519  0.2573  0.0137  0.1621
29877W        W46011  13.430  14.470  13.235 -0.0514  0.0716  0.1927
29878W        W46012  15.778  12.712   4.169 -0.0761 -0.0615  0.1384
29879W        W46013   1.114  12.579   5.599 -0.1894  0.0779 -0.0528
29880W        W46014   1.944  12.708   0.595  0.0726 -0.0013  0.1027
29881W        W46015  10.867  12.222  12.432 -0.2328  0.1009  0.0996
29882W        W46016  15.068  12.369   5.242  0.0365 -0.1527 -0.2664
29883W        W46017  10.404   1.507  10.765 -0.1019  0.2836 -0.1774
29884W        W46018   0.044  13.078   3.023 -0.0867 -0.1379  0.1037
29885W        W46019   0.267  11.645   5.551 -0.1383 -0.1045 -0.2846
29886W        W46020   0.369   5.783  12.502  0.1942  0.1159 -0.0129
29887W        W46021   2.900  14.811  14.932  0.0291 -0.5003  0.1140
29888W        W46022   6.980   8.911  13.599 -0.1400 -0.0745  0.4253
29889W        W46023  15.726  14.631   1.688  0.0886 -0.1171 -0.0728
29890W        W46024   3.025   9.226  11.686 -0.1602  0.2279 -0.1992
29891W        W46025  14.372  13.149   3.950 -0.0226  0.1537  0.0635
29892W        W46026   2.247  15.084  14.981 -0.4777 -0.0660 -0.1679
29893W        W46027  13.017   5.814  13.979 -0.3722 -0.0652  0.2082
29894W        W46028   6.368  15.221   2.061  0.1750 -0.1575 -0.0207
29895W        W46029  15.533   6.873   4.916 -0.3603 -0.0008 -0.3401
29896W        W46030  10.571   7.327   1.107 -0.2377 -0.1413  0.4071
29897W        W46031  14.003   3.245  11.997 -0.0761 -0.3038 -0.0770
29898W        W46032  13.081   3.923   4.149 -0.1080 -0.2028 -0.2720
29899W        W46033   9.890  17.203   3.519  0.1760  0.0402 -0.1247
29900W        W46034  17.846   2.684   3.682  0.1285 -0.0924 -0.0469
29901W        W46035  16.704  12.527  15.916 -0.0666 -0.2185 -0.2640
29902W        W46036   9.590  17.578   0.521  0.1010 -0.0155 -0.2221
29903W        W46037  15.775   9.321  16.586 -0.1601 -0.2344  0.0460
29904W        W46038  14.137  11.469   2.057 -0.0200  0.2143  0.0570
29905W        W46039   0.811   8.801  16.046  0.1168  0.0740  0.1745
29906W        W46040  17.927   7.213   2.286  0.0841 -0.2289  0.1352
29907W        W46041   0.397  13.090  11.434 -0.2868 -0.0597 -0.0913
29908W        W46042   4.980   9.935   0.578 -0.1884  0.2968  0.0976
29909W        W46043   2.672  11.837   2.938  0.2486  0.1789  0.1109
29910W        W46044   0.272  13.863   1.216 -0.0076  0.1588  0.1480
29911W        W46045   5.997   0.173  11.570 -0.0316  0.0717  0.1046
29912W        W46046   3.232   7.529   2.708 -0.1058  0.1670 -0.1125
29913W        W46047   7.830   6.198  13.780  0.3127  0.2103 -0.0075
29914W        W46048  15.557   1.672  11.574 -0.4095 -0.0415  0.1771
29915W        W46049   7.457  12.110   1.680  0.0444 -0.0184 -0.1954
29916W        W46050   3.699   7.202  11.506 -0.0777  0.2209  0.1845
29917W        W46051   8.631   8.329   5.576 -0.0772 -0.1554  0.0610
29918W        W46052   9.390   2.489   1.786 -0.1756  0.0808 -0.2558
29919W        W46053   9.255   7.842   4.379 -0.1998  0.1477 -0.0023
29920W        W46054  14.447  15.358  15.380  0.0539  0.0345  0.0734
29921W        W46055   0.396  14.810  11.286  0.0617  0.3756 -0.0043
29922W        W46056  12.079  16.855  15.680 -0.0522  0.2067  0.2913
29923W        W46057  12.854  14.670   3.048 -0.3966 -0.2255  0.1478
29924W        W46058   8.490   9.228   2.208 -0.2603 -0.1014 -0.0333
29925W        W46059   8.178  12.187   0.641 -0.3085 -0.0200  0.1519
29926W        W46060   2.928  13.398   5.422 -0.0414  0.0020  0.3839
29927W        W46061  15.703  15.810  12.710 -0.1252  0.0053 -0.1138
29928W        W46062   0.721  13.137   2.270 -0.0518  0.0276  0.0790
29929W        W46063  14.470   5.437  11.792 -0.1360  0.0783  0.1297
29930W        W46064   9.767   3.950   3.842  0.1388  0.1056  0.1070
29931W        W46065  17.777   2.421  16.168  0.2131  0.0879 -0.2257
29932W        W46066  15.421  12.342   1.896  0.2531 -0.0757  0.0566
29933W        W46067   3.435  10.301  15.964  0.1164 -0.0900  0.3222
29934W        W46068   6.073   7.441   3.225 -0.0982 -0.1847  0.0160
29935W        W46069  13.239  13.969   1.535 -0.2738  0.1168 -0.3067
29936W        W46070  13.369  11.448   0.870  0.1433 -0.3276  0.0018
29937W        W46071  11.494   9.850  13.954  0.0288  0.0954  0.1138
29938W        W46072  14.341   1.267   0.471  0.3742  0.1834  0.0716
29939W        W46073  14.126  14.072   0.774  0.5025 -0.0883  0.1322
29940W        W46074  16.277   0.290   0.325 -0.0225  0.0508 -0.0923
29941W        W46075  17.941  11.488   2.872  0.1668 -0.1676  0.0588
29942W        W46076  16.101  12.139  13.841  0.1370  0.1893  0.2589
29943W        W46077  12.307  10.889   0.661 -0.2011  0.0811 -0.3939
29944W        W46078   1.385   1.094  12.537 -0.2375 -0.1087 -0.0651
29945W        W46079   5.888   6.485   4.154 -0.1505 -0.3483  0.0528
29946W        W46080   5.443   3.170   0.740 -0.0086  0.2245  0.2152
29947W        W46081  17.016   0.761   1.448 -0.3310 -0.2346  0.1429
29948W        W46082   9.694  15.941  14.106 -0.2473  0.1043 -0.2251
29949W        W46083   2.074  14.490  13.286  0.0195  0.0843  0.2970
29950W        W46084   0.181  10.176   3.986 -0.1750 -0.1986 -0.2409
29951W        W46085   5.520  17.782   6.192  0.2737 -0.1453 -0.1094
29952W        W46086   2.791  10.947   0.748 -0.0522 -0.0995  0.1251
29953W        W46087  13.824   2.395   3.732 -0.1222  0.1246  0.3553
29954W        W46088   5.895   6.981  16.721  0.0876  0.0089  0.0619
29955W        W46089   0.860   0.250  15.843 -0.1461  0.0949  0.0459
29956W        W46090   6.412   7.936  16.399 -0.0638 -0.0647  0.0791
29957W        W46091  12.017   5.165   2.141 -0.1659  0.4509  0.0778
29958W        W46092   5.463   5.703  13.617 -0.0717  0.2295 -0.1280
29959W        W46093   2.553   8.417   0.444  0.1230  0.2265  0.1348
29960W        W46094  16.035  15.573  16.124 -0.1547  0.3267 -0.2092
29961W        W46095   0.501  12.518   3.651 -0.2045  0.0284 -0.2240
29962W        W46096   1.475   3.755   1.934 -0.1956 -0.0947  0.1428
29963W        W46097  11.133   2.325   4.627 -0.1182  0.2274  0.1529
29964W        W46098   0.323  17.627   2.874 -0.2082  0.2016  0.0301
29965W        W46099  17.874   1.952  16.272 -0.1647 -0.0993 -0.0777
29966W        W46100   5.407  14.841  16.662  0.1542 -0.1594 -0.2430
29967W        W46101   3.430   3.871  12.089 -0.0471  0.1725 -0.0042
29968W        W46102   0.475  14.747  12.971 -0.3162  0.0832 -0.1460
29969W        W46103   5.625  13.933  14.107  0.1141 -0.0996 -0.0909
29970W        W46104   7.825  11.914   1.026 -0.0789 -0.0117 -0.0388
29971W        W46105   5.535   2.619  12.530  0.0801 -0.0051 -0.0129
29972W        W46106   7.496  15.560  15.338  0.1208  0.2972 -0.0876
29973W        W46107   9.338   7.803   2.395 -0.1758  0.2538 -0.1838
29974W        W46108   9.065  13.011   0.477  0.2594 -0.0454  0.1203
29975W        W46109  10.818  11.312   2.355 -0.3148 -0.0209  0.0294
29976W        W46110   4.395  15.305  11.820  0.2043 -0.4932 -0.0936
29977W        W46111   2.382   4.471  12.311 -0.0847  0.0096 -0.0356
29978W        W46112   6.666  15.984  12.291 -0.4206 -0.1076  0.1335
29979W        W46113   7.556  17.672  14.593  0.1607 -0.5088  0.1553
29980W        W46114  15.135   4.581  15.082  0.0886  0.2004  0.0962
29981W        W46115   2.663  16.502  11.524  0.1395  0.1690  0.0141
29982W        W46116   4.915  10.634   1.367  0.0514  0.1665 -0.3038
29983W        W46117  12.020  17.208  13.515 -0.1333  0.1219  0.2045
29984W        W46118   9.352   7.292   2.258 -0.1649 -0.3914  0.1529
29985W        W46119   3.758  16.858  14.920  0.0656 -0.1585 -0.0237
29986W        W46120  16.394  12.600   1.976 -0.1152 -0.1924 -0.0076
29987W        W46121   5.460   7.827   2.033  0.2782  0.1029 -0.0894
29988W        W46122  11.502   2.369   6.028  0.0526  0.2383  0.0391
29989W        W46123   0.139  14.060   0.586  0.0890  0.0915 -0.1719
29990W        W46124   2.335  13.663  11.984 -0.2665  0.2672  0.1365
29991W        W46125  11.713   7.496   5.252  0.3703  0.0307 -0.0059
29992W        W46126   2.028  11.931  15.977 -0.0939 -0.0025 -0.0132
29993W        W46127  16.476  12.474  13.759  0.0817 -0.0919 -0.0551
29994W        W46128  16.823  10.608  16.539 -0.0797 -0.0349  0.2117
29995W        W46129  12.066   0.185  14.355  0.0820  0.0057 -0.1051
29996W        W46130  16.734   2.149  15.154  0.0584  0.1192 -0.4146
29997W        W46131  12.537  16.624   0.708  0.0070 -0.2472  0.3095
29998W        W46132   7.579  16.172  13.127 -0.2959  0.1655  0.0009
29999W        W46133   0.840  16.848  12.111 -0.3622 -0.1538 -0.0626
30000W        W46134   9.633   5.344  12.188  0.3401  0.1847 -0.1236
30001W        W46135  14.237  15.375   0.817 -0.1753 -0.2498 -0.0309
30002W        W46136  17.220  17.666  11.997 -0.1225  0.3725  0.0528
30003W        W46137  15.416   3.957   3.536 -0.0454 -0.0396 -0.2403
30004W        W46138  17.756   2.813   4.311 -0.1397  0.2426  0.1393
30005W        W46139  16.685   7.738   4.442 -0.1345  0.0016  0.1232
30006W        W46140  11.235   1.320   3.494  0.3885 -0.0436 -0.0008
30007W        W46141   4.579   3.863   3.983  0.1625 -0.0799  0.1992
30008W        W46142  14.525  12.595   2.769  0.0008 -0.3202 -0.1229
30009W        W46143   2.215  14.042   0.109  0.2257  0.1390 -0.0715
30010W        W46144  13.489  14.012   4.825 -0.0625  0.2017  0.1228
30011W        W46145  11.332  16.967   5.543 -0.1951 -0.1407 -0.1006
30012W        W46146   0.053  13.455   4.487 -0.0729 -0.0926  0.3513
30013W        W46147  11.704  16.815  15.342  0.1347 -0.0130 -0.0891
30014W        W46148   9.144  16.406  13.036 -0.1162 -0.0409 -0.1325
30015W        W46149  14.481  10.841   1.555  0.2976  0.4234  0.0551
30016W        W46150  11.450   5.248   5.320 -0.1490  0.0822  0.3226
30017W        W46151  11.178  13.078   5.056 -0.2803  0.1985 -0.1370
30018W        W46152   3.984  12.662  14.896  0.0734 -0.0598  0.0015
30019W        W46153  17.536  15.536  14.290 -0.2276 -0.0616 -0.0604
30020W        W46154   3.092   4.699   0.716 -0.2539 -0.0404 -0.3161
30021W        W46155   0.964  13.834  11.908  0.0615  0.1804  0.0256
30022W        W46156   3.080   1.781   2.244  0.0322 -0.1903 -0.1475
30023W        W46157  12.372  12.879   3.067 -0.0583  0.0758 -0.0127
30024W        W46158  15.605  14.681  13.381 -0.0555 -0.0526  0.1219
30025W        W46159  14.289  16.549   4.001  0.0587  0.1702 -0.1088
30026W        W46160   4.821  15.090  13.325 -0.1087  0.0090 -0.1915
30027W        W46161   7.353   3.742   0.669 -0.2312 -0.0617  0.0855
30028W        W46162  11.333  14.741   1.031 -0.1673 -0.1834  0.0694
30029W        W46163  11.182   4.967   4.737 -0.1879 -0.1267  0.0026
30030W        W46164  11.259  16.547  11.595 -0.1911  0.1284 -0.1741
30031W        W46165  16.554  16.866   1.942  0.2269 -0.0467  0.0846
30032W        W46166  14.907   5.377   0.536 -0.0580 -0.1180  0.1347
30033W        W46167   6.493   5.887  12.686 -0.4178  0.2497 -0.2571
30034W        W46168   1.278  11.504  10.801 -0.2892 -0.0640 -0.1979
30035W        W46169  13.144   1.200   0.371  0.0670  0.0270 -0.1527
30036W        W46170   0.627  10.205  13.671  0.3404 -0.0199 -0.3391
30037W        W46171   2.413  16.388   3.300 -0.0801 -0.1138 -0.0976
30038W        W46172   5.332   3.860  16.572 -0.2875  0.1063  0.4571
30039W        W46173   3.894   5.812   5.350 -0.0231 -0.1984  0.1073
30040W        W46174  10.797  12.279  11.327 -0.0382  0.0695  0.0789
30041W        W46175  10.134   2.552  15.814 -0.1425  0.2210  0.0735
30042W        W46176  16.838   4.954   1.286 -0.0256  0.1435 -0.0643
30043W        W46177  17.457  10.215   2.294  0.1960 -0.1211 -0.1750
30044W        W46178  16.599  17.395   5.094  0.0184 -0.0169  0.0278
30045W        W46179   0.003  11.239  15.885  0.0985  0.0694 -0.0727
30046W        W46180   1.132  14.207   1.565  0.1930 -0.3371  0.0110
30047W        W46181  17.590   0.505  14.792  0.0606 -0.0827 -0.0224
30048W        W46182  11.924   2.735   3.074 -0.1176  0.0414  0.0541
30049W        W46183   3.909  15.890  14.950 -0.2478  0.1298  0.0374
30050W        W46184   5.109  14.519   4.753  0.2139  0.2436 -0.1383
30051W        W46185  13.147  11.879   1.872 -0.0872 -0.0228  0.0404
30052W        W46186   6.963   0.400   3.136 -0.0681  0.0461  0.2954
30053W        W46187   4.122  14.107  16.329  0.2094 -0.2167  0.1157
30054W        W46188   6.576  15.642   1.188  0.4110  0.0153  0.0817
30055W        W46189  16.237   7.240  15.746  0.1049  0.1691  0.8021
30056W        W46190   8.642   8.765  15.358 -0.1357 -0.2717 -0.1336
30057W        W46191   9.224  14.125   5.625  0.0762  0.0266  0.0698
30058W        W46192   1.585  13.259   5.519 -0.2443 -0.3070 -0.0747
30059W        W46193   6.201  17.260   1.226  0.0818  0.0195 -0.1769
30060W        W46194  15.709   0.980   5.522  0.1734 -0.0168  0.1122
30061W        W46195  16.023  15.493   1.797 -0.1674 -0.0656 -0.1761
30062W        W46196   3.194   6.302  11.577 -0.0457 -0.0866 -0.1972
30063W        W46197  12.618  13.854   0.365 -0.3353  0.1699  0.0721
30064W        W46198   4.261  14.226   3.577 -0.1107  0.0948 -0.2869
30065W        W46199  16.741  16.743  15.308  0.0195 -0.0220 -0.0722
30066W        W46200   8.555  13.035  13.787  0.0414  0.1350 -0.1410
30067W        W46201   1.663  17.955  15.779  0.1310 -0.0641 -0.1868
30068W        W46202  17.401   9.177   3.888  0.0188 -0.0497 -0.0644
30069W        W46203  14.559   1.223   2.013 -0.1423  0.2288 -0.0120
30070W        W46204   9.529   1.048   0.100  0.0733  0.1415 -0.1500
30071W        W46205   0.012  17.959   5.692 -0.1255  0.0217 -0.0807
30072W        W46206   0.211   7.804   1.430  0.1812  0.1427  0.3256
30073W        W46207  12.725   8.003   0.279  0.1780  0.2693  0.2210
30074W        W46208   1.709  15.339   4.504 -0.0463  0.0914  0.0266
30075W        W46209   9.698  13.868  12.646  0.1294 -0.0094 -0.3831
30076W        W46210  15.180  16.999   1.759 -0.2825  0.0849  0.0219
30077W        W46211  17.349   5.147   2.702 -0.2983  0.2651 -0.0303
30078W        W46212  17.778  13.109   4.904  0.2032  0.2702 -0.0068
30079W        W46213   3.651   9.297   3.494  0.0015  0.3680  0.0080
30080W        W46214   5.897   6.031  13.068  0.2280  0.0469  0.0531
30081W        W46215   9.607   1.870   2.642  0.1179 -0.1656  0.1749
30082W        W46216  16.145   7.226   3.222  0.0315  0.0120  0.0032
30083W        W46217   8.023   5.210  13.862  0.3218 -0.1489  0.1768
30084W        W46218   0.100   9.192  11.832  0.0413 -0.1483 -0.2838
30085W        W46219   8.727   4.709  16.710 -0.0383 -0.1156  0.2567
30086W        W46220   0.836   0.504  14.808 -0.0367  0.0332 -0.0781
30087W        W46221   5.282  14.147   0.586  0.1044 -0.4084 -0.2032
30088W        W46222  11.863   2.178  11.680 -0.0352  0.0170 -0.0063
30089W        W46223   5.281  17.403  15.904  0.0805 -0.3694  0.1755
30090W        W46224   5.328   4.080   4.419  0.1780  0.0419  0.2415
30091W        W46225  10.559  13.900   1.231  0.3828 -0.2450 -0.0263
30092W        W46226   4.227  11.920   5.310  0.1274  0.4903  0.1922
30093W        W46227   4.119   0.982   1.963  0.0883 -0.0348 -0.0243
30094W        W46228   2.250   4.333   2.545 -0.1176 -0.1127 -0.2491
30095W        W46229   3.369  10.851   3.388 -0.0180  0.1367  0.1771
30096W        W46230   0.576  16.718   0.008 -0.1793  0.1474  0.2493
30097W        W46231  15.445  17.219  11.958 -0.1309 -0.1431  0.1525
30098W        W46232  14.320   3.031   4.446 -0.2814  0.3743  0.0046
30099W        W46233   1.534   1.910   2.898 -0.0201 -0.3866 -0.3086
30100W        W46234  15.024  11.588   4.209 -0.1924 -0.3827 -0.0485
30101W        W46235   9.083   3.630   3.412  0.1060 -0.0957 -0.2425
30102W        W46236   2.135   9.997   5.199  0.2073  0.3336 -0.2880
30103W        W46237  17.336   2.781   3.362  0.0256  0.0027 -0.3065
30104W        W46238  12.179  13.393   5.214 -0.0709 -0.3305  0.1309
30105W        W46239   6.723  12.791   2.808  0.1984  0.2870  0.1711
30106W        W46240   8.716  17.635   5.952 -0.3453 -0.1907  0.2766
30107W        W46241   3.378   1.007   0.348 -0.1446 -0.2464 -0.1912
30108W        W46242  15.882   2.525  11.226 -0.0545  0.0671 -0.0372
30109W        W46243   3.294   2.383  14.659  0.0481 -0.0126 -0.0126
30110W        W46244   6.283   5.825   1.519  0.2416 -0.2872 -0.1634
30111W        W46245  14.985  10.774  14.829  0.0359 -0.4207  0.2460
30112W        W46246   8.423   0.256  10.552  0.0089  0.1252  0.0792
30113W        W46247   0.264  10.598  16.164 -0.2583 -0.4904 -0.1293
30114W        W46248  16.972  12.053  14.221 -0.0330  0.2966  0.0454
30115W        W46249  17.317   8.985   5.046 -0.3325  0.0678 -0.0486
30116W        W46250  11.616   3.710   5.560 -0.0896  0.2196 -0.0867
30117W        W46251   9.869   0.120  13.060  0.0476  0.1188  0.4152
30118W        W46252   7.980  13.488  12.692 -0.3287  0.0253  0.1344
30119W        W46253  13.989  12.043   0.301  0.1928  0.1275 -0.2262
30120W        W46254   2.928   4.562  11.806  0.1592 -0.2475 -0.1039
30121W        W46255  11.072   1.562  14.182 -0.1526  0.3762 -0.0910
30122W        W46256   4.162   9.185   2.774  0.1462  0.1361  0.2173
30123W        W46257   8.769   5.998   0.662  0.1175 -0.1450 -0.1132
30124W        W46258  11.698   0.837  15.748  0.2094  0.1362 -0.1774
30125W        W46259  17.708  11.991   2.962  0.1638  0.2268  0.0036
30126W        W46260   1.642   8.921  13.021 -0.0920 -0.1676  0.3067
30127W        W46261  10.021  17.036  14.474 -0.1438  0.3245 -0.3235
30128W        W46262  10.829  10.222   3.203 -0.1038  0.0668 -0.2761
30129W        W46263   3.620   1.949   0.959  0.2019  0.2214  0.2988
30130W        W46264  16.878  12.851  14.663  0.1422  0.3669 -0.0127
30131W        W46265   4.192   0.914   0.939  0.1623 -0.0150  0.0020
30132W        W46266   6.533   5.014   2.066  0.0325  0.0188  0.0633
30133W        W46267  16.642   1.837  16.069 -0.2719 -0.1484 -0.1236
30134W        W46268  11.805   9.528  11.610 -0.1234  0.1208 -0.2647
30135W        W46269  12.531   9.375  14.544 -0.1414 -0.2647  0.1048
30136W        W46270  15.838   6.083  13.225 -0.1252  0.1065  0.2134
30137W        W46271   8.908   0.528   0.231  0.0515  0.0681 -0.1421
30138W        W46272  17.185   0.639  11.534 -0.1968 -0.1981 -0.3195
30139W        W46273   9.374  14.555  11.087 -0.0038  0.1397 -0.0117
30140W        W46274  17.917  13.597   1.544 -0.1261  0.1512  0.0888
30141W        W46275  11.510  10.069   4.129  0.0272  0.0154 -0.1973
30142W        W46276   6.514  15.178   5.426 -0.3738  0.2379 -0.1767
30143W        W46277  17.026   7.810  15.845  0.3109 -0.1865 -0.0224
30144W        W46278  13.224  13.760  13.714  0.1221  0.1899  0.2557
30145W        W46279  10.577   6.230   1.040 -0.1457 -0.0900 -0.0356
30146W        W46280   1.655  12.387   3.183  0.1213  0.0647 -0.1790
30147W        W46281  10.359   8.057  14.995 -0.1477  0.1356  0.1514
30148W        W46282  10.624  16.095   3.732 -0.1321  0.2082  0.1350
30149W        W46283  17.169  15.108  14.361 -0.1488  0.0795  0.1199
30150W        W46284  14.537  10.221   2.784  0.0720 -0.0552  0.0761
30151W        W46285   4.381   7.435  14.268 -0.2506 -0.3060 -0.1184
30152W        W46286  16.317   3.020  15.270  0.1636 -0.0744  0.1464
30153W        W46287  16.686   0.067  13.228  0.0131 -0.2714  0.4574
30154W        W46288   8.869   5.325   2.798 -0.0008 -0.1258  0.0925
30155W        W46289  13.309   1.118  11.811  0.0225  0.0596  0.3736
30156W        W46290  12.834   5.420   3.080 -0.0910 -0.0625  0.1046
30157W        W46291   8.978  17.033  16.095 -0.0522  0.0479  0.1822
30158W        W46292  12.814  10.560  15.640 -0.3091 -0.0687 -0.2880
30159W        W46293  17.190   6.092   5.055 -0.0100  0.1156  0.1422
30160W        W46294   6.993  13.906   1.911  0.1221 -0.1358 -0.1142
30161W        W46295   4.698  15.158  14.599 -0.1952 -0.2963  0.0082
30162W        W46296  10.288  17.815  13.146  0.2654 -0.1152  0.1363
30163W        W46297  12.362   2.281  12.307 -0.0680 -0.3123 -0.0897
30164W        W46298  17.536   7.346  13.450 -0.0063  0.0138  0.1745
30165W        W46299   6.304   6.186  14.878  0.0338 -0.2808 -0.0995
30166W        W46300  15.966  13.401   2.694  0.3042 -0.3310  0.3252
30167W        W46301  14.989  11.591   1.774  0.0660 -0.1493 -0.0432
30168W        W46302   0.178   4.434   2.829 -0.4183 -0.2490 -0.1668
30169W        W46303  16.784   1.381  16.244  0.3706  0.2458 -0.0303
30170W        W46304  14.493   4.990  12.579 -0.3861  0.4099  0.0647
30171W        W46305  16.023  12.009   2.609 -0.0798  0.3495 -0.0316
30172W        W46306  15.559   3.369  15.954 -0.0929  0.2183  0.2647
30173W        W46307   1.184  12.053   0.070 -0.4925 -0.1577 -0.1136
30174W        W46308  14.921  15.745   3.862  0.1703 -0.0513  0.0284
30175W        W46309  11.683   5.004   1.330 -0.2530 -0.0990 -0.0077
30176W        W46310  14.384  16.357  14.031 -0.2832 -0.1293  0.1450
30177W        W46311  16.093   3.870  12.495 -0.2654 -0.1284  0.2279
30178W        W46312  10.121   8.738  12.283  0.2220 -0.2447 -0.0754
30179W        W46313  15.951  11.729  14.215 -0.2827 -0.1729  0.0286
30180W        W46314   7.940   7.903   5.065  0.6090 -0.0267  0.1378
30181W        W46315   5.550  10.695   5.077 -0.0053 -0.2836 -0.0152
30182W        W46316   9.733   5.041  11.445 -0.2952 -0.1053 -0.2777
30183W        W46317   6.818  17.077  16.038  0.1200  0.2878 -0.1242
30184W        W46318   1.652  17.617  11.350 -0.1101 -0.2874  0.0301
30185W        W46319   8.872   3.354   0.141 -0.0786  0.0461  0.0326
30186W        W46320   4.916  11.126   2.769  0.2469 -0.0367 -0.0341
30187W        W46321   5.880  17.006   3.371  0.0503  0.1321 -0.2077
30188W        W46322   7.673  11.286   5.380 -0.4030 -0.1105  0.0386
30189W        W46323   6.627  13.198  14.794  0.0949 -0.1639  0.1465
30190W        W46324  11.060  10.827  14.374 -0.2353 -0.1180 -0.0410
30191W        W46325   1.894   1.083   3.388  0.0851 -0.2240  0.1432
30192W        W46326  11.651   0.564   2.432 -0.0087 -0.0687 -0.2805
30193W        W46327  13.806  11.850   3.371 -0.0442  0.0104  0.1667
30194W        W46328   9.785   1.692   4.426 -0.1719 -0.1392  0.0254
30195W        W46329  12.917  15.505  15.399  0.0004 -0.0132 -0.1789
30196W        W46330   2.748   2.612  15.778 -0.0304 -0.0852 -0.0350
30197W        W46331   3.765  14.110   2.480 -0.0715 -0.0766 -0.0113
30198W        W46332   2.903   8.358   4.259  0.1151 -0.2299 -0.2737
30199W        W46333  10.562  15.715  10.903 -0.0320 -0.2378  0.2184
30200W        W46334   5.857  13.585   2.573  0.1480 -0.0135  0.0982
30201W        W46335   6.418   1.424   5.051  0.2158  0.0610  0.2934
30202W        W46336  12.640   4.842   5.302 -0.0117  0.1355 -0.2982
30203W        W46337  13.092   9.066  12.891  0.0497 -0.2030 -0.1781
30204W        W46338  14.426   1.824  12.697 -0.2477  0.0228  0.0741
30205W        W46339   1.775   0.152  16.324  0.1499  0.4474 -0.4449
30206W        W46340   8.134  14.721   0.083 -0.2694 -0.1873 -0.0582
30207W        W46341   5.500   6.146  13.377 -0.2982 -0.0582 -0.1004
30208W        W46342   3.741  15.813  12.205  0.2201 -0.3017  0.1403
30209W        W46343   2.757  14.055   0.980 -0.2106 -0.0647 -0.2263
30210W        W46344  13.589   0.378   0.830  0.1018 -0.0487  0.0392
30211W        W46345   4.021  13.814  14.651 -0.3489  0.1309  0.0675
30212W        W46346   1.684   8.486   3.219 -0.1865 -0.1763  0.3822
30213W        W46347   3.196  12.153  13.443  0.3941  0.1667  0.0080
30214W        W46348  17.023   5.662  13.889  0.1606 -0.2981  0.0072
30215W        W46349   3.476   5.123   3.744  0.0941 -0.1992  0.0833
30216W        W46350  11.110   1.163   0.276 -0.3385 -0.1245 -0.1936
30217W        W46351  12.499  15.148  13.473  0.0857  0.2368 -0.1352
30218W        W46352  12.644   6.830   4.475 -0.0746  0.1975  0.0883
30219W        W46353  17.031  16.360   4.101 -0.2124  0.3647  0.1892
30220W        W46354   0.700  15.337   3.149  0.1381 -0.1143 -0.1793
30221W        W46355  16.257  14.029   4.144 -0.1614 -0.2020 -0.0329
30222W        W46356   5.405   8.757  12.318 -0.2155 -0.0923  0.0671
30223W        W46357   3.428   6.774   2.552 -0.0021  0.2721  0.0630
30224W        W46358   1.148   2.184   2.654 -0.2284  0.1727 -0.0355
30225W        W46359   7.107   3.886  13.260  0.0929  0.1004 -0.0118
30226W        W46360   2.878   4.246  12.281  0.3437 -0.3401  0.2530
30227W        W46361  17.598   9.750   2.396  0.0941 -0.0315 -0.2271
30228W        W46362  13.641   0.166  13.321  0.2009  0.2801  0.0541
30229W        W46363   8.064   7.100   1.739  0.3196 -0.0132  0.0856
30230W        W46364  17.900  11.310   0.190 -0.1795 -0.4424 -0.2892
30231W        W46365  15.413  12.585   3.184 -0.0566  0.1393  0.1232
30232W        W46366  14.074   1.930   4.417 -0.2693  0.0099 -0.0410
30233W        W46367  15.230  16.515   1.685  0.1676 -0.0881  0.2263
30234W        W46368  17.775  13.556  14.417  0.1348 -0.0232  0.0038
30235W        W46369  11.839  11.360  15.367  0.0828  0.0770  0.0480
30236W        W46370   3.255  16.847  16.092 -0.1755 -0.0562 -0.0373
30237W        W46371   7.740   3.241   4.861 -0.0298 -0.0858 -0.2078
30238W        W46372   1.980   0.968  12.706 -0.1140  0.0972  0.1587
30239W        W46373  17.449  14.756  13.212  0.0498  0.0448  0.0650
30240W        W46374  16.151  13.639   3.200 -0.0387  0.2699 -0.0529
30241W        W46375   0.897  12.700  16.166  0.1125  0.2567 -0.1656
30242W        W46376  14.345   8.323   2.326 -0.0186 -0.3137 -0.1833
30243W        W46377   1.558   8.377   6.204 -0.0823 -0.0007 -0.3747
30244W        W46378   4.029   1.604  12.384  0.4067 -0.0904  0.2711
30245W        W46379   4.447  13.950   0.957 -0.1336  0.1707  0.3895
30246W        W46380   0.158  15.046  13.184 -0.0779 -0.1667  0.0397
30247W        W46381   2.784   9.240  14.929 -0.3015  0.0837 -0.1776
30248W        W46382  10.079   4.545   0.029  0.2016 -0.1449 -0.1119
30249W        W46383  15.194   1.168  11.702 -0.0999 -0.0601 -0.1018
30250W        W46384  17.327   0.777  15.780 -0.0203  0.1785  0.0839
30251W        W46385  15.432   9.126  15.028  0.0289 -0.0086  0.3203
30252W        W46386  17.617   0.580   4.518  0.0715 -0.0348  0.0796
30253W        W46387  10.489   4.404   5.337 -0.1987  0.0167 -0.2554
30254W        W46388   2.465  15.271  11.731  0.2574 -0.0308 -0.1007
30255W        W46389  16.747  17.979   2.636  0.1562  0.3929  0.2308
30256W        W46390  15.148   8.625   1.925  0.0638 -0.2364  0.0041
30257W        W46391  10.253  11.385  13.078 -0.1797 -0.1651  0.0727
30258W        W46392  17.866  14.075  12.757  0.0457 -0.2341  0.1681
30259W        W46393   1.344   3.726  12.200  0.4086  0.1941 -0.0520
30260W        W46394   9.924   7.943   3.591 -0.1689 -0.3071 -0.4250
30261W        W46395  17.708  15.276   4.492 -0.0700  0.2153 -0.2703
30262W        W46396  14.059  11.983  16.581 -0.1257  0.0145  0.1739
30263W        W46397   2.525  15.922   2.739  0.0916 -0.1228 -0.0940
30264W        W46398   6.929  15.473  11.402  0.0337 -0.0715  0.0507
30265W        W46399  17.815   1.429   4.292 -0.2779 -0.1018  0.0216
30266W        W46400   3.559  13.733   2.112 -0.0120  0.1929  0.1166
30267W        W46401  17.290  13.748  16.635  0.0403  0.0311  0.1106
30268W        W46402  10.156   5.197   0.792  0.2407 -0.0313 -0.1646
30269W        W46403   0.338   3.676   0.931 -0.0251 -0.1927 -0.3522
30270W        W46404  11.295   5.752  15.736 -0.0859  0.1846 -0.0844
30271W        W46405  15.031   2.190   3.444 -0.0654  0.1851 -0.1066
30272W        W46406  17.628  12.083   6.183  0.3852  0.2529  0.0492
30273W        W46407   7.020  12.846  12.519  0.3325  0.0400 -0.1394
30274W        W46408  10.424  15.667   5.381  0.2187 -0.1679 -0.2566
30275W        W46409   8.761   7.903   4.504  0.0002  0.0643 -0.3454
30276W        W46410  14.497  14.963   4.398  0.1117  0.1952 -0.2117
30277W        W46411  10.387   8.217   1.747  0.2924 -0.1054 -0.0019
30278W        W46412   2.122   8.349   0.870 -0.0609 -0.0157  0.1635
30279W        W46413  16.341  10.775   6.594 -0.1789 -0.1367  0.0975
30280W        W46414   2.436  16.630  13.928 -0.2474 -0.0997 -0.0535
30281W        W46415   7.238  13.281   4.931  0.3096 -0.0223  0.0966
30282W        W46416   8.314   0.332   3.640 -0.4893  0.2048 -0.0514
30283W        W46417   9.781   3.609  13.757  0.1850 -0.1746 -0.0080
30284W        W46418   7.845  12.720   1.387  0.4285  0.1083 -0.0926
30285W        W46419   1.897   1.588  14.896 -0.3912  0.2595 -0.1726
30286W        W46420  16.348  16.618  14.400 -0.2233  0.0620  0.3939
30287W        W46421  10.616  14.389  14.735  0.0037  0.1795 -0.0384
30288W        W46422   4.864  11.066  16.252 -0.0460 -0.3182  0.3095
30289W        W46423   9.428  11.195   2.086 -0.2774  0.3084  0.1519
30290W        W46424  17.784   7.038  13.164  0.0163  0.3606 -0.3406
30291W        W46425  13.744   9.880   3.243  0.1465 -0.1657 -0.3478
30292W        W46426  10.467  12.604  14.937 -0.0520  0.0810  0.4116
30293W        W46427  13.382   5.849   1.457  0.1782 -0.1026  0.2458
30294W        W46428   4.857   5.295  12.787  0.2030  0.0005  0.0140
30295W        W46429  17.837  17.823   4.944 -0.0932  0.1794 -0.0913
30296W        W46430   0.559   7.984   2.045 -0.1155  0.0570  0.2751
30297W        W46431   1.419   2.268  16.362 -0.1249  0.0817 -0.2845
30298W        W46432   9.835   2.118  14.800 -0.1746  0.2129 -0.0391
30299W        W46433   3.580   0.607   2.589  0.2103 -0.1443 -0.2037
30300W        W46434  14.162   9.082   0.473  0.1241 -0.1110  0.0329
30301W        W46435   2.022   6.970  11.985  0.1888  0.2010  0.3415
30302W        W46436  12.912  16.429  14.406  0.5094  0.0826  0.0617
30303W        W46437  14.039   1.669   0.003  0.0781  0.1903 -0.1652
30304W        W46438  15.274   0.495  15.874  0.0219 -0.1390  0.3127
30305W        W46439  14.943   7.730   4.146 -0.2037 -0.0242 -0.1467
30306W        W46440  12.361  15.497   5.359  0.0131  0.1139 -0.0027
30307W        W46441   9.313   8.230  11.198  0.0853 -0.0021 -0.3625
30308W        W46442  12.526   9.814  14.765 -0.0893 -0.0297  0.0845
30309W        W46443   8.665   6.954   4.902  0.0328  0.2590  0.0420
30310W        W46444   7.792  11.695  14.449 -0.0149 -0.1684 -0.0633
30311W        W46445  14.198  16.615  10.628 -0.3194  0.2577 -0.2259
30312W        W46446   6.741   4.710   5.380  0.2035  0.0267  0.0356
30313W        W46447   1.893  17.472   2.299  0.1596 -0.2235 -0.1242
30314W        W46448   6.725   4.186  14.690 -0.0569  0.3928  0.0460
30315W        W46449   0.301  11.091  12.681  0.1073  0.1390  0.0951
30316W        W46450  12.205   1.242   3.284  0.0184  0.1364  0.0001
30317W        W46451   3.515   6.392  13.995  0.3067 -0.0716  0.2785
30318W        W46452   4.369  10.017  13.340 -0.2636 -0.0677 -0.1341
30319W        W46453   3.720   3.473  12.251 -0.3021 -0.0179  0.0599
30320W        W46454   8.615   9.316  11.117 -0.1300  0.3101  0.0228
30321W        W46455   1.018  11.152  12.740  0.3353 -0.3006 -0.1635
30322W        W46456  17.547  12.354   2.654  0.0880 -0.0923 -0.0102
30323W        W46457   3.639   7.265   4.140 -0.0639 -0.3455 -0.1008
30324W        W46458   9.861   6.434  15.390  0.1328 -0.1076 -0.2356
30325W        W46459  16.165   1.432   3.162  0.1036  0.2743  0.0430
30326W        W46460  15.975  12.845   5.223  0.1690 -0.3061 -0.0779
30327W        W46461   8.757   0.648  15.735 -0.1522  0.0191 -0.1598
30328W        W46462   4.420  11.907  12.820  0.0792 -0.0871  0.0485
30329W        W46463  17.385   6.171  14.738 -0.4097 -0.1738 -0.3678
30330W        W46464   5.315   4.079  14.686 -0.5209 -0.2071 -0.0218
30331W        W46465  13.514   0.976   2.692 -0.0685 -0.1159  0.3145
30332W        W46466  16.266   5.944  16.187  0.2368  0.2048  0.3194
30333W        W46467  12.304   4.703  14.079  0.0138 -0.1595 -0.2397
30334W        W46468   2.823  16.930   5.262  0.1165 -0.1696  0.0715
30335W        W46469   7.212   3.577   1.116 -0.1844 -0.0917  0.2697
30336W        W46470   5.006  12.263  11.935 -0.5384 -0.2458 -0.0754
30337W        W46471  15.080  11.248  14.502 -0.2099  0.1738  0.0010
30338W        W46472   9.655   6.604  16.705  0.1197  0.0446 -0.0083
30339W        W46473   0.900   2.642  12.785  0.4085  0.0741 -0.3781
30340W        W46474  14.118  12.236   5.077 -0.0448  0.2491 -0.2105
30341W        W46475   9.183  11.748   2.275  0.1296  0.0713  0.4311
30342W        W46476   7.611   3.259   0.705  0.1172 -0.1102 -0.0494
30343W        W46477   0.944   0.341  11.329 -0.0950  0.1601 -0.1674
30344W        W46478   8.017  14.958   2.842  0.0048 -0.1161 -0.1883
30345W        W46479   4.559   2.022  13.435 -0.0448 -0.0136 -0.1693
30346W        W46480  13.952  14.930  14.022 -0.2501 -0.0950  0.0492
30347W        W46481   2.023  14.381  15.822 -0.1897  0.1121 -0.1414
30348W        W46482   2.932  14.263  14.858  0.2071  0.2985  0.0912
30349W        W46483  15.916   4.290  15.235 -0.0858 -0.2373 -0.3015
30350W        W46484  10.750   0.287  14.638  0.0674  0.0863 -0.1481
30351W        W46485  15.060   5.316   1.600 -0.0890 -0.0492  0.2213
30352W        W46486   4.577  15.036   4.811  0.1582 -0.5386 -0.2991
30353W        W46487  17.376   4.898   3.609 -0.3440  0.2273 -0.0351
30354W        W46488   5.596  16.040   0.857 -0.2681  0.2365  0.1501
30355W        W46489   8.397  15.549  16.142  0.1598  0.2687 -0.0845
30356W        W46490   8.552  12.998   5.364 -0.0753 -0.0612 -0.1497
30357W        W46491  12.156  13.332  15.046 -0.1344  0.2502  0.3233
30358W        W46492   0.011  15.655  14.507 -0.1712 -0.3719  0.1385
30359W        W46493   7.077   3.803   4.898  0.3701 -0.0321  0.2585
30360W        W46494  11.291  14.351   0.648  0.2258 -0.5437  0.1114
30361W        W46495  13.160   0.238   1.531 -0.3367 -0.3789  0.1895
30362W        W46496   2.292  11.220   4.410 -0.2442 -0.1358  0.2740
30363W        W46497   8.484   5.799  16.332 -0.2170  0.1464  0.1931
30364W        W46498   7.864   6.957  14.699 -0.1007 -0.1504 -0.3825
30365W        W46499  13.655   0.553   2.263 -0.0286 -0.2703 -0.1026
30366W        W46500   9.602   9.302  11.425 -0.0374 -0.0294 -0.1335
30367W        W46501   2.048   9.275  11.725  0.2052 -0.1250  0.1452
30368W        W46502  15.721  17.020  15.966 -0.0057  0.2714 -0.1144
30369W        W46503   1.545  17.663   0.911  0.4284  0.1572  0.2778
30370W        W46504   9.946  12.761  14.055 -0.1625 -0.2036 -0.0877
30371W        W46505   2.898  14.993   4.166  0.4584 -0.1834  0.0306
30372W        W46506  17.535   1.050  13.607 -0.0906 -0.0779 -0.2940
30373W        W46507   1.286  15.947  12.979  0.0707  0.2359 -0.1325
30374W        W46508  15.656  15.952  13.596  0.2108  0.1621 -0.3059
30375W        W46509  14.500  16.345  16.365 -0.0630 -0.3075  0.0640
30376W        W46510   5.361   4.147   3.431 -0.0231 -0.5073  0.2724
30377W        W46511   6.091  14.885   5.234  0.0451 -0.4779 -0.2247
30378W        W46512   4.559   8.008   5.586  0.1029  0.0699 -0.1796
30379W        W46513   2.500  15.953  13.374  0.1431  0.1310  0.0070
30380W        W46514   6.747   1.452   3.306 -0.0085  0.3282  0.3144
30381W        W46515   7.346   5.417   1.823  0.2490  0.0594 -0.1318
30382W        W46516   6.778   4.556  12.118 -0.0074 -0.1288 -0.0698
30383W        W46517   7.131   1.773  13.317  0.2429 -0.2225  0.2388
30384W        W46518  12.842   2.058   4.658  0.0018 -0.0103  0.1940
30385W        W46519  16.899   4.786  13.524 -0.1265  0.1945  0.1738
30386W        W46520   7.198  10.353   4.490  0.0563  0.3053  0.1927
30387W        W46521  17.788  17.746  12.745 -0.1627 -0.2348  0.3231
30388W        W46522   9.053  16.033   4.938  0.1865 -0.2316  0.0027
30389W        W46523   1.733  14.139   4.423 -0.0006  0.0353 -0.4156
30390W        W46524   0.660  17.249   6.304 -0.0755  0.1812 -0.3670
30391W        W46525   6.866   9.091  13.049 -0.2543 -0.3265  0.0803
30392W        W46526   2.588   6.356   1.099 -0.1406  0.1339  0.1649
30393W        W46527   3.122   8.761  11.910  0.1708  0.0212  0.2744
30394W        W46528   8.807   8.453   2.372  0.1645 -0.1230  0.1786
30395W        W46529  11.719   7.189  14.284  0.2213 -0.2022  0.1233
30396W        W46530  11.843   2.328   5.146  0.0811  0.1300 -0.1402
30397W        W46531  12.611  11.199  16.270  0.0963 -0.1850  0.0147
30398W        W46532   7.935   3.968  15.190  0.0090  0.1845 -0.0060
30399W        W46533   8.020  17.853  12.760 -0.4560  0.0598 -0.2952
30400W        W46534   1.021   2.783  13.590 -0.2435 -0.0202 -0.0466
30401W        W46535  14.941  10.316  12.038 -0.3059 -0.1079  0.0742
30402W        W46536   4.093  15.668   0.660 -0.0087  0.0398  0.2997
30403W        W46537   6.995   4.731   1.016  0.0155  0.0606 -0.1197
30404W        W46538   2.355   7.081   3.907 -0.1690 -0.1240  0.0818
30405W        W46539   7.601   6.251  14.365 -0.2787 -0.3566  0.1223
30406W        W46540  10.655  11.620  13.309 -0.2292  0.0940  0.1370
30407W        W46541  10.721   8.143  10.886  0.2986  0.0857 -0.5360
30408W        W46542   5.466   4.700   0.332 -0.3072  0.1305 -0.0137
30409W        W46543  14.633  15.532  16.300  0.0783 -0.1120 -0.2065
30410W        W46544  14.097  17.615   2.208  0.2900  0.1696 -0.1149
30411W        W46545   1.905   0.946  14.246  0.0106  0.0212 -0.3030
30412W        W46546   5.124   0.084   2.790 -0.1658 -0.1303  0.0314
30413W        W46547   0.840  11.055   4.569  0.1018 -0.0503 -0.1886
30414W        W46548   1.280   1.277   3.552 -0.0656 -0.1748  0.0242
30415W        W46549  10.304  15.801  16.422  0.1428 -0.0156 -0.1000
30416W        W46550  16.866  13.207   2.501  0.0817 -0.4081  0.3618
30417W        W46551   9.489  10.005   3.845  0.1585  0.1097  0.2170
30418W        W46552  15.146   8.960   3.746 -0.1730  0.2303  0.0177
30419W        W46553   2.168  10.303   3.794  0.0141 -0.3171 -0.0263
30420W        W46554   7.207   5.100   3.188 -0.0868 -0.0435  0.1607
30421W        W46555   0.774  11.112   5.040  0.2589  0.1930  0.2207
30422W        W46556   0.351   9.498   3.895 -0.1180  0.1029  0.1729
30423W        W46557   7.950  10.721  13.619  0.3942  0.3284 -0.1488
30424W        W46558   9.429   0.559  13.963 -0.0365 -0.0203 -0.0903
30425W        W46559  14.557  15.175  13.784 -0.0379 -0.0334 -0.0311
30426W        W46560  17.461   7.840   0.928 -0.5046  0.0289 -0.0293
30427W        W46561   9.103   5.218  12.202 -0.0383 -0.2157  0.2788
30428W        W46562   0.424   3.151  16.252 -0.1469 -0.2516 -0.2818
30429W        W46563  10.412  17.476   2.505  0.0464  0.1800 -0.0526
30430W        W46564   3.810   2.967  12.318 -0.4239  0.3447  0.1928
30431W        W46565   2.367   7.612   3.160  0.1778 -0.0511 -0.0168
30432W        W46566   8.143   9.418  11.204  0.2171 -0.4950 -0.0063
30433W        W46567   3.695   1.906  14.923 -0.1154 -0.1083  0.2380
30434W        W46568   4.991   5.638   3.982  0.2093 -0.0612  0.1380
30435W        W46569   9.638   3.136  15.090 -0.0330 -0.1714  0.0827
30436W        W46570   5.001   0.346  12.839 -0.0170 -0.0123 -0.0590
30437W        W46571   0.714   2.727   3.534 -0.0124 -0.4155  0.0183
30438W        W46572   5.680  10.459  11.728 -0.1251  0.1055  0.0235
30439W        W46573   0.371  17.792  12.843  0.0472  0.3437 -0.0744
30440W        W46574   9.135  14.797   1.185  0.0463 -0.0879  0.2609
30441W        W46575   4.436  15.541   3.532  0.0935 -0.1608  0.0758
30442W        W46576  13.932   0.978   0.513 -0.0549  0.1555  0.2862
30443W        W46577  10.517   1.312   4.318  0.1477  0.3061 -0.3046
30444W        W46578  15.613   8.789  15.958 -0.0694  0.2584  0.0412
30445W        W46579   9.963  12.622  14.974 -0.3494  0.0267 -0.2174
30446W        W46580   1.740  15.819  11.471  0.2159  0.2594  0.0905
30447W        W46581   8.791  17.570   4.850 -0.2417  0.1077  0.0153
30448W        W46582  11.899  12.814  16.687  0.1031  0.2341 -0.0236
30449W        W46583  16.014   7.407  15.346  0.3976  0.4248 -0.2456
30450W        W46584  16.819  16.681   2.351  0.1649 -0.2552 -0.0323
30451W        W46585   8.464   2.988   0.903 -0.1141  0.1811  0.4349
30452W        W46586  15.639  12.521   0.070  0.2413 -0.1254 -0.1301
30453W        W46587   1.901  11.086  15.179 -0.0963  0.0397 -0.0351
30454W        W46588   2.826   8.528   2.885 -0.0553 -0.1238 -0.3744
30455W        W46589   5.084   4.567   0.630  0.1672  0.2243 -0.0248
30456W        W46590   7.576   7.436  12.064 -0.0198 -0.3301 -0.0295
30457W        W46591   7.605   2.290  15.858 -0.0598 -0.2502 -0.2028
30458W        W46592  17.746  15.795   5.694  0.0555  0.0975  0.1578
30459W        W46593   0.439   6.664  14.138  0.1900  0.1120 -0.1874
30460W        W46594   0.927  14.563   4.494 -0.2491  0.1845  0.1773
30461W        W46595  13.064  16.820   2.364  0.4596 -0.1271  0.2748
30462W        W46596  17.101   4.831  12.751  0.0618  0.0514  0.1411
30463W        W46597   7.054  14.754   0.312  0.0438  0.2026 -0.0446
30464W        W46598   3.159   4.793   4.178 -0.1017  0.0535  0.1648
30465W        W46599   8.331  11.716   0.484  0.0239  0.0195 -0.0205
30466W        W46600  15.877   1.212   5.047 -0.0414 -0.2083 -0.0173
30467W        W46601   1.065  15.423   0.396  0.1663  0.1210  0.0182
30468W        W46602   4.676   2.823   1.265 -0.2211  0.2871 -0.1024
30469W        W46603  15.106   2.816  14.877  0.0743  0.0756 -0.0780
30470W        W46604  16.085   9.149   1.225 -0.0270 -0.0551 -0.1544
30471W        W46605   0.189   3.573   3.042 -0.2793 -0.1465 -0.1026
30472W        W46606  16.495  15.533  12.080 -0.2739 -0.0684 -0.0965
30473W        W46607  12.527  13.857   6.286 -0.0478 -0.3520  0.1621
30474W        W46608   4.930   0.043  13.323  0.0223  0.1866  0.0420
30475W        W46609   0.070  15.510   3.954  0.1383  0.1579  0.3084
30476W        W46610  12.320  12.052  12.412  0.1025 -0.0051  0.1188
30477W        W46611  11.897   0.177   0.126  0.0919  0.0921  0.3250
30478W        W46612  12.646  15.181  16.396  0.2750 -0.0179 -0.0472
30479W        W46613   2.768  11.465   5.205  0.4071  0.0472  0.0166
30480W        W46614  10.197   9.066   2.916  0.4803 -0.0735  0.1673
30481W        W46615   9.306   0.264  12.421  0.0182  0.1871 -0.1783
30482W        W46616   7.170  11.380  11.144  0.1642  0.2066 -0.0631
30483W        W46617  11.656   3.644   1.010 -0.0919  0.1233  0.2139
30484W        W46618   8.729   5.943  14.858  0.1866  0.0860  0.2877
30485W        W46619   8.491  17.245  16.102  0.0948  0.0041  0.0493
30486W        W46620   1.315  15.496   1.851  0.0407  0.1232  0.2758
30487W        W46621  17.179  14.463   2.842 -0.4198  0.1233  0.1052
30488W        W46622  10.587   5.420   3.410 -0.1062  0.1742  0.1794
30489W        W46623   4.128   1.983   3.702 -0.5127  0.1318  0.1034
30490W        W46624  16.517   9.110   0.520 -0.2282  0.2193 -0.1460
30491W        W46625  11.410  11.982  16.471 -0.1263  0.1915 -0.0963
30492W        W46626   7.257   3.491  15.661  0.1459  0.3222 -0.3488
30493W        W46627   3.543  15.080  11.758  0.2193 -0.2730  0.1605
30494W        W46628  13.288  17.051   4.670 -0.1464  0.1417  0.3376
30495W        W46629   4.810   4.182   3.719  0.0902  0.1994 -0.3184
30496W        W46630  13.544   6.174   2.207  0.1354  0.2631  0.2731
30497W        W46631   0.325  10.832   1.844  0.2726 -0.1187 -0.1552
30498W        W46632  12.642  10.295   1.232  0.0061  0.3117 -0.2019
30499W        W46633  17.827   5.078  12.366  0.1647  0.1413  0.4428
30500W        W46634  10.874   5.439   1.877  0.4261  0.0137 -0.2459
30501W        W46635  16.433   3.371  11.606 -0.0690  0.0452 -0.1507
30502W        W46636   4.929  10.223   4.613 -0.0598 -0.1514  0.1125
30503W        W46637  17.042   3.951   1.197 -0.1907  0.1416  0.0430
30504W        W46638   1.160   1.725   4.709 -0.0349 -0.0439 -0.1185
30505W        W46639   7.469  15.838   0.995  0.0252 -0.2039  0.2415
30506W        W46640   8.822   2.717   0.726 -0.0010  0.3209  0.4121
30507W        W46641  14.756  16.536   3.721  0.1156 -0.1531  0.0607
30508W        W46642   7.325  14.830  10.949  0.0517 -0.1016 -0.3009
30509W        W46643   6.844   7.755  16.652  0.1029 -0.2971  0.1878
30510W        W46644   2.931   9.158   3.515 -0.1206  0.0683  0.0239
30511W        W46645  12.919  11.433  12.142 -0.0247  0.1087 -0.3454
30512W        W46646  11.775   7.158   5.586  0.0279  0.1583  0.1117
30513W        W46647   7.826  11.056   3.647 -0.4338  0.0048  0.0171
30514W        W46648   4.320  10.391  13.697 -0.0194  0.0369 -0.0988
30515W        W46649  14.791  16.350  12.940 -0.1390 -0.0084 -0.2491
30516W        W46650  11.490   2.908   2.050 -0.2246 -0.2279 -0.2300
30517W        W46651   8.574  15.492  15.263 -0.2237 -0.1913  0.0171
30518W        W46652   1.886   0.173  11.518  0.0865  0.2924  0.1714
30519W        W46653   6.521   1.730  16.059  0.1172  0.0565 -0.0065
30520W        W46654  17.834  17.136   3.731 -0.0965 -0.0255  0.1473
30521W        W46655  16.429   1.892  16.541 -0.2613  0.0544 -0.1767
30522W        W46656   5.820   4.033   2.177 -0.5212  0.1616  0.0282
30523W        W46657  12.421  15.437   4.234  0.0521 -0.0239 -0.2333
30524W        W46658  14.088   9.905   6.003 -0.4852  0.2712 -0.0128
30525W        W46659   3.852   4.774   2.760  0.1882  0.3158 -0.2179
30526W        W46660   8.025   7.707   1.074 -0.2009 -0.1144  0.0032
30527W        W46661   7.750   8.531   2.409 -0.3894 -0.2677  0.0549
30528W        W46662  15.188   5.558  12.428  0.0054  0.0165  0.2656
30529W        W46663   9.886   3.400   4.509 -0.0039 -0.2917  0.1651
30530W        W46664   7.566   2.711  15.468 -0.0405  0.1375 -0.0098
30531W        W46665  11.188   3.980  12.828  0.1108 -0.1811 -0.2095
30532W        W46666   4.910  17.080  11.532  0.2064  0.1432 -0.2828
30533W        W46667   3.919   6.905   4.262 -0.0776 -0.0138  0.0268
30534W        W46668  12.902   8.783   3.137 -0.0766 -0.0292  0.2095
30535W        W46669   2.033   5.080  10.850  0.1529  0.0308  0.2151
30536W        W46670   9.472   5.776  11.760 -0.2651  0.0450  0.1278
30537W        W46671   3.679   4.235  13.931 -0.0920 -0.0916  0.0049
30538W        W46672  12.887   0.764   4.939 -0.3432 -0.1681  0.4241
30539W        W46673   0.050  16.757  15.845  0.2336 -0.0604  0.1969
30540W        W46674   0.802   5.430   5.165  0.0583  0.0735  0.0257
30541W        W46675  15.868  15.607   0.731  0.1914  0.0236  0.2025
30542W        W46676  17.867   3.381   5.073 -0.0666  0.2976 -0.0286
30543W        W46677   4.391  11.267  14.281 -0.0732 -0.1500 -0.1034
30544W        W46678  15.722  12.218  14.145  0.4619  0.0441 -0.3756
30545W        W46679   4.703  17.703   6.375  0.0607 -0.0177  0.1505
30546W        W46680   1.493   7.146   2.835  0.1756 -0.1612  0.0111
30547W        W46681  17.842   3.391   2.589  0.1455 -0.3963 -0.0791
30548W        W46682   1.776  17.627  16.645 -0.1376 -0.0335 -0.1087
30549W        W46683  13.227  16.116   2.050 -0.1093 -0.1895 -0.0118
30550W        W46684  13.865  17.627  13.629 -0.0668 -0.1163  0.4041
30551W        W46685   1.275  10.185  13.672 -0.1260  0.2380  0.2589
30552W        W46686  17.967   7.380   5.740 -0.1708  0.1026  0.1503
30553W        W46687   5.213  12.822  13.267 -0.0206 -0.1361  0.3023
30554W        W46688   2.184  16.303   4.988 -0.1145  0.1408 -0.0217
30555W        W46689  16.447   9.880   5.801 -0.3347 -0.0449  0.2893
30556W        W46690  15.913   9.793  12.874  0.0734  0.0825 -0.0620
30557W        W46691   0.756   2.474   4.033  0.0801  0.2472  0.2628
30558W        W46692  10.944   5.907  15.339  0.0392 -0.2007  0.0709
30559W        W46693  16.587   7.879  13.237  0.1573  0.2390 -0.2773
30560W        W46694  15.617  16.375   3.986  0.2261  0.1044  0.1592
30561W        W46695   2.283  10.852  15.677  0.1588 -0.1345  0.3785
30562W        W46696  12.751   3.289  14.546 -0.0157 -0.1173 -0.0286
30563W        W46697   6.510  13.687   0.281  0.2398 -0.1606  0.1632
30564W        W46698  16.559   9.664  15.557 -0.0280 -0.1221 -0.0174
30565W        W46699   2.812  15.299  15.145  0.0874  0.2003  0.0985
30566W        W46700  11.966  10.831   4.350  0.1384  0.1119 -0.3895
30567W        W46701   1.080   1.645  11.709 -0.1791  0.0013  0.1958
30568W        W46702  11.645   3.171   0.093 -0.0343 -0.0417 -0.1959
30569W        W46703   7.822  15.266   4.399  0.0961  0.1580  0.0257
30570W        W46704   8.771   0.442  13.917 -0.2935  0.0061 -0.6580
30571W        W46705  10.627  14.199  12.191  0.1353  0.2087 -0.3357
30572W        W46706   6.729  12.074  15.771 -0.0486  0.5368  0.0931
30573W        W46707  16.528  14.742   2.153  0.0735 -0.0297  0.0631
30574W        W46708   1.509   1.786  16.583  0.0432 -0.1362  0.1421
30575W        W46709  11.675   4.297  13.699 -0.0892  0.0344 -0.2970
30576W        W46710  10.002  13.065   1.824  0.0225 -0.0763 -0.1540
30577W        W46711  10.067   2.126   5.637 -0.1958  0.1056  0.0836
30578W        W46712  15.099   5.588  13.389  0.1531  0.0200 -0.2064
30579W        W46713  16.297  12.313  16.249 -0.1492  0.2779  0.3973
30580W        W46714  13.827   2.194   4.721  0.1407 -0.0702 -0.0106
30581W        W46715   6.469   7.651   1.172 -0.2880 -0.1752  0.0073
30582W        W46716   3.607   9.601  14.287  0.1370  0.2836 -0.2708
30583W        W46717  14.525   7.547  15.152 -0.0215  0.0848  0.2592
30584W        W46718   1.930   2.258  16.342  0.0566  0.0227  0.0322
30585W        W46719   5.788   6.579  15.147  0.1921  0.0259  0.1127
30586W        W46720   0.524  11.585   4.921  0.0409 -0.2034 -0.1431
30587W        W46721   3.733  16.337   5.076 -0.0364 -0.0758 -0.0122
30588W        W46722  15.717   8.330  16.036 -0.1269 -0.2285 -0.1067
30589W        W46723   6.684   5.766   2.381 -0.0586  0.0711  0.1490
30590W        W46724  17.936   0.147  16.013 -0.1109 -0.1317  0.1622
30591W        W46725   2.208   3.648  15.381 -0.2708  0.1332 -0.0139
30592W        W46726   4.072   9.983  13.834 -0.0512 -0.0773  0.1326
30593W        W46727  11.310   4.960  13.043  0.0069 -0.0065  0.1983
30594W        W46728  16.056   1.064  15.551  0.1463  0.0412 -0.0901
30595W        W46729  15.350   8.210   5.733 -0.0545  0.1110 -0.0562
30596W        W46730  12.669   0.982  13.454 -0.1490  0.0354 -0.1133
30597W        W46731  16.796   1.630   4.661  0.1426 -0.0817  0.1369
30598W        W46732   0.238   8.338  15.187  0.0004 -0.0380  0.0769
30599W        W46733  15.049   4.817   5.503 -0.0352  0.2317 -0.0901
30600W        W46734  10.386   9.515  12.294  0.1000  0.0459  0.1225
30601W        W46735   8.557   5.306  13.951 -0.1761 -0.1032 -0.1054
30602W        W46736   9.838  13.268  15.360 -0.1455  0.0073 -0.1045
30603W        W46737   5.697  15.511  13.329 -0.2293 -0.0752  0.1046
30604W        W46738   7.494  17.810  16.097 -0.1599 -0.0688  0.0800
30605W        W46739   7.801   1.931   4.996  0.0899  0.1783  0.0485
30606W        W46740   9.591  16.624   1.167 -0.4345 -0.1315 -0.2309
30607W        W46741   0.715   1.812  14.079  0.2402  0.1556 -0.0974
30608W        W46742   5.763   0.553  12.672 -0.0523  0.3030 -0.0216
30609W        W46743   9.523  16.140  10.415 -0.0200  0.0526 -0.1162
30610W        W46744   3.145   3.080  11.472 -0.0704 -0.2142  0.0559
30611W        W46745  10.588   5.199   0.587  0.2213 -0.3456  0.2152
30612W        W46746  17.699   7.364   5.234 -0.0706 -0.3394  0.2446
30613W        W46747   5.425  13.158   1.102  0.2394 -0.1303 -0.0839
30614W        W46748   5.075   1.751   1.390  0.0986 -0.0202 -0.0316
30615W        W46749   7.203  12.500   5.921  0.1917  0.0938 -0.1016
30616W        W46750   6.470   4.683  15.455 -0.3202  0.1640 -0.2998
30617W        W46751  13.108   4.318  14.747  0.2471 -0.1451 -0.0583
30618W        W46752  12.122   3.921   4.407 -0.2225  0.1090  0.1357
30619W        W46753   4.020   1.898  14.135 -0.1598  0.1122  0.0088
30620W        W46754   0.845  13.622  16.097 -0.0335 -0.1395  0.1609
30621W        W46755  17.158   1.634   1.766  0.2337 -0.1355  0.1230
30622W        W46756   6.396   1.063   3.175  0.0417 -0.0461  0.1804
30623W        W46757   8.978   1.703   2.624  0.2991 -0.1402 -0.0714
30624W        W46758   4.787  17.307  13.699  0.0143  0.1325  0.1876
30625W        W46759  16.743   2.476  12.805  0.0592 -0.0848  0.1490
30626W        W46760  17.806  14.353   2.175  0.0565 -0.5299 -0.2740
30627W        W46761   7.942   5.654  16.439 -0.3084 -0.1261 -0.0083
30628W        W46762   9.122   7.664   3.843 -0.0436 -0.0724  0.2697
30629W        W46763   5.847  14.675  14.658 -0.0292 -0.1704 -0.1493
30630W        W46764   7.787  16.579   1.203  0.1196  0.0403  0.1343
30631W        W46765   9.114   5.421   4.760  0.2124 -0.3461 -0.0300
30632W        W46766   1.434   5.746   6.431  0.1236  0.3948  0.0970
30633W        W46767   3.103   5.487   1.777  0.1022 -0.0585  0.1305
30634W        W46768  12.954   7.211   4.745 -0.1540  0.0947 -0.1821
30635W        W46769   6.207   0.558  13.727 -0.0522  0.1029  0.2340
30636W        W46770  12.841   5.274   5.374  0.0440 -0.0714 -0.0402
30637W        W46771  11.900   9.385   3.634  0.0237  0.2060 -0.3819
30638W        W46772  13.860   5.300  15.346 -0.1598  0.0469  0.0163
30639W        W46773  16.846   3.734  13.707 -0.1460  0.2646 -0.0290
30640W        W46774   8.744   3.866   3.794 -0.2812  0.4001 -0.2954
30641W        W46775   7.521  12.904  12.636  0.0569  0.1800  0.0587
30642W        W46776   6.061  10.735   0.258 -0.0764  0.1894 -0.1663
30643W        W46777   0.670   1.349  14.302  0.1583  0.4291 -0.0683
30644W        W46778  11.732  12.163   2.042 -0.2801 -0.0158 -0.0199
30645W        W46779  12.045   0.405  15.391  0.0294  0.1999  0.0480
30646W        W46780  16.517  14.157  13.942  0.2740  0.3585 -0.0186
30647W        W46781   0.018  17.354   5.599 -0.0116  0.1865  0.2669
30648W        W46782  11.682  13.529  11.656 -0.1213  0.1286 -0.0817
30649W        W46783   1.099  10.456   4.604  0.1408  0.0954 -0.0308
30650W        W46784  12.919   8.615   1.263  0.1632 -0.2443 -0.3403
30651W        W46785   4.393   8.633   2.052  0.3647 -0.0884 -0.1445
30652W        W46786  10.444  14.892  13.504 -0.3117  0.2616 -0.3992
30653W        W46787  17.075  11.550   4.058 -0.1238  0.2282  0.1222
30654W        W46788  13.264  14.393   6.280 -0.1298 -0.0682  0.1779
30655W        W46789  16.416  13.511  11.984  0.1570  0.2882  0.2729
30656W        W46790   7.514   6.744   3.800  0.2422  0.1854 -0.0398
30657W        W46791  11.843   2.314   6.716  0.0653 -0.1807  0.0018
30658W        W46792   3.853   2.385   4.875  0.1368 -0.0662 -0.0142
30659W        W46793  13.364   7.202  13.740 -0.1706  0.3141 -0.1766
30660W        W46794   3.324   5.184   5.244 -0.1686 -0.0036  0.1786
30661W        W46795   7.766  16.613  15.295  0.1410 -0.1280 -0.0229
30662W        W46796  13.878  13.296   5.097 -0.2029 -0.0967  0.3263
30663W        W46797   1.109  17.411   5.255  0.2151  0.3240 -0.1601
30664W        W46798  12.345   1.188   5.277  0.3610 -0.1001  0.2131
30665W        W46799   2.329   7.760  14.554 -0.0171  0.2806 -0.0018
30666W        W46800  13.038   7.227   0.807  0.1207  0.0055 -0.1213
30667W        W46801   6.160  10.803   4.104 -0.2972 -0.0311  0.1251
30668W        W46802   0.330  16.768  15.200 -0.4622  0.0649 -0.1193
30669W        W46803  10.383   6.727   5.200 -0.0769 -0.0792  0.0474
30670W        W46804  15.300  16.530   5.428  0.0329  0.2763  0.2241
30671W        W46805   3.200   5.694   4.916  0.2133  0.1018 -0.1551
30672W        W46806   0.045  10.738   1.438  0.0022 -0.3158 -0.0956
30673W        W46807  17.939   0.461   2.390  0.0534  0.2638 -0.2021
30674W        W46808   0.990   0.297  15.277  0.3481 -0.0265  0.0165
30675W        W46809   7.830   5.533   0.423  0.1766  0.4582  0.2140
30676W        W46810   8.757  12.102   5.006 -0.4547  0.0679  0.2331
30677W        W46811  15.925   0.294   2.025 -0.3069  0.1073 -0.1497
30678W        W46812   4.824  13.655   2.894  0.0050  0.1034  0.0285
30679W        W46813   7.124   7.434   2.998  0.1996 -0.3325 -0.0765
30680W        W46814   6.557  12.348   1.926 -0.1424 -0.0052  0.2436
30681W        W46815   3.189   4.357   1.184 -0.0135 -0.1443 -0.1151
30682W        W46816   6.909  15.508   1.502 -0.3055  0.0409 -0.2232
30683W        W46817  11.358   1.358  13.035 -0.1438 -0.1125  0.0960
30684W        W46818   5.222   4.087  14.005  0.0582  0.2488 -0.1338
30685W        W46819   3.080   1.459   3.013 -0.0971  0.2205 -0.2309
30686W        W46820  11.419   0.428  13.267 -0.0852  0.0420 -0.0147
30687W        W46821   3.012  10.485   4.225  0.0129 -0.1743  0.0201
30688W        W46822   9.407  16.826  16.091  0.1404 -0.2619 -0.1958
30689W        W46823  11.151  12.823  16.019 -0.2008  0.0193  0.0860
30690W        W46824   3.493   3.888  16.663  0.1845  0.2816 -0.0804
30691W        W46825  13.504   1.319   1.144 -0.3130  0.0313 -0.0381
30692W        W46826  13.789   9.566   4.768 -0.0248 -0.2908  0.0740
30693W        W46827  14.884   0.453   2.680  0.1745  0.1427 -0.0314
30694W        W46828   5.827   8.674  12.641  0.0156 -0.2214 -0.0279
30695W        W46829   1.899   9.834   0.384 -0.1029 -0.2477  0.1415
30696W        W46830   9.066   3.056  16.396 -0.0261 -0.2453  0.2975
30697W        W46831   6.215   1.593   0.228  0.2874  0.4035 -0.1434
30698W        W46832  11.874   6.081   0.025 -0.3575  0.0020  0.1510
30699W        W46833  11.068   1.222  13.726  0.0220  0.0226  0.4897
30700W        W46834   5.036   4.610  11.359 -0.3487 -0.1380  0.1620
30701W        W46835  15.225  11.770   3.085  0.1780 -0.1957  0.0401
30702W        W46836  16.080  12.926   2.230  0.0616 -0.2446  0.0377
30703W        W46837  15.415   6.803  15.112 -0.2050  0.2562  0.0133
30704W        W46838  17.752  15.694   2.760 -0.0518  0.2390 -0.2822
30705W        W46839  12.399   7.997  14.743  0.1687  0.0496  0.4005
30706W        W46840   6.198  11.335  12.299 -0.2020  0.0501 -0.1103
30707W        W46841   1.418  17.209  15.053  0.1648 -0.0837 -0.0758
30708W        W46842  16.087   5.956   5.920 -0.0840  0.0405  0.1261
30709W        W46843   6.205   9.343  11.810 -0.0766 -0.1796 -0.1535
30710W        W46844   2.408   9.724   1.783  0.2941  0.3108  0.1650
30711W        W46845   7.840   4.531  13.043  0.1682 -0.0486  0.2006
30712W        W46846   4.212  12.232   4.951  0.2187 -0.0500 -0.2876
30713W        W46847  12.365  10.938  13.945 -0.1066 -0.1383  0.1637
30714W        W46848   5.590   4.937  11.438 -0.1687  0.2117  0.2704
30715W        W46849   5.806  14.717  13.047  0.0992 -0.0196  0.0812
30716W        W46850   7.178   9.216  14.352  0.3621 -0.1184  0.1774
30717W        W46851   2.785   9.029  15.470  0.2395 -0.1846 -0.0979
30718W        W46852   1.356   9.735   2.609 -0.2477 -0.0986  0.2537
30719W        W46853  11.476  12.843  12.397  0.2875 -0.0542 -0.1326
30720W        W46854   3.863  14.453  16.639  0.1441 -0.1679 -0.0222
30721W        W46855   5.900   9.870  13.614  0.0698  0.0006  0.1188
30722W        W46856  16.193  12.671  15.700  0.2134  0.1856  0.0742
30723W        W46857   6.629  12.092  14.636  0.0531 -0.1500  0.0580
30724W        W46858   4.210   7.374  15.742 -0.1096 -0.2062  0.1886
30725W        W46859   1.999  14.303   3.250  0.0638 -0.0078  0.1497
30726W        W46860   7.880  16.535  13.365 -0.3118  0.1763 -0.0109
30727W        W46861   0.177  11.282   2.223 -0.1053 -0.1784  0.0503
30728W        W46862  13.033  12.322  16.365  0.2243  0.0848 -0.1499
30729W        W46863  13.852   5.872  12.007  0.1981  0.0202 -0.3472
30730W        W46864   8.373  12.095   2.807 -0.2521  0.2358  0.1544
30731W        W46865   4.009  13.303   1.190 -0.1721  0.2108  0.2134
30732W        W46866   0.916  13.422  15.593 -0.1239 -0.0630 -0.4779
30733W        W46867  16.468   7.810   2.367 -0.0804  0.0244 -0.0801
30734W        W46868   6.545   3.799  15.041 -0.0762 -0.1745  0.1455
30735W        W46869   1.065  16.216   3.051  0.1101 -0.2237  0.0074
30736W        W46870   8.947  17.625  11.308 -0.1001  0.1259  0.0879
30737W        W46871   5.567   3.411  12.810  0.2022  0.1833  0.1435
30738W        W46872  13.961  13.667   1.954  0.1537  0.0144 -0.0021
30739W        W46873  15.342  16.421   0.777 -0.0213  0.0501 -0.0784
30740W        W46874   6.164  12.162  14.118  0.2826  0.3130 -0.3223
30741W        W46875  16.481   5.430   2.185  0.2457 -0.1367  0.1845
30742W        W46876   1.283  10.567  14.549 -0.0434  0.0473  0.2919
30743W        W46877   2.157  15.669  12.492 -0.3428  0.1276  0.0188
30744W        W46878  17.057  10.177  14.282 -0.0091 -0.2514 -0.1438
30745W        W46879   3.557   9.584   3.953 -0.0528  0.1178 -0.0864
30746W        W46880   9.717  15.442  14.452  0.3000  0.1733  0.0931
30747W        W46881   2.785   6.496   3.240 -0.2185  0.1352 -0.0166
30748W        W46882  15.936   2.910  12.271 -0.0890  0.2129  0.1804
30749W        W46883  10.188  14.922   0.177 -0.0322 -0.0252  0.1376
30750W        W46884  12.785   5.545   4.970 -0.0003  0.2884 -0.0330
30751W        W46885  11.637  11.631  14.171 -0.0141 -0.1396 -0.0051
30752W        W46886  15.475  16.995   5.384 -0.1657  0.1563  0.2397
30753W        W46887   0.390  15.558  12.249  0.0145 -0.0650 -0.0665
30754W        W46888   6.684   4.538  13.377  0.2684 -0.2112 -0.2358
30755W        W46889  11.698   2.226  13.066  0.0296  0.1951 -0.1629
30756W        W46890   9.633   8.687  12.211 -0.0094  0.0533  0.1697
30757W        W46891   4.687  11.061  15.136  0.0228  0.1255  0.1626
30758W        W46892  16.086   4.353  13.467 -0.0123 -0.2470  0.3292
30759W        W46893  16.121   8.326  12.161  0.0459  0.4557 -0.1280
30760W        W46894   0.297   8.572   1.971 -0.4312 -0.0079  0.2824
30761W        W46895   4.864  15.381  12.105 -0.0357  0.0764  0.1258
30762W        W46896  12.676  11.507   4.376  0.2465  0.1145  0.0721
30763W        W46897  12.421  14.740  16.250 -0.2478 -0.2303 -0.2872
30764W        W46898   0.631  14.853   3.069  0.3016 -0.2219  0.0168
30765W        W46899  11.915   6.363   1.313 -0.2539 -0.4159  0.0436
30766W        W46900  12.017  17.532   5.041  0.1613 -0.0638  0.0663
30767W        W46901  11.209   9.682  14.885 -0.0047 -0.0527 -0.0234
30768W        W46902   9.223  15.232  12.754  0.1892 -0.2186 -0.0033
30769W        W46903   9.693   5.834   4.060 -0.2190 -0.4281  0.0610
30770W        W46904  13.838   0.931  11.715  0.0249  0.1076  0.0212
30771W        W46905   9.388   5.045   4.260 -0.0295 -0.0628  0.1939
30772W        W46906   5.695  11.796  12.443  0.3707  0.2734  0.0309
30773W        W46907  14.069   0.645   5.671 -0.0067 -0.2603 -0.1290
30774W        W46908   2.068  11.603  13.990 -0.1241 -0.2399 -0.0807
30775W        W46909   9.328  12.614   0.271  0.1593 -0.3756 -0.1157
30776W        W46910  15.794   4.164  11.644 -0.3281 -0.2386  0.0084
30777W        W46911  13.713   5.425  13.473 -0.1425 -0.1342  0.1796
30778W        W46912   7.428   8.948   2.166 -0.0444 -0.1002 -0.0562
30779W        W46913   7.843   7.531   4.771 -0.1218  0.2113  0.2889
30780W        W46914  16.219  12.420   3.620  0.1573  0.0916 -0.0563
30781W        W46915   9.416  15.059   5.989 -0.2454 -0.1066  0.0601
30782W        W46916   8.974  12.068   4.184  0.0508 -0.1721  0.0746
30783W        W46917  15.407  12.333   5.888 -0.1412 -0.1135  0.0008
30784W        W46918  15.103   3.180   2.494  0.1083 -0.1390 -0.2126
30785W        W46919   9.003   9.883   4.297 -0.2634 -0.1098 -0.2355
30786W        W46920   2.567  14.205  14.078  0.0710  0.1059 -0.1644
30787W        W46921   3.282  11.728  14.212  0.2202  0.0948 -0.0088
30788W        W46922  12.601   1.077  15.503 -0.0768  0.1648 -0.0850
30789W        W46923  15.251  16.055   0.256 -0.0951 -0.0002  0.1485
30790W        W46924   7.388   6.220   4.652  0.1011 -0.0093  0.2402
30791W        W46925  16.074  14.905   3.670  0.1226 -0.0239 -0.2410
30792W        W46926   4.382   1.469  15.500 -0.1706  0.0630 -0.1440
30793W        W46927   0.450   2.380  10.877  0.0822  0.1781  0.4674
30794W        W46928   6.934   0.019   3.879  0.0218  0.0875  0.6176
30795W        W46929   9.505   9.140  15.120 -0.1242 -0.2462 -0.0798
30796W        W46930   7.741   9.947   3.359 -0.1897 -0.1287 -0.1853
30797W        W46931   3.927  12.488  16.132 -0.1237 -0.0719  0.1866
30798W        W46932  14.733  11.637   1.031  0.0520 -0.0704 -0.0799
30799W        W46933   6.847  16.653  16.373 -0.3731  0.2613  0.0300
30800W        W46934   5.998   5.024   2.709 -0.0496 -0.0547 -0.3250
30801W        W46935   4.023   4.814  16.641  0.0438 -0.2163 -0.1057
30802W        W46936  16.356  15.206   2.012 -0.3104 -0.0722  0.2771
30803W        W46937   0.013   1.337   2.346  0.1523 -0.1048 -0.3394
30804W        W46938   4.846  17.730   4.280  0.3420 -0.0987  0.0825
30805W        W46939  10.028  17.315   0.473  0.1153 -0.1130 -0.0782
30806W        W46940   0.906  10.355  15.537  0.2081 -0.2187  0.0227
30807W        W46941  13.512  16.776   1.535 -0.1828  0.0537 -0.1222
30808W        W46942  10.942   5.403   1.416 -0.0301  0.0587 -0.0241
30809W        W46943  11.838   0.475  16.112 -0.4108  0.2493 -0.0171
30810W        W46944  14.150   1.727   0.469 -0.1627 -0.0892 -0.0734
30811W        W46945  17.880  11.126   4.403 -0.0460  0.0805 -0.0720
30812W        W46946   8.054  13.911  13.070  0.2035  0.0079 -0.0355
30813W        W46947   1.691   7.124   1.823  0.0864 -0.0194  0.1822
30814W        W46948   3.410  14.027  15.308 -0.0268  0.1128 -0.1875
30815W        W46949  13.211  11.906   0.931 -0.2956  0.1612  0.0421
30816W        W46950  16.159   2.232   5.795 -0.0564  0.0799 -0.1368
30817W        W46951  11.663   1.424   4.633 -0.2056  0.0621  0.0021
30818W        W46952  14.321   1.759  11.756 -0.2158  0.0630 -0.0767
30819W        W46953   0.309   1.260  13.186 -0.0849  0.0365  0.2079
30820W        W46954   6.480  14.230   0.266 -0.0007 -0.1055 -0.0018
30821W        W46955  13.329   8.052   3.384 -0.0533 -0.3569  0.4115
30822W        W46956  14.937   8.840  12.250 -0.4088 -0.2484  0.2082
30823W        W46957  17.741  13.798  15.323 -0.0727  0.3627  0.1231
30824W        W46958   4.272   0.296   4.740  0.0747  0.0151 -0.0868
30825W        W46959  11.172  14.798   3.678  0.0635  0.0672 -0.0195
30826W        W46960   3.005   6.985  15.988 -0.1210  0.1321  0.1586
30827W        W46961  10.657   7.144  16.522  0.3459  0.1358 -0.2109
30828W        W46962  15.070  14.937   0.899  0.0745 -0.3830  0.1469
30829W        W46963   9.911  10.817   0.411  0.1894 -0.2758 -0.0447
30830W        W46964   3.790   7.569  16.337 -0.4515 -0.0857 -0.2024
30831W        W46965  13.836   4.226   5.736 -0.1274 -0.0684 -0.1993
30832W        W46966  14.065  12.914  11.222  0.0196 -0.1527  0.2969
30833W        W46967   0.382   2.689   5.001 -0.0612 -0.1694  0.0305
30834W        W46968   3.301   5.165  16.535 -0.0990 -0.0176 -0.2064
30835W        W46969  12.945  16.443  16.401 -0.3640  0.0756 -0.0472
30836W        W46970  12.977  14.550   1.346  0.1245  0.3072  0.0507
30837W        W46971   3.523   8.531   3.275 -0.1377  0.1655  0.0513
30838W        W46972   5.694  13.560  14.895  0.0607 -0.2234  0.0864
30839W        W46973  11.556   4.198  11.453 -0.1049  0.0889  0.0036
30840W        W46974   3.560   6.792  12.361 -0.1905 -0.0044  0.2429
30841W        W46975   6.309  12.449  11.669 -0.0101 -0.2723 -0.0731
30842W        W46976  13.976  17.105  13.083 -0.1521 -0.0323 -0.0130
30843W        W46977   0.791   7.790  13.418  0.0081  0.2165  0.2251
30844W        W46978   4.963  12.523   3.240 -0.2060 -0.1618 -0.2745
30845W        W46979   2.062  15.523   2.023  0.0530 -0.1162 -0.1516
30846W        W46980  14.805   0.762  12.810  0.1407  0.2786 -0.0142
30847W        W46981  17.551  12.278   0.435 -0.0178  0.0677  0.3098
30848W        W46982   4.795  13.214   4.161  0.0798 -0.1582  0.1220
30849W        W46983  11.746  15.370   4.674 -0.1048  0.1715 -0.0204
30850W        W46984   3.964  16.457   2.345  0.2510 -0.3402  0.0600
30851W        W46985  16.957  14.584   5.445 -0.0830  0.0894  0.3309
30852W        W46986   6.563   4.861  11.622 -0.0913  0.2373  0.0592
30853W        W46987   8.945  14.980  12.247  0.1102 -0.2025  0.4940
30854W        W46988   3.235  12.993  13.494  0.1667  0.0639 -0.2410
30855W        W46989  11.936  16.406   5.687 -0.0714 -0.2390  0.1947
30856W        W46990  17.593   4.839  12.794  0.0101  0.2126  0.0462
30857W        W46991  10.557   9.917  15.303 -0.0490 -0.0094 -0.1167
30858W        W46992   6.700   2.481  15.156 -0.1429 -0.0762 -0.0216
30859W        W46993   5.876  14.549  11.473 -0.1634  0.4646 -0.1116
30860W        W46994   1.544   5.815  14.055 -0.0976  0.0921 -0.0361
30861W        W46995  12.570  11.605   1.397  0.1822 -0.0527 -0.1145
30862W        W46996   5.950  12.199  16.722  0.0144 -0.2112  0.1612
30863W        W46997   3.648   3.486  11.518 -0.1007  0.1464  0.0922
30864W        W46998   4.440   2.240   1.992 -0.0067 -0.0770  0.0457
30865W        W46999  14.391   7.836   3.411  0.2745 -0.0932  0.0229
30866W        W47000  11.266   3.417   4.818  0.0466  0.1797  0.1557
30867W        W47001  13.839   7.874   0.011  0.0769  0.0977  0.1118
30868W        W47002  10.120   3.542   1.710 -0.0596  0.0746 -0.0653
30869W        W47003   9.798   4.200  11.668 -0.0566 -0.2570  0.1983
30870W        W47004  17.166   0.899  16.235  0.2728 -0.0192 -0.1434
30871W        W47005  13.320   1.925  16.158 -0.0431 -0.0935  0.0534
30872W        W47006   5.018   6.442   5.582  0.0093  0.2122  0.1806
30873W        W47007   9.346   3.137   4.282 -0.0388  0.0107 -0.0129
30874W        W47008   3.391   4.633  11.542  0.1999 -0.0867 -0.2883
30875W        W47009   9.358  17.332  15.918  0.4361 -0.0344  0.1323
30876W        W47010  13.596   1.368   1.634 -0.0311 -0.0948  0.2411
30877W        W47011   0.913   9.815  13.694  0.0793  0.3202  0.0523
30878W        W47012  10.005   7.424   0.593 -0.0626 -0.0884  0.0811
30879W        W47013   6.193  16.623   1.884  0.0531 -0.1061 -0.0091
30880W        W47014   1.418   6.320   5.240 -0.0625  0.0568  0.0565
30881W        W47015  15.456  15.862   3.931  0.1428  0.1592 -0.2555
30882W        W47016  16.079  11.699   1.621 -0.3746 -0.0903  0.3675
30883W        W47017  12.696   6.448  16.277 -0.0760 -0.1060 -0.1702
30884W        W47018  14.636   0.252   2.306 -0.1306 -0.2940  0.1489
30885W        W47019  16.490   3.357   4.809  0.0988 -0.0706 -0.2200
30886W        W47020   4.716   9.065   3.856 -0.1085 -0.3240  0.3307
30887W        W47021  17.531   6.654  14.712  0.2124 -0.0040  0.1261
30888W        W47022  16.591  13.221   4.402 -0.0238 -0.0446  0.1174
30889W        W47023   7.927  12.975   2.495 -0.0683 -0.3941  0.1780
30890W        W47024  16.692   3.891  15.146  0.1344 -0.1310  0.0711
30891W        W47025  17.179   2.684  12.612 -0.0745  0.0031  0.1468
30892W        W47026  12.903  16.910  16.554  0.1907 -0.0990 -0.0448
30893W        W47027   8.344   8.689  14.707 -0.0182 -0.1422 -0.1817
30894W        W47028  15.976  11.655   3.911 -0.0804  0.0826 -0.4288
30895W        W47029   6.773   0.020  14.907 -0.0334 -0.1829  0.0070
30896W        W47030   0.414   1.352   1.510  0.0726 -0.6266 -0.0456
30897W        W47031  14.793   4.687  13.807  0.0565 -0.0283 -0.1460
30898W        W47032   8.250   7.138  14.940  0.1711  0.1706 -0.1147
30899W        W47033   2.231   9.132  14.133 -0.0689 -0.2848  0.4626
30900W        W47034   5.178   2.510   5.423  0.2077 -0.2623  0.3955
30901W        W47035   4.787  12.214  13.475  0.0054 -0.0709 -0.0073
30902W        W47036   0.442  11.072  13.675  0.1160 -0.1895 -0.4378
30903W        W47037   2.976   0.596   2.638  0.1210 -0.2941  0.0989
30904W        W47038  13.794   3.357   3.249  0.1220 -0.1611 -0.0180
30905W        W47039  11.884  11.431  14.673  0.2568 -0.1934 -0.3190
30906W        W47040   8.949   7.598   1.557  0.1119  0.0352  0.0202
30907W        W47041   1.550   7.592  13.229  0.0747 -0.0492  0.1334
30908W        W47042  17.047  16.272  15.715 -0.0300  0.0511 -0.1963
30909W        W47043   0.836   9.918  14.481  0.0650  0.1001  0.2111
30910W        W47044   9.147   9.113  14.290 -0.3138 -0.3010 -0.1340
30911W        W47045   0.571   9.822   1.666 -0.1622 -0.0473 -0.0005
30912W        W47046  16.854  17.187   2.288 -0.0649  0.1741 -0.0455
30913W        W47047   0.515  15.990  15.421  0.0758  0.2284  0.4464
30914W        W47048   4.549   5.727   0.885 -0.0113 -0.3437 -0.1372
30915W        W47049   9.331  10.482  12.431  0.0666  0.0043 -0.2219
30916W        W47050   2.394   1.531   4.470 -0.2206  0.0108 -0.0789
30917W        W47051   0.787   5.519   1.983  0.0968 -0.1793  0.2140
30918W        W47052  10.620  12.633   0.254 -0.2615  0.3055 -0.1377
30919W        W47053  14.597  10.574   6.304  0.2646  0.2895  0.0295
30920W        W47054   7.078   2.051  14.155  0.0638 -0.0558 -0.0030
30921W        W47055  10.519  16.889  14.701  0.0931  0.1776 -0.0182
30922W        W47056   6.956   4.045   0.503  0.1321 -0.2831 -0.2212
30923W        W47057  13.236  12.433  11.975 -0.0495 -0.1970 -0.2129
30924W        W47058   0.929   3.115  15.401  0.1446 -0.0070 -0.3012
30925W        W47059   6.481   7.438  16.554 -0.0906 -0.0144 -0.0231
30926W        W47060   3.394   9.235  12.142 -0.0455 -0.0925 -0.0537
30927W        W47061   9.859   6.713  11.226  0.0159 -0.2306 -0.4787
30928W        W47062   1.052   1.666   1.381 -0.0933  0.1270 -0.0577
30929W        W47063   6.525   7.153   2.529 -0.1913 -0.0037  0.2003
30930W        W47064   8.035  14.356  11.652  0.1692 -0.0939  0.0542
30931W        W47065   2.869   7.263   1.388  0.1380  0.0854  0.0376
30932W        W47066  14.895   6.412   2.074 -0.0260 -0.1396  0.0415
30933W        W47067   6.531   2.276   3.983  0.2004 -0.3085  0.1939
30934W        W47068  11.085   2.522   4.193 -0.2374  0.1049  0.2983
30935W        W47069   5.734  13.581   0.169  0.0886 -0.0867 -0.0555
30936W        W47070  15.598   1.217  11.395 -0.0418  0.0772  0.1797
30937W        W47071  16.998   2.930  14.719 -0.0095 -0.2742 -0.0541
30938W        W47072   2.721   6.967   3.100 -0.1504  0.0142 -0.1936
30939W        W47073  12.757   5.863   3.410 -0.1655  0.1687 -0.2266
30940W        W47074  11.537  10.786   4.800  0.2202  0.2059  0.1096
30941W        W47075   2.911   4.141  13.427 -0.1131  0.1010  0.0444
30942W        W47076  14.383   6.110   4.591 -0.0997 -0.3588 -0.2698
30943W        W47077   5.324   3.174  14.272 -0.0723 -0.0431  0.0227
30944W        W47078   4.777  10.376  13.949  0.1467  0.2509 -0.1928
30945W        W47079   4.056   3.742   4.091  0.1319  0.0606 -0.0359
30946W        W47080   2.801   2.396   4.599 -0.0080  0.2291  0.4102
30947W        W47081  16.123   1.011   1.054 -0.2555  0.1225 -0.1066
30948W        W47082   7.387   8.758   1.665 -0.4259  0.1728 -0.0256
30949W        W47083   5.115  14.483   1.895  0.0756  0.0117  0.2320
30950W        W47084  10.804  11.234   0.172  0.0555  0.0143 -0.2944
30951W        W47085  11.705   4.835  14.201  0.1157  0.3307  0.1155
30952W        W47086   9.509  17.536   3.609  0.4248 -0.1221 -0.1214
30953W        W47087  16.864   6.181   3.192 -0.0513  0.1313  0.1415
30954W        W47088  12.055   1.791   3.492 -0.3669 -0.2096 -0.1014
30955W        W47089  10.493   4.584  15.367 -0.0576 -0.0370  0.0426
30956W        W47090  12.655  13.574  11.438 -0.2143  0.2325  0.1616
30957W        W47091  11.409   4.289   4.253 -0.1159  0.1980 -0.0316
30958W        W47092   4.144  16.329   2.928 -0.1811  0.0664  0.2623
30959W        W47093   4.276  15.858   4.322 -0.0168  0.0032 -0.0162
30960W        W47094   5.703  14.068   5.109 -0.1979 -0.1787 -0.0523
30961W        W47095  16.541  15.402  16.122 -0.0625  0.3885 -0.1206
30962W        W47096   9.627  13.040  11.780 -0.1477  0.1283  0.1004
30963W        W47097   8.023   4.404   0.180 -0.0339  0.1922 -0.2666
30964W        W47098  16.713   3.421   5.281 -0.0433 -0.0965 -0.0546
30965W        W47099   6.079  12.842   1.904 -0.0518 -0.0936 -0.3665
30966W        W47100  12.796  13.165  11.790 -0.0234  0.1364  0.3196
30967W        W47101  11.592   6.439  15.297  0.0867 -0.2548  0.1375
30968W        W47102   0.279   9.205   2.571 -0.0777  0.1496 -0.0382
30969W        W47103   1.838   5.840   4.595 -0.1962 -0.1562  0.0254
30970W        W47104   2.721   0.353  14.641 -0.0782 -0.1583  0.2313
30971W        W47105  13.108  15.156   0.859 -0.0938  0.0484 -0.1005
30972W        W47106  17.972   9.174   5.066 -0.1701 -0.2252 -0.0550
30973W        W47107  12.418   9.878   0.627  0.0996 -0.1397  0.0969
30974W        W47108   8.559   7.021  11.808  0.0734  0.3475  0.0133
30975W        W47109  12.312  12.902   1.848  0.1445  0.1051 -0.0232
30976W        W47110  12.669   7.787  11.587  0.2356  0.0069  0.3384
30977W        W47111   5.896   2.826   0.818  0.2679  0.2153 -0.1872
30978W        W47112   9.934  15.770   3.041  0.1221 -0.0829  0.0032
30979W        W47113   2.455  16.991  16.149  0.1032 -0.1628  0.2156
30980W        W47114  12.273  12.302   3.517 -0.2575 -0.0297 -0.0335
30981W        W47115  11.559  14.878   5.263 -0.0612 -0.0615  0.1637
30982W        W47116  14.405   6.635  15.427  0.1882  0.1225  0.0371
30983W        W47117   9.583  11.217  10.319 -0.1076  0.2137 -0.1505
30984W        W47118  12.449   3.946  13.794 -0.1423  0.3170 -0.3079
30985W        W47119   8.655   8.026   3.979  0.1437  0.2219 -0.0591
30986W        W47120  14.951  15.930   3.390  0.0256  0.3590 -0.0854
30987W        W47121  15.624  15.998  14.578 -0.2326  0.0962 -0.0775
30988W        W47122  14.907  12.544  14.605  0.0639 -0.0856  0.0371
30989W        W47123  13.328   7.318  16.628  0.3743  0.1581 -0.1485
30990W        W47124   1.973  10.031  11.715 -0.0465  0.1104  0.0140
30991W        W47125   3.882   3.163  15.533  0.0166 -0.4506 -0.0118
30992W        W47126   5.714  15.505   3.384  0.1508  0.0458  0.1052
30993W        W47127  11.166   0.614  15.154 -0.1319 -0.1400 -0.2769
30994W        W47128  16.988  11.522  14.761  0.4552  0.0200 -0.1658
30995W        W47129  14.927  16.151   4.204 -0.2324  0.0165  0.1201
30996W        W47130  13.146   2.845  13.014 -0.1298 -0.1378  0.0408
30997W        W47131  11.887   4.804  15.239  0.1392 -0.2522 -0.3015
30998W        W47132   9.993   4.490  15.262  0.0020 -0.0215 -0.0163
30999W        W47133   1.121   5.832   5.116  0.3669  0.0713  0.1383
31000W        W47134   6.354   5.524   1.130  0.0555 -0.0514 -0.0949
31001W        W47135  13.381   2.408  16.610  0.0114  0.1870 -0.0245
31002W        W47136   8.604   5.405   4.724 -0.0114 -0.3296  0.2650
31003W        W47137  11.703   8.238   4.457  0.0955 -0.0394 -0.0897
31004W        W47138   5.847   5.608   1.143 -0.0372 -0.1745 -0.0869
31005W        W47139   6.665   2.216   1.775 -0.2000  0.2037 -0.2560
31006W        W47140   9.543  13.068   3.461  0.1276  0.1330  0.3197
31007W        W47141  11.132  16.707   0.287 -0.0889  0.1193  0.1048
31008W        W47142   7.086   0.480   4.573  0.2161  0.2198 -0.0337
31009W        W47143   0.559  16.217  16.110  0.4420  0.1671  0.0715
31010W        W47144   3.513  12.888   3.025 -0.0573 -0.2330  0.2511
31011W        W47145   8.020   2.071  12.031  0.3718  0.1788 -0.0175
31012W        W47146  12.039   5.929  11.837  0.0422 -0.1058 -0.0399
31013W        W47147  17.619   4.843  13.652  0.1493 -0.0284  0.0358
31014W        W47148   1.501   0.169  12.802 -0.0386 -0.2008  0.0705
31015W        W47149   5.226   7.080  15.585 -0.0789 -0.4255  0.0509
31016W        W47150  14.512   4.756   4.797  0.2077 -0.1157  0.0051
31017W        W47151   2.981   8.749   3.908  0.2392  0.0300  0.1973
31018W        W47152   8.002  15.526   5.428 -0.0005  0.1782 -0.1815
31019W        W47153  15.121  11.727   0.632 -0.0318 -0.1861  0.0681
31020W        W47154   1.593  12.439  13.633 -0.0793 -0.2592 -0.2288
31021W        W47155   1.419  15.511  16.018 -0.0907  0.4021 -0.1970
31022W        W47156   8.810  16.996   0.870  0.1343 -0.4309  0.1808
31023W        W47157   4.024   3.877  12.340 -0.0896  0.0234 -0.1496
31024W        W47158  17.842  14.333   0.177 -0.0200  0.0880  0.0133
31025W        W47159   8.991  11.151  15.513 -0.0619 -0.2934  0.0056
31026W        W47160  12.899  10.218  15.994 -0.2363 -0.4436  0.1076
31027W        W47161  15.624   5.695   6.092  0.1010 -0.0010  0.2122
31028W        W47162   7.738   4.197  14.387 -0.4725 -0.2047 -0.1954
31029W        W47163   9.242  14.097  13.399  0.4522 -0.0233 -0.0193
31030W        W47164   8.332  12.825  14.687 -0.0124  0.0873 -0.3898
31031W        W47165  10.626   9.889  16.539 -0.1046 -0.0799 -0.0475
31032W        W47166  14.524  15.814   0.796 -0.0476  0.1742  0.0877
31033W        W47167   6.833   8.904   3.485  0.0244 -0.0384 -0.1904
31034W        W47168  10.340   1.020   3.961 -0.0246  0.0864  0.0032
31035W        W47169   5.182   5.159  11.263  0.1598  0.1895  0.1168
31036W        W47170   7.363   2.773   1.578  0.2676  0.3345  0.0129
31037W        W47171  11.423  15.691   0.538 -0.1448  0.0488 -0.1241
31038W        W47172   1.037  12.973  15.733 -0.0557 -0.0582  0.2549
31039W        W47173   6.472  15.902  16.331 -0.0067  0.0204  0.0365
31040W        W47174  17.426   7.450   2.200  0.1299  0.0377  0.2103
31041W        W47175  15.138  12.442  15.264 -0.0288  0.0473  0.0332
31042W        W47176   4.778  14.720   0.102 -0.1138  0.0807 -0.1837
31043W        W47177   4.201   8.287  15.703  0.0433 -0.0646 -0.0395
31044W        W47178   8.787   4.965  14.802  0.0554 -0.0521 -0.0405
31045W        W47179  14.800  17.829   3.371  0.0418 -0.0992 -0.0165
31046W        W47180  10.951  13.836  12.039  0.0483 -0.0572  0.2072
31047W        W47181   5.980  17.305  16.463  0.1131  0.1892 -0.3474
31048W        W47182   8.264   6.747  14.562 -0.2754 -0.0312 -0.1884
31049W        W47183  11.869   5.655   4.648  0.1109  0.0139 -0.0522
31050W        W47184   1.159   8.341   3.317  0.0319 -0.0279 -0.0849
31051W        W47185   7.361   2.272   1.440  0.0121  0.1815  0.1270
31052W        W47186   3.341  17.402  15.885  0.0936 -0.0847  0.1556
31053W        W47187   6.848   2.079  12.733  0.0544 -0.1468  0.0159
31054W        W47188  10.894   4.745  12.000  0.2118 -0.1353  0.0005
31055W        W47189   3.413   1.653  15.828 -0.2074 -0.0082 -0.0754
31056W        W47190  13.505  10.279   0.705 -0.2745 -0.0908 -0.0130
31057W        W47191  14.927   1.828   2.725  0.0090  0.1403 -0.2484
31058W        W47192   6.476   5.353   1.578  0.1441 -0.4947  0.4681
31059W        W47193   6.530   5.325  12.546 -0.0954  0.2035 -0.1385
31060W        W47194   3.242  15.377  11.445  0.1425 -0.0648  0.0955
31061W        W47195   1.493   2.627   5.676  0.4109  0.1737 -0.3870
31062W        W47196   0.667   2.123  15.680  0.3475 -0.1497 -0.2463
31063W        W47197   5.031   6.121  11.428 -0.0692 -0.0249 -0.3188
31064W        W47198  11.240  16.685   5.102 -0.3900 -0.0091 -0.3422
31065W        W47199  15.223   9.525   1.152  0.2156  0.2562  0.2755
31066W        W47200  15.254   3.646  16.636 -0.2039 -0.0132 -0.2497
31067W        W47201   2.761   0.730   3.443 -0.0697  0.0290  0.1024
31068W        W47202  15.639  10.409  16.723  0.2194  0.1454  0.2349
31069W        W47203   6.354  15.900   0.239 -0.2860 -0.2758 -0.0571
31070W        W47204   0.390   4.704  13.984  0.0184 -0.2077 -0.1667
31071W        W47205   8.227   4.690   3.810  0.1861 -0.0551 -0.0972
31072W        W47206   1.082  12.609   3.744  0.2268 -0.0444 -0.4955
31073W        W47207  17.331   4.316  12.736  0.2623  0.0717 -0.0454
31074W        W47208   5.861  17.696   0.668  0.1757 -0.2311  0.0064
31075W        W47209   3.594  17.239   1.250  0.2034 -0.2280 -0.1721
31076W        W47210  16.156   7.003   1.885  0.1883 -0.0707 -0.1830
31077W        W47211   3.796  16.136  13.768  0.0635  0.4033 -0.1660
31078W        W47212  15.454   7.864  15.755  0.0897 -0.2580 -0.0541
31079W        W47213   6.970  17.125   3.807  0.3200  0.0988  0.1412
31080W        W47214  10.207  13.346   4.634 -0.2306  0.1697  0.2305
31081W        W47215   9.071  16.717   2.063 -0.1021  0.1085 -0.1113
31082W        W47216   5.081   7.898  10.556 -0.0753  0.3879 -0.1285
31083W        W47217  15.409  14.409   0.022 -0.1995 -0.0899  0.0575
31084W        W47218   6.299   5.070   4.705  0.0353  0.0948  0.1069
31085W        W47219   2.739   7.501  12.692 -0.4089  0.1813  0.0027
31086W        W47220  13.209  11.018  16.417  0.2401  0.1124 -0.4715
31087W        W47221   9.115   3.260  15.295 -0.1377 -0.1168  0.1912
31088W        W47222   1.089   6.486  12.816  0.2204  0.1160  0.3860
31089W        W47223   8.576   2.742  12.601 -0.1136  0.0441  0.1676
31090W        W47224  14.144   8.683   0.135  0.0730 -0.2003  0.2560
31091W        W47225  15.161   9.050  16.035  0.0035  0.1896 -0.1868
31092W        W47226  11.711  13.235   6.240 -0.1155 -0.2305 -0.0884
31093W        W47227   0.722   6.857   2.799  0.0527 -0.1682  0.1566
31094W        W47228   7.974   9.022  15.889 -0.0684  0.2184  0.1207
31095W        W47229  13.104   2.619   1.511  0.0273  0.2874 -0.5128
31096W        W47230  14.072  13.395  11.208  0.1935 -0.0761 -0.0388
31097W        W47231   7.293  13.967  13.086 -0.0217  0.3960 -0.1535
31098W        W47232  11.085  13.692  16.357  0.0741  0.1187 -0.4301
31099W        W47233   0.548  11.775  12.945  0.1110 -0.0740  0.2519
31100W        W47234   3.147   3.947  16.201 -0.1456 -0.0846 -0.0296
31101W        W47235   7.466   1.813   5.440 -0.1315  0.2197 -0.0479
31102W        W47236  14.284   4.599  13.788  0.0020 -0.1112 -0.2853
31103W        W47237   5.953   4.900   0.323  0.0568 -0.2987  0.2470
31104W        W47238   5.925  13.565   3.495 -0.0157  0.2161 -0.4075
31105W        W47239  10.411  12.848  13.990  0.2659 -0.0703  0.1704
31106W        W47240   2.184  13.157  15.690  0.1715  0.5574 -0.1484
31107W        W47241  14.029   1.489  14.898  0.1339  0.0227  0.1197
31108W        W47242  14.818   0.882   0.560 -0.0007 -0.0609 -0.0329
31109W        W47243  16.980   4.934  16.260 -0.5929  0.1522 -0.0089
31110W        W47244  10.274   1.464  16.407 -0.0501 -0.2309  0.0843
31111W        W47245  15.965   5.093   4.888 -0.2808  0.1732  0.2439
31112W        W47246  13.786  10.251   3.704 -0.2995  0.3054  0.1577
31113W        W47247   7.712  17.318  16.591 -0.0130  0.0350  0.1212
31114W        W47248   5.220   7.541  12.299 -0.2725 -0.1229 -0.1862
31115W        W47249  16.473  10.054  13.531  0.1829  0.3577  0.0524
31116W        W47250   6.688   9.684   1.577 -0.2041  0.1338  0.1072
31117W        W47251   7.638  10.673  12.718  0.4120  0.1787 -0.1458
31118W        W47252   6.119  12.807  15.721  0.0475 -0.0275 -0.0771
31119W        W47253  13.484   8.220  11.869 -0.1430 -0.2046 -0.0775
31120W        W47254   6.688   8.255   4.493 -0.0826  0.0569  0.0992
31121W        W47255  12.528   4.811   4.823 -0.0679  0.1545 -0.2554
31122W        W47256   5.266   0.740  14.395  0.0047 -0.2390 -0.1356
31123W        W47257   6.672  13.681   5.625  0.0052 -0.3119  0.2031
31124W        W47258  12.330   8.604   3.941 -0.1063 -0.0110 -0.1070
31125W        W47259   7.216   7.981  12.389 -0.0569 -0.1524 -0.2016
31126W        W47260   4.183   9.428  15.363 -0.0435  0.2313 -0.0094
31127W        W47261   6.304  16.480  12.198 -0.0375  0.3129  0.1483
31128W        W47262  17.685   4.622  14.574 -0.1538  0.1157 -0.1886
31129W        W47263   7.116   9.158  16.388 -0.0970  0.0678  0.1801
31130W        W47264  11.852  16.303  12.361  0.2344  0.1481  0.0190
31131W        W47265  13.360   0.633  11.664 -0.3206  0.2354 -0.2722
31132W        W47266   4.611   0.031  16.350 -0.0703 -0.0151  0.2711
31133W        W47267  14.106  16.705   0.682 -0.2848  0.3149  0.2983
31134W        W47268  12.029  10.891  13.311 -0.2153  0.0521  0.1270
31135W        W47269   0.874   0.238   1.768 -0.1673 -0.1797 -0.2881
31136W        W47270   7.044   7.893  15.604 -0.2834 -0.5190 -0.0552
31137W        W47271  16.908   8.929   5.672 -0.1481  0.0421  0.0006
31138W        W47272  13.257   3.288  14.506 -0.0209  0.1226  0.0302
31139W        W47273   7.324  16.965  16.520 -0.0550  0.1174 -0.1135
31140W        W47274  10.200   3.804  13.980  0.0691  0.1428  0.1011
31141W        W47275   2.899   9.439  15.795 -0.1919  0.1009 -0.0856
31142W        W47276   5.106  14.840  11.854 -0.1516  0.0395  0.0438
31143W        W47277   2.210   2.171  11.289 -0.0286 -0.0567  0.1068
31144W        W47278   4.874  13.467  13.955 -0.0058  0.3430  0.0601
31145W        W47279   4.440  13.360  11.563 -0.0746 -0.1199 -0.1014
31146W        W47280   6.420  12.415   3.323  0.1272  0.0573 -0.3104
31147W        W47281  16.629   4.561   1.683  0.0454 -0.0527 -0.0848
31148W        W47282  16.669  12.653  16.473 -0.0743 -0.0272  0.5356
31149W        W47283   7.688   1.531   0.361 -0.0497  0.0296 -0.0147
31150W        W47284   8.210   2.637  13.836  0.1060 -0.1952  0.0569
31151W        W47285  13.413  10.392   1.937 -0.0409 -0.0104 -0.0058
31152W        W47286  13.118  13.266   0.282  0.2462 -0.0177 -0.1769
31153W        W47287   6.716  17.562  14.103 -0.0398  0.1275 -0.2349
31154W        W47288   3.047   5.053   2.763 -0.2408 -0.0421 -0.0699
31155W        W47289  11.913   0.531   5.767  0.0016 -0.3709 -0.0701
31156W        W47290  13.451  11.464  16.485  0.0419 -0.0293  0.0416
31157W        W47291   0.123   0.906   3.348  0.0434 -0.0745  0.0904
31158W        W47292  12.864   4.828   2.040 -0.1984  0.0823  0.1757
31159W        W47293   4.321  15.909   0.247  0.1589 -0.1448 -0.2355
31160W        W47294  13.737   1.002   2.052 -0.2887  0.1544 -0.1170
31161W        W47295   9.488   2.628  13.854  0.1184  0.2398 -0.1481
31162W        W47296   9.426  10.929  16.366  0.3206 -0.1439 -0.0602
31163W        W47297   3.084  13.555   4.539 -0.2193 -0.1829  0.0682
31164W        W47298  10.184   8.729   3.928  0.2505  0.3674  0.2235
31165W        W47299  10.625   0.729  14.360 -0.2151  0.2306 -0.0970
31166W        W47300   2.096  11.403   3.434  0.0987 -0.1375 -0.0276
31167W        W47301  16.603   8.348   2.131  0.2908  0.1518 -0.2201
31168W        W47302   3.780  17.324  13.433  0.4092 -0.2151  0.2431
31169W        W47303  13.770  17.976   0.519  0.1313  0.0077  0.2504
31170W        W47304  10.436  13.191   2.677 -0.1005 -0.0102 -0.3248
31171W        W47305   3.084   1.608   5.152  0.1475  0.0085 -0.2813
31172W        W47306   6.203  12.316  15.653  0.0724  0.0781 -0.1509
31173W        W47307   5.167   5.015   0.976 -0.1315 -0.1298 -0.0385
31174W        W47308  15.359   0.490   2.960  0.3696  0.1005 -0.0184
31175W        W47309   9.207  12.898  14.102  0.0381  0.2860  0.1256
31176W        W47310  12.653   9.741   1.057  0.0265  0.0693  0.1475
31177W        W47311   0.820   9.208   2.738  0.4297  0.1076  0.1253
31178W        W47312  16.044  10.145   2.854  0.1199 -0.0443  0.1786
31179W        W47313  14.226  15.381   2.425 -0.2274 -0.1162 -0.2128
31180W        W47314  13.653   3.737  16.614  0.1718  0.0538 -0.2018
31181W        W47315  14.745  11.559  12.749 -0.3882  0.0423  0.1295
31182W        W47316   0.373   2.200  16.529 -0.2559 -0.2589  0.0241
31183W        W47317  17.911   5.264   1.787  0.2133  0.2830 -0.1540
31184W        W47318  10.558   3.186  15.488 -0.1131  0.2952  0.0424
31185W        W47319   5.206   2.629   0.009  0.0402  0.0667  0.1216
31186W        W47320  15.453  12.734   1.586  0.1480  0.3928  0.2897
31187W        W47321   2.573  16.819   2.903 -0.0195  0.0247  0.0206
31188W        W47322  13.872  14.119   0.279  0.2203 -0.0181  0.1704
31189W        W47323   9.805  13.813  14.217 -0.1012  0.0876 -0.0683
31190W        W47324  10.676   1.160  16.607  0.0612  0.0777 -0.0097
31191W        W47325  15.437   1.238  15.615 -0.1152 -0.2160  0.0345
31192W        W47326   3.076  16.590  13.311  0.1592 -0.1563  0.0246
31193W        W47327  17.707   2.511  15.359 -0.2737 -0.0096 -0.0856
31194W        W47328  14.322   9.684  12.655  0.0485  0.0564 -0.2960
31195W        W47329   5.190   8.709  11.898  0.0807 -0.1215  0.3827
31196W        W47330  10.350  12.716  14.465  0.2977 -0.0197  0.0111
31197W        W47331   0.559   3.654  11.360  0.2156  0.1365 -0.0014
31198W        W47332   4.130   0.557  12.885 -0.3158  0.2753 -0.0355
31199W        W47333   0.836   6.708  12.408 -0.1137 -0.3147 -0.0387
31200W        W47334   3.649   9.149   0.160 -0.1306 -0.2494  0.1134
31201W        W47335  12.953   9.017  15.798 -0.1513 -0.1207  0.0743
31202W        W47336   1.482  13.757   3.605  0.0451  0.0876 -0.1746
31203W        W47337  14.979   5.188  13.953  0.3975 -0.1249 -0.0550
31204W        W47338  13.720   3.687  16.134  0.0080 -0.2640  0.3371
31205W        W47339   7.374  10.258  12.871  0.1685 -0.1538 -0.2606
31206W        W47340  15.211  12.745  16.646  0.1673 -0.0532 -0.2277
31207W        W47341   2.009  11.839  13.309  0.0400 -0.2042 -0.0302
31208W        W47342   3.736   7.860  12.548  0.1642 -0.3209 -0.1055
31209W        W47343  11.483  10.551   0.759 -0.0180  0.0230  0.3560
31210W        W47344   5.236   2.840   2.107  0.1432 -0.1757 -0.0392
31211W        W47345  11.342   8.575   3.704 -0.0463 -0.2642  0.2846
31212W        W47346  12.356  15.902   4.036 -0.3323  0.0372  0.0439
31213W        W47347  17.696  13.713  11.564 -0.2549 -0.0242 -0.1298
31214W        W47348   1.996  13.401   4.142 -0.0617 -0.0156 -0.2735
31215W        W47349  14.391  12.862  12.078  0.1340  0.0880 -0.2909
31216W        W47350   9.793   0.892   2.367 -0.1968 -0.1073 -0.3230
31217W        W47351   5.837  11.521  15.475 -0.1037 -0.1327  0.2619
31218W        W47352  10.843  15.417  14.618 -0.2576  0.2601 -0.0223
31219W        W47353  11.569   8.076  12.642  0.1191  0.0331 -0.0283
31220W        W47354  16.605  15.200  14.440  0.1111 -0.3684 -0.0451
31221W        W47355   4.408   6.724  11.258 -0.2498  0.0682 -0.1829
31222W        W47356  11.475   9.489  14.343 -0.4784  0.1336 -0.0876
31223W        W47357  17.418  16.976   5.381 -0.0483 -0.0814 -0.0210
31224W        W47358   0.889   8.544   0.970  0.0828 -0.0946 -0.1459
31225W        W47359  15.630  13.380  15.401 -0.0282 -0.0969  0.1517
31226W        W47360  17.950   4.020   1.057 -0.0513  0.0302  0.1060
31227W        W47361  14.873  14.734  13.677  0.1491  0.0596 -0.0980
31228W        W47362   1.183   0.647   4.545  0.0553  0.3970  0.0334
31229W        W47363  13.336   4.045   0.151  0.0450 -0.1945  0.1902
31230W        W47364   7.246   4.684  12.262  0.1597 -0.0442 -0.2429
31231W        W47365  12.651  11.115   5.521  0.1770  0.0647 -0.0187
31232W        W47366   4.638   0.559   2.936 -0.3781  0.3123 -0.4294
31233W        W47367   9.967   8.897  14.417  0.1200  0.0373 -0.3545
31234W        W47368  12.426  13.766   2.923  0.1118 -0.0756  0.1314
31235W        W47369  17.017   7.730   3.391  0.2422 -0.1928 -0.0479
31236W        W47370   4.685   3.009   3.702  0.0164 -0.2458 -0.2898
31237W        W47371   8.689  10.767  11.178  0.3849 -0.0897  0.2023
31238W        W47372  14.356  16.273  13.099 -0.0050 -0.0013 -0.2087
31239W        W47373   1.936   3.099  13.619  0.1635 -0.0317  0.1818
31240W        W47374  11.489  15.998   3.131 -0.0236 -0.1493  0.0226
31241W        W47375  15.247   8.179   1.745 -0.0654 -0.0193  0.1912
31242W        W47376  16.455  17.078  15.441  0.0302 -0.1734 -0.2007
31243W        W47377  14.806   4.112   4.080  0.1514  0.2572  0.0943
31244W        W47378   7.062  12.461   2.551 -0.0744 -0.0456  0.0287
31245W        W47379  13.689   6.430   2.805 -0.0456  0.1675  0.1272
31246W        W47380   0.968   0.714   1.691 -0.0570 -0.1583  0.2427
31247W        W47381   8.403  10.545   3.314  0.2104 -0.0103 -0.1542
31248W        W47382   2.814   2.990  12.439 -0.0036 -0.0460 -0.0067
31249W        W47383  12.888   3.488  12.421 -0.4311  0.1945  0.0675
31250W        W47384   5.113   0.165   3.290 -0.3851 -0.1855 -0.4166
31251W        W47385  10.951   9.813   2.859 -0.4112  0.0797  0.0623
31252W        W47386   7.522   3.557   5.772 -0.0856  0.0759  0.0241
31253W        W47387   7.428   8.938  16.040  0.0518 -0.0335 -0.1947
31254W        W47388  16.483  17.915  11.346  0.1990  0.2146  0.1779
31255W        W47389  16.314  11.457   5.769  0.1962  0.0197 -0.0075
31256W        W47390  15.375   4.461   4.743 -0.0108  0.1184  0.0996
31257W        W47391  16.033   3.408  16.141  0.1719 -0.0954  0.2676
31258W        W47392   0.160   8.828   5.926 -0.0794 -0.0441 -0.2218
31259W        W47393   0.217   4.954  13.344 -0.4819  0.0400  0.2161
31260W        W47394   2.862  11.120  15.121  0.2502 -0.1517  0.3989
31261W        W47395   8.616  15.780   3.574  0.1023 -0.1426 -0.0061
31262W        W47396  16.461  17.800   0.420  0.1203  0.0840  0.0661
31263W        W47397  15.191   6.935  16.530 -0.0602 -0.0118  0.0901
31264W        W47398   0.318  10.308   5.416 -0.2270 -0.2199  0.2681
31265W        W47399   4.812   4.835  12.093 -0.0240 -0.2548  0.3224
31266W        W47400   4.769  11.017  14.639 -0.0839  0.2779 -0.1634
31267W        W47401   1.505  14.432  16.017 -0.1019  0.0959  0.0171
31268W        W47402  13.342  15.283   5.649  0.0763  0.1439  0.1899
31269W        W47403   8.381   8.031  14.991 -0.2040 -0.1348  0.0118
31270W        W47404  10.214   9.525  15.204  0.0235 -0.2271 -0.0124
31271W        W47405   8.491   5.698   1.452  0.0498 -0.3434  0.0933
31272W        W47406  15.087   4.853  11.615  0.0393  0.0900  0.0337
31273W        W47407  15.595   9.593  16.082 -0.2910 -0.0275  0.0483
31274W        W47408   4.161  12.749  15.354  0.1504  0.3291  0.0892
31275W        W47409  16.328   4.638  15.194 -0.0238  0.0708 -0.0872
31276W        W47410   2.169  12.430   3.996  0.0636 -0.0739  0.0921
31277W        W47411  10.497  10.196   0.225  0.2213 -0.1107  0.0605
31278W        W47412  12.082  11.924   1.574 -0.0739 -0.1405  0.1227
31279W        W47413   0.130   5.833   2.704  0.3167  0.2059  0.1894
31280W        W47414   7.601  13.267  12.319 -0.3110  0.1911  0.0622
31281W        W47415   0.632  16.469   3.251 -0.0098 -0.2801  0.0004
31282W        W47416  11.305  13.449   0.053 -0.1416  0.0191  0.2368
31283W        W47417  12.037  17.648  11.380  0.1254 -0.0079  0.0281
31284W        W47418   3.436   0.604  15.175 -0.0758  0.2483 -0.2623
31285W        W47419  11.496   9.355  13.902  0.1792 -0.2518  0.4820
31286W        W47420  14.165  16.013  12.737  0.1379  0.1322  0.1516
31287W        W47421   2.383  10.290  12.689  0.4848  0.1499  0.0580
31288W        W47422   3.098   6.751  11.796 -0.1135  0.2057 -0.0103
31289W        W47423  16.031   0.441   0.928  0.0985 -0.1697 -0.1404
31290W        W47424   9.811   6.634   3.872  0.0224 -0.1157  0.0804
31291W        W47425   5.628   1.225  13.577 -0.0109 -0.1414 -0.1727
31292W        W47426  14.172  11.220  13.478 -0.3420  0.0289  0.1602
31293W        W47427   1.713   2.604  16.715  0.0224 -0.0627  0.0175
31294W        W47428   8.346   4.640  13.060 -0.0531 -0.0328 -0.0846
31295W        W47429   4.490   4.101  16.163 -0.3145  0.1634  0.1710
31296W        W47430   0.727  14.218   1.917  0.0205  0.1054 -0.1142
31297W        W47431   5.474   8.934  13.359 -0.2134 -0.2409  0.0393
31298W        W47432   1.301   2.512   1.004 -0.2419  0.0002  0.3833
31299W        W47433   3.202  17.405  13.562  0.0377  0.0581 -0.0745
31300W        W47434  13.289  10.055   4.470  0.2599 -0.0009  0.0773
31301W        W47435   1.053  15.218   1.545  0.2922 -0.0648  0.0233
31302W        W47436  15.012   2.516  16.053  0.1151  0.1308  0.0904
31303W        W47437   3.484  17.315  16.357 -0.1566  0.1635 -0.1740
31304W        W47438  11.500   9.234  14.917 -0.1322  0.3219 -0.0776
31305W        W47439  12.599  17.094   0.785  0.0997  0.0118 -0.1497
31306W        W47440  12.778  14.751  12.657  0.0692  0.2044 -0.3420
31307W        W47441  10.343   6.150  12.055  0.0289 -0.1911  0.3660
31308W        W47442  13.436   5.983   5.228  0.2701  0.1793  0.0725
31309W        W47443  10.541  10.874  16.546 -0.0049  0.0237 -0.1035
31310W        W47444  14.699   1.100   1.054 -0.3089  0.0692  0.0586
31311W        W47445  17.308  13.891   1.053  0.2486 -0.0919  0.2568
31312W        W47446   7.901   9.333   1.231  0.0130 -0.0191  0.2219
31313W        W47447  13.106   2.192   0.279  0.1147  0.0423 -0.0608
31314W        W47448   9.226  10.175   1.401 -0.1594  0.0139 -0.0508
31315W        W47449   6.050   5.064   2.052 -0.0519 -0.0778 -0.4744
31316W        W47450   5.989   0.893   0.788  0.0735  0.1658  0.0741
31317W        W47451  17.283  12.174   1.934  0.1119 -0.2158  0.1337
31318W        W47452   9.899   2.395   0.439  0.1683 -0.1947  0.0488
31319W        W47453   6.540   7.849  12.129 -0.1211  0.2602 -0.1333
31320W        W47454  15.493  12.108   5.063 -0.2327 -0.1274 -0.1837
31321W        W47455  16.352   6.104   3.355  0.3786 -0.0005 -0.1529
31322W        W47456   4.166  15.754  13.373  0.1303  0.1171  0.1623
31323W        W47457   6.327   8.085   2.588  0.0704 -0.1802 -0.1708
31324W        W47458   8.276  14.057   4.682  0.0748  0.1952  0.1537
31325W        W47459  10.365   3.036   3.519 -0.1078  0.1989 -0.5434
31326W        W47460  17.735   2.634   1.386  0.2322  0.2394 -0.1950
31327W        W47461   9.770   6.697   4.521  0.1175 -0.1820 -0.0881
31328W        W47462  10.881   7.740   3.308 -0.2913 -0.0328 -0.5228
31329W        W47463   9.222  14.669   2.205  0.1829 -0.0208  0.0055
31330W        W47464   7.628   9.443   3.166 -0.0052  0.2618  0.1762
31331W        W47465  11.802   0.586   0.437  0.3982  0.2921 -0.2853
31332W        W47466  11.510   7.698   1.836 -0.1374  0.4100  0.4058
31333W        W47467   9.408  16.719   4.066  0.1616 -0.0303  0.0659
31334W        W47468   5.206  14.435   0.140  0.1345  0.0206 -0.3307
31335W        W47469   3.816   5.588  13.461 -0.2128 -0.0167 -0.1304
31336W        W47470   6.533   2.349  15.926 -0.0252  0.0112  0.1381
31337W        W47471  15.726  15.855   2.012 -0.2865  0.1714  0.1810
31338W        W47472   0.093  13.104  13.186 -0.4100 -0.0342 -0.1849
31339W        W47473  13.628   5.934   2.723 -0.2798 -0.2948 -0.3673
31340W        W47474  14.825  15.487  11.671 -0.2009 -0.3266  0.1623
31341W        W47475   0.029   2.482   4.664  0.1439 -0.4547 -0.2778
31342W        W47476   4.501   9.763  15.153  0.0755  0.0623 -0.1329
31343W        W47477   5.062   6.632  14.874  0.1329 -0.0836 -0.0885
31344W        W47478   8.156   7.847  14.516 -0.2285 -0.2998  0.0953
31345W        W47479  13.251   8.544   3.401 -0.1260 -0.0560 -0.1728
31346W        W47480   9.709  17.526   4.444 -0.0740  0.1006  0.2355
31347W        W47481   7.396   5.507   0.085  0.1204 -0.0057 -0.1559
31348W        W47482  10.855   3.603   0.063  0.1005  0.2668 -0.2054
31349W        W47483  10.540   9.092   3.904 -0.2348 -0.1275  0.0803
31350W        W47484  12.205   0.694  14.305  0.2523 -0.1622 -0.0463
31351W        W47485  12.357   7.262   4.641 -0.0716  0.0816  0.0959
31352W        W47486   0.406  13.479  14.929  0.2633 -0.1784 -0.1529
31353W        W47487   6.203  11.755   2.596 -0.2361  0.0535  0.2383
31354W        W47488  15.956  11.154   5.966  0.0838 -0.0067 -0.2561
31355W        W47489  15.502   6.713  12.527 -0.1981 -0.2348 -0.1097
31356W        W47490   1.166   2.821   5.062 -0.1912  0.3525  0.0612
31357W        W47491  14.237   9.188  15.633 -0.2099 -0.0003 -0.1283
31358W        W47492   1.161   4.771   5.746 -0.1228  0.0511  0.0193
31359W        W47493  13.736   4.372   4.568 -0.0949  0.0087  0.0345
31360W        W47494  12.064  17.910   2.941 -0.0548 -0.5477 -0.2591
31361W        W47495  17.970   7.267   0.090 -0.1154 -0.0417 -0.5029
31362W        W47496   2.322   2.379  13.174  0.1308  0.1678  0.2651
31363W        W47497  10.903  12.411  15.905  0.0233  0.0416  0.0001
31364W        W47498   3.484  12.831  13.871  0.0463 -0.1263  0.0142
31365W        W47499   7.104   6.635  12.653  0.3147  0.1896  0.4396
31366W        W47500   1.289   8.962   1.029 -0.0435  0.0795 -0.0990
31367W        W47501   1.112  15.138  12.352 -0.0962  0.1131 -0.3793
31368W        W47502  15.338   8.386   2.337  0.0391  0.2354 -0.0220
31369W        W47503   2.702  14.257  12.700 -0.1186  0.0883 -0.0983
31370W        W47504   1.951   0.228  15.373 -0.0700  0.1049  0.0778
31371W        W47505   8.586  17.170  13.164  0.0411  0.0379  0.1307
31372W        W47506  15.856  13.305   0.913 -0.1075 -0.0053 -0.0277
31373W        W47507   1.023  10.762  16.419  0.2011  0.1347 -0.0416
31374W        W47508   7.891  13.826   1.231  0.1764 -0.3113  0.0548
31375W        W47509   7.591  10.561  11.972 -0.0553  0.2304 -0.2248
31376W        W47510   9.638  15.555   1.238  0.0207  0.0340  0.1186
31377W        W47511   8.492   5.661   2.727 -0.1374  0.2677  0.2575
31378W        W47512   7.521  11.476  15.016 -0.0969 -0.3739  0.1335
31379W        W47513   8.700   0.228  16.558 -0.3088 -0.2447 -0.0614
31380W        W47514  12.247   7.378  12.063 -0.1985 -0.1348  0.1023
31381W        W47515   2.234   6.762   0.276 -0.1123 -0.1638  0.0202
31382W        W47516   3.837   5.017  12.914 -0.2057 -0.0381  0.2001
31383W        W47517   0.178  16.185   5.278 -0.2197  0.2364  0.0995
31384W        W47518  16.538   0.111  16.647  0.0105 -0.2349  0.1456
31385W        W47519   8.727   8.612  12.493  0.2062 -0.1744 -0.0170
31386W        W47520   8.137  12.385  11.198 -0.0220 -0.0643 -0.1730
31387W        W47521   4.333   9.696   2.499  0.0458  0.2258  0.1817
31388W        W47522   4.581   9.246  15.035  0.2951 -0.0965 -0.1127
31389W        W47523  16.434   6.174   2.860 -0.0088  0.0291  0.1428
31390W        W47524   2.071   7.240   2.180  0.0910  0.1409 -0.0193
31391W        W47525   8.709  17.699   1.339 -0.3220 -0.1448  0.1266
31392W        W47526   6.187   2.382   2.649 -0.2639  0.0241  0.2062
31393W        W47527  16.970  13.071  15.120  0.1410  0.2253 -0.0262
31394W        W47528   8.446  15.815  11.867 -0.1006 -0.1237 -0.2333
31395W        W47529  11.930  17.045  16.133  0.3491 -0.2560 -0.1560
31396W        W47530   2.449   7.998   3.562 -0.2954  0.0985 -0.1504
31397W        W47531   0.178  13.555  11.553  0.2823  0.1820 -0.1406
31398W        W47532   1.438   2.997  16.595  0.1109  0.1626  0.2384
31399W        W47533  14.972  11.337  15.032 -0.3431 -0.2622 -0.1679
31400W        W47534  17.290  13.016  15.579 -0.0096  0.3659  0.2688
31401W        W47535  13.381  11.758  15.746  0.2065  0.2358  0.2175
31402W        W47536  15.937   6.150   4.451 -0.0638  0.0934 -0.3102
31403W        W47537  16.462   8.843   1.317 -0.0587 -0.1774 -0.1768
31404W        W47538   3.177   2.604  15.132 -0.0329  0.2197  0.1051
31405W        W47539   4.969   7.722   1.963 -0.0490  0.1408  0.2065
31406W        W47540  13.693   2.686  15.560 -0.2509 -0.1983 -0.0782
31407W        W47541  11.388  16.593   1.691  0.2582  0.1109 -0.2561
31408W        W47542   0.722   9.289  12.117 -0.1383 -0.2330  0.1622
31409W        W47543   2.981  14.850   0.559  0.0638 -0.3189 -0.1348
31410W        W47544  16.305  13.067   5.642  0.1713 -0.1249 -0.3355
31411W        W47545  13.212  11.519  11.663  0.0310 -0.0388  0.0145
31412W        W47546   3.997   1.232  14.549 -0.0569 -0.0328 -0.1017
31413W        W47547   0.460   9.002  11.512  0.1134  0.4396  0.1446
31414W        W47548   2.033   6.216  15.185  0.0461  0.1229  0.1713
31415W        W47549   0.614  17.194  16.700 -0.0972 -0.1471  0.0002
31416W        W47550  15.365   7.620   5.247  0.0695 -0.1321 -0.0455
31417W        W47551   7.637  16.924  12.613  0.0539  0.0959 -0.0089
31418W        W47552   3.957   4.580  13.782 -0.4368 -0.0949 -0.0100
31419W        W47553  16.797  13.861  11.196 -0.0308 -0.0771 -0.1006
31420W        W47554  15.521   1.971   0.049  0.0521 -0.0970 -0.2770
31421W        W47555   7.985  14.575  15.322  0.1772  0.1073 -0.0053
31422W        W47556   0.823   4.349  11.616 -0.0990 -0.2416  0.0957
31423W        W47557   6.620  17.022   2.834 -0.1013 -0.1771 -0.0235
31424W        W47558   5.862   4.466  11.571  0.0343 -0.2052 -0.0385
31425W        W47559   5.445  16.836   4.985 -0.1651  0.1294 -0.0250
31426W        W47560  13.286   6.919  14.754 -0.2287  0.0589  0.1390
31427W        W47561  14.195   4.604   2.268  0.2095 -0.2148  0.0663
31428W        W47562  11.713   0.927  12.595 -0.3859 -0.1345  0.2519
31429W        W47563   9.835  13.366  16.670  0.0363 -0.0721  0.0249
31430W        W47564   4.621  12.328   2.921 -0.0858 -0.0616  0.1537
31431W        W47565  10.205  12.035   2.457  0.1294 -0.0299 -0.0120
31432W        W47566  11.959  16.835   3.306 -0.1405  0.3407  0.1594
31433W        W47567   6.806   0.435  13.618  0.0068  0.0147 -0.1773
31434W        W47568  17.865  13.495   3.449  0.2316 -0.0188  0.0523
31435W        W47569   7.063   4.580   4.621 -0.2122  0.1788 -0.1255
31436W        W47570  13.411   5.798  13.611  0.2480  0.0546  0.0165
31437W        W47571   3.812   3.085   1.671  0.0362 -0.1066 -0.0706
31438W        W47572   7.695  15.779   5.757  0.0229 -0.3678 -0.1643
31439W        W47573   5.168   3.614  13.168  0.1107 -0.1716 -0.0180
31440W        W47574  12.176   8.934  12.137 -0.2481 -0.1390  0.0997
31441W        W47575   2.162   6.322   0.006  0.0059  0.1032  0.1522
31442W        W47576   7.990   1.044  15.672 -0.0544 -0.1519 -0.1206
31443W        W47577   2.406   3.557   4.347  0.0557 -0.0894  0.2769
31444W        W47578  12.694   7.119   2.616 -0.1124 -0.2961 -0.2224
31445W        W47579   9.928  14.781   2.936 -0.1288 -0.2238 -0.0694
31446W        W47580  15.027   5.695   0.970  0.0674 -0.2542 -0.0714
31447W        W47581  15.623   3.927   1.824 -0.2089  0.0824 -0.2894
31448W        W47582   6.692  12.292  15.288  0.0318 -0.2823 -0.1381
31449W        W47583   8.621  15.745  15.710 -0.0599  0.1029  0.0270
31450W        W47584   2.064   4.938   3.700  0.0197 -0.0027 -0.0494
31451W        W47585   6.957  14.034  13.445  0.1122  0.0315 -0.0455
31452W        W47586   9.135  12.671   1.912 -0.1073  0.1001 -0.2919
31453W        W47587   0.755  13.554   1.160  0.1749 -0.1276  0.1026
31454W        W47588   1.075   3.822   4.266  0.0855  0.0119  0.1368
31455W        W47589   9.419   7.324   4.190  0.2016  0.1644  0.0987
31456W        W47590  13.638  16.752  12.500  0.1205 -0.0782 -0.3022
31457W        W47591  12.052   3.433   1.800  0.2234  0.2007  0.1279
31458W        W47592   3.391  17.788   1.081 -0.3928 -0.1850 -0.2840
31459W        W47593   5.058   5.367   4.738 -0.1931  0.0551  0.0070
31460W        W47594  17.580  12.304   5.357  0.5341 -0.1538 -0.0839
31461W        W47595  12.003   2.086  14.406 -0.0098 -0.1304 -0.1400
31462W        W47596  12.231   8.708   2.729  0.2242 -0.1333 -0.2734
31463W        W47597  11.112   4.814   1.317 -0.1985  0.2032  0.2934
31464W        W47598   9.065  13.842  11.315  0.1145 -0.0880 -0.2106
31465W        W47599   1.522   1.633  11.328 -0.1707 -0.0833  0.1654
31466W        W47600   6.741   5.066  14.052 -0.0820 -0.0871 -0.0571
31467W        W47601   7.570  15.940   0.342  0.3995  0.3190 -0.0718
31468W        W47602   4.677   5.809   6.101 -0.0226 -0.3993  0.1726
31469W        W47603  11.955   7.833  12.875  0.0382  0.0308 -0.0663
31470W        W47604   9.363   8.369   0.615  0.3231 -0.0506  0.0789
31471W        W47605  12.125  15.509  14.248  0.0697 -0.0565  0.0583
31472W        W47606   1.621   5.880   5.067 -0.0014  0.3203 -0.0674
31473W        W47607   2.085   5.616   0.699 -0.0223 -0.1104 -0.2048
31474W        W47608   4.898   3.663   1.063  0.0907  0.1703  0.0492
31475W        W47609   4.996   6.770   0.319 -0.1547 -0.0374  0.0808
31476W        W47610   9.016   6.640  11.888  0.2018 -0.0749 -0.0209
31477W        W47611   5.368  13.882   4.232  0.1067  0.1466 -0.0185
31478W        W47612   3.262  16.895   1.103  0.0505  0.1755 -0.2175
31479W        W47613  11.317   6.762   2.419 -0.0199 -0.1798  0.1472
31480W        W47614   3.668   7.701   4.400 -0.0752 -0.1179 -0.0125
31481W        W47615  14.799   2.916  14.417 -0.0624 -0.1627  0.0409
31482W        W47616   8.461   9.339   3.557 -0.0003 -0.2267  0.3447
31483W        W47617   1.936   6.617   4.036 -0.2786 -0.0383 -0.0961
31484W        W47618   8.547  11.720   4.472 -0.0569 -0.0569  0.0978
31485W        W47619  13.659   1.149  16.287  0.2742 -0.2332 -0.2878
31486W        W47620  11.416  16.958   1.331 -0.1452  0.4226  0.0839
31487W        W47621  16.958   6.660   3.778 -0.0154  0.0732 -0.3902
31488W        W47622   7.657   8.193   0.641 -0.0358  0.2158  0.1848
31489W        W47623  12.446  13.034   1.290 -0.2476 -0.0442  0.1810
31490W        W47624   8.133  16.430   3.277  0.1322  0.0330 -0.0360
31491W        W47625  14.667  12.543   5.790  0.2256 -0.0817  0.2268
31492W        W47626   7.596   9.934   4.826  0.2552 -0.2665 -0.2090
31493W        W47627  17.147  15.944  16.477 -0.1000  0.0770 -0.0828
31494W        W47628   0.856  11.188  14.122  0.1059 -0.2999 -0.1265
31495W        W47629  14.736  15.440   3.475  0.0775 -0.1143 -0.0282
31496W        W47630   5.092   4.407   3.016  0.0216 -0.0773  0.1283
31497W        W47631  12.740   4.454  15.550  0.1180 -0.1464  0.1787
31498W        W47632   6.968  16.278  11.673 -0.1325 -0.3068  0.0018
31499W        W47633   8.212   6.812   2.621 -0.2445 -0.1595  0.0951
31500W        W47634   3.233   7.177   1.029 -0.1977  0.1977  0.0123
31501W        W47635  16.484   0.939  16.377 -0.0838  0.0191  0.2875
31502W        W47636  11.207  15.420  14.284 -0.0220 -0.0441  0.0900
31503W        W47637  15.172   5.534  14.324  0.0777  0.0145  0.3108
31504W        W47638   3.285   9.994   5.136 -0.0655 -0.1285  0.0630
31505W        W47639   7.544  11.670  12.468 -0.0160 -0.0766  0.0241
31506W        W47640   5.787   3.227   5.897 -0.1976  0.2787 -0.0060
31507W        W47641   7.315   8.425   0.364  0.1332  0.5499 -0.1047
31508W        W47642   1.911   0.269  12.093  0.2451  0.0372 -0.0951
31509W        W47643   1.196  10.974   5.771 -0.3236 -0.2088  0.0593
31510W        W47644   1.120   4.782   1.240 -0.1061  0.1864  0.4106
31511W        W47645  14.633   1.887   0.615 -0.0590  0.0676  0.1448
31512W        W47646   2.485   7.786   6.073 -0.1351 -0.0449 -0.1408
31513W        W47647  16.747   8.680   3.365  0.0638 -0.1817  0.0277
31514W        W47648  15.642  13.699   2.424 -0.1722  0.0823  0.0509
31515W        W47649   2.534  16.023  11.144 -0.1996  0.1017 -0.1599
31516W        W47650  17.478  17.809   1.856  0.0071  0.0301  0.0289
31517W        W47651   0.499   3.041  14.832  0.0416  0.1142  0.2022
31518W        W47652   6.340   5.741  14.659 -0.1076  0.0912  0.0417
31519W        W47653  12.711   5.174  11.542 -0.1090  0.1473 -0.2143
31520W        W47654   5.724   5.525   4.038 -0.1548  0.1931  0.2911
31521W        W47655  15.021  11.970   3.793  0.1336  0.1355  0.0061
31522W        W47656   5.819   2.175   4.589 -0.0435  0.3747  0.0843
31523W        W47657  11.082  12.984  12.147  0.0284  0.0113 -0.1358
31524W        W47658  11.470   9.971  15.637 -0.0388  0.2385 -0.0663
31525W        W47659  14.129  13.934   1.272 -0.3358 -0.2120 -0.1324
31526W        W47660   1.896   6.250   6.465 -0.0424  0.0321  0.1119
31527W        W47661   4.563   3.591   6.009 -0.0213 -0.1644  0.0525
31528W        W47662  14.376   7.428   1.072 -0.2260 -0.2652 -0.0654
31529W        W47663  10.082  13.909   0.973  0.0428  0.1069  0.1964
31530W        W47664   7.853   8.435  12.166  0.0466 -0.0169  0.2767
31531W        W47665  13.624  11.169  15.358 -0.2570  0.0880  0.2715
31532W        W47666  11.875  17.065   4.052  0.3398 -0.1840 -0.1325
31533W        W47667  17.002   8.788   0.379 -0.2125 -0.0904 -0.3349
31534W        W47668  14.900   6.126  13.449 -0.1882  0.2492  0.0349
31535W        W47669   9.762   2.618  14.368 -0.0221 -0.0776  0.0263
31536W        W47670  13.566   1.176   5.004 -0.1645 -0.4549  0.3224
31537W        W47671   5.800   8.130  13.405 -0.0115 -0.2288  0.0206
31538W        W47672   3.558   2.245  11.667  0.0271  0.0398  0.1322
31539W        W47673   2.919   4.578  14.291  0.1157  0.0710  0.1705
31540W        W47674  13.689  10.517  11.777  0.0857  0.0239  0.0117
31541W        W47675  12.071   8.036  15.195  0.0748  0.2803  0.1008
31542W        W47676   3.343   6.793   4.337 -0.0017 -0.0347 -0.1958
31543W        W47677  15.641   6.420   4.151  0.1583  0.0784  0.0527
31544W        W47678  10.524  14.380  11.355 -0.2526  0.0971 -0.0633
31545W        W47679   3.782  17.145  13.937  0.0029  0.0176  0.1478
31546W        W47680   4.908   0.621   0.369  0.0257 -0.2953 -0.0370
31547W        W47681   0.104   5.579   2.088 -0.1130  0.2029  0.3665
31548W        W47682  14.188  17.923   6.258  0.0563 -0.0077 -0.0035
31549W        W47683   0.259   9.437   1.876  0.1368  0.2053 -0.1477
31550W        W47684  15.785  15.937   0.324  0.1450  0.2084 -0.1376
31551W        W47685   1.077   0.685   5.073 -0.0704  0.2565  0.0984
31552W        W47686  15.709   8.270   2.060  0.0287  0.0017 -0.1688
31553W        W47687   3.033   5.437   1.275 -0.0153 -0.2379 -0.3866
31554W        W47688   6.158  10.070  14.067  0.1672 -0.0848 -0.0177
31555W        W47689  17.690  12.875  16.370  0.0287 -0.1173 -0.1799
31556W        W47690   6.212   4.402  15.822 -0.3518 -0.0403  0.0137
31557W        W47691   4.495   1.041  16.281  0.0305 -0.1094  0.2197
31558W        W47692  15.903  16.106  16.262 -0.2173  0.2179  0.1676
31559W        W47693   9.738  17.765  13.488  0.1429 -0.1440 -0.0284
31560W        W47694  17.464   9.932   0.206  0.1824 -0.2907 -0.1470
31561W        W47695  12.421   2.082   2.761  0.3050 -0.1668  0.2696
31562W        W47696   1.141  17.358  15.442 -0.1514 -0.0829  0.0892
31563W        W47697   4.148   3.802  14.910 -0.0459 -0.0831  0.2029
31564W        W47698   7.509   2.631   0.990 -0.0197  0.1409  0.3363
31565W        W47699   1.737  17.136  11.005 -0.1555 -0.1127  0.0192
31566W        W47700   4.859   3.990   3.231  0.1119  0.3045 -0.0256
31567W        W47701  16.302   1.400   4.882  0.1475  0.2703 -0.0063
31568W        W47702  12.509   0.966   1.812  0.0338 -0.1927  0.1456
31569W        W47703  14.050   6.719  13.820  0.1161 -0.3035  0.2872
31570W        W47704   0.700   0.896  13.961  0.1432  0.5585  0.2860
31571W        W47705  11.306   7.081   2.870  0.1184 -0.0059 -0.1081
31572W        W47706   4.563  16.005   3.719 -0.3104 -0.0114 -0.1444
31573W        W47707  11.604  17.562   2.206 -0.3313 -0.2491  0.2688
31574W        W47708   5.247   4.911  15.748 -0.0665  0.3225  0.0375
31575W        W47709  16.556  12.900  14.213 -0.0757 -0.0774  0.0859
31576W        W47710   5.008   0.548  14.063  0.2105 -0.0194  0.0130
31577W        W47711   8.194  11.207   5.248 -0.2236  0.1241 -0.1489
31578W        W47712  10.039   0.872   1.455  0.1170 -0.1450  0.2556
31579W        W47713   5.385   0.887  12.993  0.0356  0.2534 -0.0232
31580W        W47714  12.634   1.944   0.126 -0.1755 -0.0428  0.1802
31581W        W47715  15.627   9.543  15.068 -0.2699 -0.1692  0.1412
31582W        W47716   0.873   1.307   2.921 -0.0837  0.0670 -0.2558
31583W        W47717  12.828  10.303   5.354 -0.1448  0.0435 -0.0009
31584W        W47718  16.058  11.158  15.413  0.3036 -0.2023  0.2758
31585W        W47719   1.024  12.543   0.055  0.0378 -0.3424 -0.1365
31586W        W47720   6.916  15.450  13.426  0.1293 -0.2789  0.1364
31587W        W47721  14.878   4.822   1.502  0.0980 -0.4672  0.0658
31588W        W47722   5.223   1.318  13.240  0.0587 -0.0333  0.1128
31589W        W47723  17.821   7.636   0.511  0.0002  0.1294  0.1501
31590W        W47724   9.331  12.753  10.472  0.1047 -0.1427  0.3205
31591W        W47725   8.768  17.086   0.367  0.0446 -0.4033  0.0312
31592W        W47726  11.355   6.996  12.674 -0.0548  0.0466 -0.0878
31593W        W47727  16.105  11.793   5.346 -0.0582  0.0202 -0.1733
31594W        W47728   8.589  16.558   3.546 -0.3231 -0.1128 -0.0646
31595W        W47729  16.518  14.995  15.079 -0.1726 -0.2852 -0.2212
31596W        W47730   8.162  12.115   4.682  0.1268 -0.1492 -0.2210
31597W        W47731   4.616   1.728  12.024  0.1077  0.1193 -0.2447
31598W        W47732  15.403  14.989   5.633 -0.1007 -0.2848 -0.3340
31599W        W47733   2.879   9.073  12.244  0.0652  0.1179  0.0396
31600W        W47734   3.927  10.137   3.445  0.0684  0.0521 -0.2880
31601W        W47735   5.551   7.167   3.752 -0.0328 -0.0210  0.1094
31602W        W47736  15.003  14.762   5.853  0.1841  0.0203 -0.1016
31603W        W47737   7.652   6.974  11.849 -0.0357 -0.1312 -0.3660
31604W        W47738   8.605   2.123  15.100  0.0730  0.0241  0.2120
31605W        W47739  14.755   1.900   2.193  0.1338 -0.1960 -0.1897
31606W        W47740  17.971  16.545  14.259 -0.0233  0.0386 -0.0499
31607W        W47741  10.601  14.247   3.347 -0.1860  0.0954 -0.0283
31608W        W47742  13.243   0.787  12.551 -0.1110  0.0330  0.0364
31609W        W47743   4.349   5.807   5.172 -0.0761 -0.1292  0.3045
31610W        W47744   3.373  15.492   2.559 -0.0810 -0.1936 -0.2985
31611W        W47745   7.763   1.047   3.920  0.0558 -0.1351  0.1778
31612W        W47746   5.631  15.986  15.841 -0.0043 -0.0039  0.1305
31613W        W47747   5.298  17.945  15.095 -0.0620 -0.1800  0.1836
31614W        W47748   0.821   4.489   3.687 -0.1334 -0.0667  0.1043
31615W        W47749  16.679   3.916  13.214  0.2906  0.0586 -0.2754
31616W        W47750  11.020  14.541  15.472 -0.1654 -0.1113  0.0796
31617W        W47751  17.407   5.123  15.969 -0.1352  0.0638  0.0613
31618W        W47752  11.716  12.997  14.866 -0.1715  0.0582  0.0465
31619W        W47753   5.864   8.514  13.115 -0.0036 -0.2555  0.0597
31620W        W47754   9.916  15.339   3.356 -0.0169  0.1441  0.1309
31621W        W47755  14.321  14.093   1.797 -0.0892  0.0959 -0.0553
31622W        W47756   2.272   6.262   5.688  0.2109  0.1260 -0.0719
31623W        W47757   6.127   9.272   1.927  0.0838  0.2357 -0.2314
31624W        W47758  11.049  11.908  15.818 -0.0107  0.0803 -0.1917
31625W        W47759   4.934  16.364   3.587  0.1304 -0.2989 -0.0582
31626W        W47760  12.196  16.309   3.856 -0.1505 -0.0890 -0.0445
31627W        W47761  14.827   1.371  14.328 -0.0887  0.1137 -0.2125
31628W        W47762  11.041   0.622   1.122 -0.3059  0.3253  0.1254
31629W        W47763  12.220  12.930  14.630  0.1115 -0.3030 -0.0738
31630W        W47764   9.239   6.820   1.055 -0.0299 -0.2694 -0.0460
31631W        W47765  15.543   0.755   0.134 -0.0631  0.0383 -0.0013
31632W        W47766   4.234   9.245  16.544 -0.0766  0.0220  0.1145
31633W        W47767  15.343   4.824   2.319  0.1665  0.0606  0.0613
31634W        W47768   2.810   4.494   1.674  0.2545 -0.0831 -0.2997
31635W        W47769   3.893  10.632   2.258 -0.0048  0.0770  0.0517
31636W        W47770  13.190  16.451  13.353 -0.0517 -0.0756  0.0261
31637W        W47771   5.248   8.008  12.637 -0.1082  0.1802 -0.1770
31638W        W47772  12.797   0.223  16.304  0.0052 -0.0417  0.0953
31639W        W47773  17.293  17.579  11.511 -0.2630  0.2330  0.0305
31640W        W47774   3.417   5.411  15.590  0.0689  0.1944  0.1828
31641W        W47775  11.922  10.362   0.541  0.1209  0.1064 -0.0319
31642W        W47776   0.499   2.968  12.894 -0.1273  0.0014 -0.1659
31643W        W47777  10.621  10.951  11.726  0.1205  0.1245 -0.1286
31644W        W47778   0.567  15.836   2.206 -0.0174 -0.1521 -0.2981
31645W        W47779  14.981  16.914   5.030  0.1682 -0.0021 -0.1656
31646W        W47780   5.694  12.441   4.598  0.0458  0.3670 -0.0617
31647W        W47781  10.925   4.623   4.005 -0.0535 -0.1726  0.0330
31648W        W47782  17.563   5.271   5.039 -0.1844 -0.0908  0.0743
31649W        W47783   6.870   3.297   1.744  0.0877  0.0011 -0.2112
31650W        W47784   6.955   3.782   3.929 -0.0116  0.1188  0.1082
31651W        W47785  11.547  15.801  15.050 -0.1015 -0.0442  0.1762
31652W        W47786   6.843   0.453   2.257  0.2182  0.1657  0.0995
31653W        W47787   8.720   2.001   5.119 -0.1000  0.1317  0.4891
31654W        W47788  11.812  13.120  13.789 -0.3729 -0.0613  0.0332
31655W        W47789   9.194   6.260   3.265 -0.1535 -0.2721 -0.3042
31656W        W47790   3.081  15.329   3.865 -0.1478 -0.0583  0.1390
31657W        W47791  13.568   6.048  14.817  0.0058  0.0967 -0.4920
31658W        W47792  16.407  16.348  12.699 -0.3780  0.1169  0.0940
31659W        W47793  13.329   1.780  12.605  0.2324 -0.2007  0.2011
31660W        W47794  16.005  15.491   0.248  0.0835 -0.0529 -0.0528
31661W        W47795  13.750   4.448   3.119 -0.0409 -0.2090  0.3254
31662W        W47796   7.248   8.845   5.710 -0.5036 -0.2654  0.0956
31663W        W47797   5.443   9.651   5.547  0.0590  0.2490  0.3594
31664W        W47798  17.166  12.523  12.262  0.2003  0.0195 -0.1885
31665W        W47799   9.896  17.449   2.240 -0.2924  0.0456 -0.1730
31666W        W47800  12.654   8.364  14.929 -0.0209  0.1157 -0.1675
31667W        W47801   9.582   4.129   4.658 -0.1132 -0.1479 -0.3375
31668W        W47802   6.612   3.440   5.251 -0.1138  0.1585  0.2320
31669W        W47803   6.905  10.895  14.158  0.1129  0.2077 -0.3518
31670W        W47804   7.654   5.585   2.728  0.0698 -0.0295 -0.0824
31671W        W47805  13.677   6.093   0.150  0.1243  0.0631  0.2451
31672W        W47806  17.027   2.620   4.776 -0.1061  0.0617  0.4957
31673W        W47807   8.692  10.586   5.801 -0.0794 -0.0083  0.0544
31674W        W47808   2.142  12.353   5.763 -0.2527 -0.0123  0.0468
31675W        W47809  17.066  16.461   2.017 -0.1377 -0.2504 -0.0260
31676W        W47810   8.090   4.911  15.643 -0.1694  0.0153  0.3286
31677W        W47811   9.684   1.075   1.047 -0.1492 -0.0616  0.1040
31678W        W47812   4.742  11.613   1.365 -0.0579 -0.1636 -0.1277
31679W        W47813   0.888  15.751  13.937  0.0648  0.0525 -0.1347
31680W        W47814   2.862   3.604  12.162 -0.0937  0.0225  0.2755
31681W        W47815   6.938   6.915  15.707  0.1109 -0.1696 -0.2070
31682W        W47816   6.195   3.740  16.484  0.1197  0.1050 -0.1283
31683W        W47817   4.728  14.259   4.013 -0.0605  0.1697  0.0262
31684W        W47818   3.713  10.394  16.461  0.1169  0.2402 -0.3763
31685W        W47819   5.722   2.305  16.473  0.1999  0.0189  0.0379
31686W        W47820  16.330  11.107   4.079 -0.0491  0.3369 -0.1658
31687W        W47821   4.833   2.573   0.828 -0.0094 -0.1110  0.0102
31688W        W47822   3.288   3.129  13.422 -0.0372 -0.0551 -0.2693
31689W        W47823  13.882   6.633   3.725 -0.0624  0.1415  0.1663
31690W        W47824   4.066   4.180   1.050 -0.0958  0.0839 -0.2617
31691W        W47825   6.710   0.958   2.284  0.0066 -0.0973  0.0514
31692W        W47826   8.706   7.055  15.580 -0.1897  0.0843 -0.4218
31693W        W47827   4.452   4.411  13.744 -0.1737  0.3260 -0.1722
31694W        W47828  14.730  12.913   0.564  0.2368 -0.2578  0.4365
31695W        W47829   4.506  10.248  14.675 -0.0210 -0.1591  0.0427
31696W        W47830  16.940   3.590   0.814 -0.0773 -0.3367  0.2257
31697W        W47831   2.933   7.679  14.597  0.1880 -0.0705 -0.1607
31698W        W47832  14.431   1.711  15.885  0.0194 -0.2126  0.1235
31699W        W47833   0.220  17.750  11.535  0.2433  0.0747  0.0643
31700W        W47834   6.908   0.357  15.633 -0.0610  0.0153  0.0727
31701W        W47835   5.809   1.393  16.611 -0.2223  0.1639  0.0706
31702W        W47836  13.807   3.587   4.837  0.1200 -0.1951 -0.0343
31703W        W47837   3.953   5.572  12.917 -0.4500  0.1862  0.0917
31704W        W47838  13.727  12.738   3.390  0.1395  0.0524 -0.1869
31705W        W47839  13.054   2.168  15.549  0.0115 -0.0269  0.1334
31706W        W47840   0.550   0.748   0.220 -0.0528 -0.2309  0.1214
31707W        W47841   7.287   3.372  14.081  0.1647 -0.1598 -0.0790
31708W        W47842   3.931   7.901  10.808 -0.0189 -0.0200 -0.1686
31709W        W47843   5.699   0.758  13.726  0.2743 -0.1252 -0.2705
31710W        W47844   5.057   3.185  14.709 -0.0380 -0.1932  0.0028
31711W        W47845  13.798   8.072  15.870 -0.2801 -0.2339  0.2084
31712W        W47846  10.625  14.517  11.861 -0.0094 -0.1126  0.1298
31713W        W47847  17.512   1.460   0.787  0.0787 -0.1988 -0.2301
31714W        W47848  10.023  12.744  11.574  0.2077  0.0008 -0.0106
31715W        W47849   9.407   3.397   0.186  0.1838 -0.5654  0.0020
31716W        W47850  10.404   8.237  13.653 -0.0325 -0.0700  0.2686
31717W        W47851   1.126   0.606  12.703 -0.1968 -0.0750  0.0410
31718W        W47852   2.834  13.653   1.348  0.1196  0.0156 -0.0938
31719W        W47853  14.968   0.144  12.289  0.0250  0.2983  0.0269
31720W        W47854  16.430   1.964  11.552  0.1727  0.1327  0.0280
31721W        W47855  13.283  17.707   5.418 -0.0306 -0.1839 -0.0581
31722W        W47856   1.145   9.590   3.630  0.1666  0.3764 -0.1554
31723W        W47857   0.596   0.934   2.400  0.0273  0.0346  0.0702
31724W        W47858   4.900   3.273  15.203  0.1878  0.1374  0.2275
31725W        W47859  14.690   6.152   0.226  0.0956  0.1556 -0.2449
31726W        W47860   6.909   9.798   2.803  0.0614  0.0347  0.0343
31727W        W47861  12.562  15.372  13.967 -0.1415 -0.2093  0.0100
31728W        W47862   4.005   6.442   0.562 -0.2171 -0.2107  0.3346
31729W        W47863   7.253   6.734  11.120 -0.1703 -0.3731  0.0008
31730W        W47864  17.012  17.655   3.582 -0.0615  0.1024  0.0808
31731W        W47865  17.077   0.986   5.083  0.0703  0.0399  0.1052
31732W        W47866   7.938  10.242  12.665 -0.0345 -0.2506  0.0129
31733W        W47867   3.367   5.363   2.247  0.1474  0.1118 -0.1046
31734W        W47868  14.990  17.151   0.450  0.3349  0.1789  0.3873
31735W        W47869   9.982   5.758  12.018 -0.0189  0.0477 -0.0218
31736W        W47870   6.951   5.578  14.233 -0.3704  0.0615 -0.1390
31737W        W47871   4.962   2.215  13.083  0.0272 -0.0244  0.2223
31738W        W47872   6.458   5.529  16.704 -0.0890  0.1028 -0.2009
31739W        W47873   7.517  13.623   4.024  0.0262  0.0681 -0.0505
31740W        W47874  11.171   8.831  12.570  0.0262  0.0090 -0.0153
31741W        W47875   8.767  12.609   0.280  0.0211  0.1643 -0.2153
31742W        W47876   2.751   7.992  10.835  0.1063  0.2257 -0.1500
31743W        W47877  15.695   4.677  13.462  0.1418  0.0835  0.0390
31744W        W47878   8.181   3.452   5.120 -0.2661  0.2341 -0.3074
31745W        W47879  12.524   7.909  16.538  0.0525 -0.2063 -0.1317
31746W        W47880   7.946   6.868   4.091 -0.0729 -0.0396 -0.1190
31747W        W47881   0.011   9.927   0.181 -0.1134  0.0242 -0.1610
31748W        W47882  16.565  14.414   5.815 -0.0697  0.1098  0.3749
31749W        W47883   4.889  14.292   5.527 -0.2620  0.0274  0.3898
31750W        W47884   9.965   4.354   3.749  0.0368  0.1764 -0.0695
31751W        W47885   1.035   2.160   2.164 -0.0477  0.0803 -0.0966
31752W        W47886  16.514   1.715  14.992 -0.0052 -0.1388  0.0634
31753W        W47887   7.987   1.058  14.253  0.1587 -0.3507 -0.0508
31754W        W47888   0.251  14.883  13.990 -0.1277  0.1968  0.1060
31755W        W47889  10.190   6.377  14.514  0.4692 -0.0785 -0.2428
31756W        W47890  16.506   0.811   5.116 -0.1291 -0.1483 -0.2918
31757W        W47891   5.005  10.300  11.619 -0.0020  0.0760  0.3472
31758W        W47892   1.982  12.875   4.074  0.2014 -0.0957 -0.0615
31759W        W47893  14.911   9.749   6.224 -0.0929 -0.1369  0.0556
31760W        W47894  11.219   1.447   1.626 -0.1718  0.0378  0.0014
31761W        W47895  11.579  13.070   2.353  0.0150  0.1498 -0.0453
31762W        W47896  11.557   3.386   1.821 -0.2835  0.3767 -0.0605
31763W        W47897   5.255  15.782   2.327 -0.2240  0.2159 -0.0518
31764W        W47898   4.248   7.954   1.359 -0.1480 -0.2560  0.0799
31765W        W47899   0.860  13.557  12.300 -0.0134  0.1183 -0.3174
31766W        W47900  11.347  12.537   3.255  0.0134  0.0306  0.1782
31767W        W47901   5.038   2.469   1.352  0.2053 -0.2147  0.0482
31768W        W47902   0.859   5.677  15.084 -0.1096 -0.1877  0.0111
31769W        W47903   2.591   0.798  14.864 -0.1610 -0.1256  0.0106
31770W        W47904  16.476   8.179  12.907  0.3249  0.2540  0.0930
31771W        W47905  14.615   8.773  14.809 -0.1541 -0.0076  0.2959
31772W        W47906   6.942  10.688   2.237 -0.0851 -0.1428  0.2792
31773W        W47907  14.719  10.988  15.292 -0.0794 -0.0231  0.2665
31774W        W47908  10.217  16.513   1.970  0.0014  0.1542  0.1089
31775W        W47909   3.417   9.352   5.019 -0.0167  0.0639  0.1845
31776W        W47910   6.181   7.799   0.117  0.0376 -0.0688 -0.1547
31777W        W47911   5.421  11.942   5.512 -0.1666  0.0276  0.3115
31778W        W47912   2.597   1.450  14.378  0.2120  0.3021 -0.0849
31779W        W47913  10.453   5.727   5.107  0.2554 -0.3022 -0.1995
31780W        W47914  15.535   8.173   4.860  0.2217  0.1561 -0.0104
31781W        W47915  16.259   4.342  15.809 -0.1064  0.1170  0.4603
31782W        W47916  16.456  10.471   5.378  0.2623  0.0642  0.1216
31783W        W47917   7.807   1.328  13.250  0.1050  0.0749 -0.1557
31784W        W47918  17.223   6.597   5.066  0.0097 -0.2452 -0.0381
31785W        W47919  14.780   3.791   3.198 -0.2754 -0.3097 -0.0971
31786W        W47920   4.778   2.779   5.093 -0.1971  0.0681 -0.4328
31787W        W47921  12.333  12.552   1.272 -0.2574  0.0670 -0.0025
31788W        W47922  12.981   5.892  16.312 -0.0490  0.0881  0.0828
31789W        W47923  11.897  17.536  12.833  0.2712  0.0556 -0.0832
31790W        W47924   3.204   5.514   3.616  0.0874 -0.0460  0.0581
31791W        W47925   6.354  17.033   1.663  0.2052 -0.2042  0.2244
31792W        W47926  12.688  16.018  12.877  0.1725 -0.1967  0.0381
31793W        W47927   5.828  17.979  15.416 -0.0215 -0.4140  0.1522
31794W        W47928   6.583  13.145   0.156  0.1703  0.1896 -0.1047
31795W        W47929  13.986   4.617  12.175  0.0314  0.1539  0.0619
31796W        W47930   9.330   8.134  13.304 -0.1112 -0.4526  0.0625
31797W        W47931  17.519   6.595   5.792 -0.0121  0.0026  0.2670
31798W        W47932   0.033  11.708  14.917 -0.1983  0.2082  0.0040
31799W        W47933  15.868  16.857   3.424  0.1946 -0.0536 -0.1391
31800W        W47934   4.587   2.346   3.682  0.1023 -0.1912 -0.0774
31801W        W47935   8.711   2.226  12.614 -0.2727  0.1444 -0.0575
31802W        W47936   6.048  14.346  14.958  0.2182 -0.2228  0.1608
31803W        W47937   5.664  11.713  14.660 -0.0927 -0.1912  0.2081
31804W        W47938  14.141  14.621   5.185  0.1247 -0.0091 -0.0913
31805W        W47939   6.834   1.885   3.062  0.2952 -0.1165  0.0757
31806W        W47940   1.395  16.354  12.662  0.2008 -0.2661  0.0654
31807W        W47941   0.974   5.380   4.079 -0.1066  0.0514 -0.1319
31808W        W47942  10.129  12.075   5.002 -0.0977  0.1033 -0.1674
31809W        W47943  15.458   5.593   3.168 -0.2040 -0.0587  0.1214
31810W        W47944  12.934  11.732  12.943  0.2958 -0.1025  0.1445
31811W        W47945   4.741  10.671  13.530 -0.0356  0.1568  0.0006
31812W        W47946  13.144   4.198  15.287  0.5113  0.2524 -0.0109
31813W        W47947  11.345  14.391   4.557 -0.2281  0.1454 -0.3066
31814W        W47948   2.935   8.573  13.781  0.0809 -0.2816  0.3152
31815W        W47949  13.400  17.361  13.801 -0.1760 -0.0554 -0.1634
31816W        W47950   5.293   3.340   5.677 -0.0663  0.1986 -0.0491
31817W        W47951  12.150  12.423   1.704  0.0447 -0.2047 -0.2481
31818W        W47952   1.077   2.174   4.355  0.0695 -0.0463 -0.2924
31819W        W47953  11.815  15.424  12.760  0.0440  0.0087 -0.3006
31820W        W47954   8.859  15.563  11.672 -0.0320  0.0351  0.0991
31821W        W47955   3.625   2.255   5.684  0.1727  0.0317 -0.0812
31822W        W47956   3.980  15.191  16.449 -0.1486 -0.0357 -0.0678
31823W        W47957  14.351   5.653   1.087  0.1358  0.1512 -0.0904
31824W        W47958   8.942  13.475   0.303 -0.1104  0.1848  0.3422
31825W        W47959   4.800  17.940  14.914  0.1398 -0.1031 -0.0144
31826W        W47960  10.137   2.930   1.477  0.2174 -0.0566 -0.0189
31827W        W47961  10.913   2.261   0.661 -0.0075  0.0290 -0.3530
31828W        W47962   6.328   8.356   1.632 -0.0676 -0.1786  0.4898
31829W        W47963   4.918   9.240  12.225 -0.2273 -0.1107 -0.1589
31830W        W47964   5.778  13.224   2.189 -0.0518  0.4001  0.1076
31831W        W47965  15.187  13.272   4.873 -0.2625  0.3538 -0.1788
31832W        W47966   1.990   6.159   2.897 -0.5897  0.0128  0.2661
31833W        W47967   8.906  12.292   3.568  0.0464 -0.2534  0.0731
31834W        W47968   2.937  15.739   3.102  0.3803  0.0894 -0.0775
31835W        W47969  16.634   4.168  11.377 -0.1304  0.1164  0.1147
31836W        W47970  12.730  16.322   3.074 -0.1322 -0.1407 -0.1900
31837W        W47971   8.088   7.412   3.784  0.2218  0.0328  0.1108
31838W        W47972  11.530   6.737   5.914 -0.0931 -0.0107 -0.0706
31839W        W47973   7.856   1.733  16.079  0.1263 -0.1604  0.0395
31840W        W47974  13.754   5.377  13.949 -0.0556 -0.1203 -0.1399
31841W        W47975   3.443   8.937   0.733 -0.2672  0.0125 -0.1486
31842W        W47976   1.802   6.256  11.870 -0.1635  0.0614  0.1766
31843W        W47977   8.712   7.471  11.953 -0.1767  0.0893  0.2933
31844W        W47978   5.031  10.680  16.559 -0.2324 -0.1749 -0.2750
31845W        W47979  17.950  12.334  14.045  0.2412  0.4039 -0.2449
31846W        W47980  15.083  14.525  11.958  0.1117 -0.3077  0.2110
31847W        W47981   1.070  16.068   4.455 -0.1928 -0.2323  0.1179
31848W        W47982  13.137   9.645   4.886 -0.2497 -0.2581  0.2562
31849W        W47983  11.590   6.784   1.424  0.0448  0.1121  0.3806
31850W        W47984  15.349   6.727   2.090 -0.0247  0.0973 -0.1436
31851W        W47985   2.427  14.457   1.203 -0.0571 -0.3712 -0.2480
31852W        W47986   5.619  16.640  13.606  0.3110  0.0404 -0.0222
31853W        W47987   7.837  13.711  13.643  0.0186  0.0806 -0.0000
31854W        W47988  15.610   9.268  12.188  0.4731 -0.2097  0.3327
31855W        W47989  12.854  13.516  13.998  0.1222 -0.0571 -0.3884
31856W        W47990  13.440   1.773   1.306 -0.2712 -0.1756 -0.3814
31857W        W47991  17.503   8.126  12.866 -0.0762 -0.1348  0.0799
31858W        W47992   9.786   5.908  15.298  0.0681 -0.2061  0.0639
31859W        W47993   6.819   4.752   0.309 -0.2282 -0.1057 -0.2138
31860W        W47994   7.331  14.543   3.267 -0.0449 -0.1980  0.1609
31861W        W47995   2.380   4.009   4.734 -0.0005  0.2195 -0.1589
31862W        W47996  12.275  17.577   3.503 -0.1409  0.1504  0.0023
31863W        W47997   0.242   5.014  11.987 -0.1466 -0.0686 -0.2504
31864W        W47998  16.390  10.485   0.608  0.0924 -0.2509 -0.3700
31865W        W47999   2.857   6.405   4.800  0.0595 -0.1785 -0.1415
31866W        W48000   2.919   6.680  15.109  0.0526  0.3518  0.1489
31867W        W48001  14.360   4.089  15.644  0.0468 -0.4291  0.1699
31868W        W48002  13.846   2.972   0.986 -0.2401 -0.1034 -0.0307
31869W        W48003  17.513  13.833  14.834  0.1935 -0.0758  0.0756
31870W        W48004   6.496  13.554  16.176  0.0637 -0.2871 -0.1898
31871W        W48005   2.929   6.812   5.126 -0.1517  0.0614  0.1076
31872W        W48006   8.834   8.054  12.449  0.0447  0.0163 -0.0979
31873W        W48007   0.134  15.402   5.737 -0.1693  0.0412  0.0689
31874W        W48008  11.818  11.500  15.915 -0.0558 -0.0697  0.0476
31875W        W48009  16.702   1.101   5.537  0.2048  0.0601  0.1794
31876W        W48010   3.305   3.514   1.410 -0.1444  0.1164  0.1195
31877W        W48011   6.047  10.279   2.078 -0.0294  0.3784 -0.1366
31878W        W48012  11.076   2.856  14.807 -0.0966  0.1123  0.1974
31879W        W48013   3.480   5.650   1.169  0.2625 -0.1372 -0.1355
31880W        W48014   4.945   7.707   3.293  0.0591 -0.2717  0.1981
31881W        W48015   1.947   4.278   3.103 -0.0908 -0.1422 -0.1042
31882W        W48016   5.407   1.190   4.892  0.1881  0.2712 -0.0426
31883W        W48017   9.974   7.186  11.135  0.0868  0.0517 -0.2609
31884W        W48018  15.232   8.381  11.664  0.0284  0.1692  0.0782
31885W        W48019   6.405   6.906  16.703  0.1921  0.2680 -0.1624
31886W        W48020  14.312   2.260   0.609  0.0276  0.2612 -0.1680
31887W        W48021  17.090   2.298  13.072 -0.1567 -0.4987  0.4422
31888W        W48022   7.767   5.280   4.506 -0.1284  0.0567  0.1693
31889W        W48023   8.514   1.029   2.248 -0.0109  0.0590 -0.1308
31890W        W48024   2.773   9.906  16.072 -0.0604  0.2061  0.1608
31891W        W48025   7.677   6.589  13.207  0.2287 -0.0589  0.1310
31892W        W48026  11.708  12.962   4.002 -0.3351 -0.1792  0.1302
31893W        W48027   2.662  16.482  16.272 -0.1116  0.1704 -0.0734
31894W        W48028   5.182  14.374   4.255 -0.0691 -0.1671 -0.0615
31895W        W48029   4.967   6.840   2.590 -0.1211  0.3694 -0.0268
31896W        W48030  15.432   0.495  12.228  0.2043 -0.0925  0.2290
31897W        W48031  12.644  12.264   5.624  0.1934 -0.3945  0.0483
31898W        W48032  16.636   5.133  11.283 -0.0051  0.2857  0.0656
31899W        W48033   1.591   9.319   0.792  0.0653 -0.1428  0.2188
31900W        W48034   7.154   0.548  16.107 -0.2491 -0.3379  0.1726
31901W        W48035  12.116  17.772   2.207  0.2986 -0.1752 -0.5708
31902W        W48036   0.040   3.936   2.683 -0.0588 -0.0375 -0.1711
31903W        W48037  13.401   7.319   4.618 -0.0573 -0.3118  0.3264
31904W        W48038   4.984   9.101   1.730  0.1188 -0.4220  0.2384
31905W        W48039  17.412  11.163   0.986 -0.0780 -0.0564 -0.0937
31906W        W48040  11.374   8.749  14.986  0.0835 -0.0968  0.1802
31907W        W48041  15.266   7.264   4.765 -0.0630 -0.0021 -0.1658
31908W        W48042  17.875  10.292   1.591  0.0230 -0.0848  0.0956
31909W        W48043   4.336   6.924  14.426  0.2122  0.1959  0.2989
31910W        W48044  10.059   0.655   3.680 -0.1650  0.3366  0.1172
31911W        W48045  12.590   9.686  11.973 -0.0609 -0.0995 -0.0144
31912W        W48046  17.921   5.668  11.570  0.0400 -0.4377  0.1268
31913W        W48047   6.747   2.454   1.339 -0.1198 -0.0285 -0.4487
31914W        W48048  16.481  13.366   3.846 -0.0200  0.1197 -0.0564
31915W        W48049  10.007   4.818   2.403 -0.1935  0.2282  0.0643
31916W        W48050  15.957   3.042   3.645  0.2790 -0.0903  0.0123
31917W        W48051   3.184   7.675   1.870  0.1564 -0.0520  0.2169
31918W        W48052   3.902  15.390   2.684  0.1412 -0.1338  0.3214
31919W        W48053  13.900  15.152   0.462 -0.1816  0.3897 -0.0536
31920W        W48054   1.943   3.813   3.246 -0.2553 -0.2655 -0.2300
31921W        W48055  12.724   3.962  15.286 -0.1100  0.2148  0.3346
31922W        W48056  11.196   1.213   2.218  0.2129  0.2023  0.2283
31923W        W48057  15.163   7.375   0.017 -0.0170  0.0508 -0.2598
31924W        W48058   1.981  13.843   3.472 -0.1395 -0.3050 -0.2340
31925W        W48059  13.185   8.278   5.022  0.2691  0.0977  0.1614
31926W        W48060   4.654  17.530  14.187 -0.2429 -0.0135 -0.1594
31927W        W48061   8.144   5.361  12.452  0.1818 -0.1301 -0.2160
31928W        W48062  12.392   9.577  13.841 -0.2368  0.0145  0.0857
31929W        W48063   4.163   6.270   5.510  0.2546  0.3234  0.1689
31930W        W48064   0.597  10.790  12.434  0.0882  0.1607 -0.0032
31931W        W48065  17.516   5.165   1.510  0.1507  0.0884 -0.0475
31932W        W48066  14.117   6.268   0.022 -0.2167 -0.2253 -0.3338
31933W        W48067  13.631   1.873   3.178  0.0279 -0.0719  0.0347
31934W        W48068   3.747   7.747   4.977  0.3399  0.1395  0.2093
31935W        W48069  16.082   3.073   1.336 -0.0854  0.1100 -0.1056
31936W        W48070  10.433  10.201  14.792  0.2256  0.0506  0.3448
31937W        W48071  12.811  11.603  15.669  0.2074  0.1122  0.0430
31938W        W48072  13.821  11.740   2.860 -0.0644 -0.1597  0.1260
31939W        W48073   7.670  14.751  13.876 -0.0016  0.1005 -0.1783
31940W        W48074   7.859  13.530   0.260  0.0293 -0.3544 -0.1194
31941W        W48075   4.176  17.639  13.281 -0.0982 -0.1838 -0.0623
31942W        W48076  11.204  15.479   4.746  0.1928  0.0918  0.0649
31943W        W48077  14.882  12.318   3.501  0.0894  0.0027 -0.1062
31944W        W48078  17.187   8.624  12.612  0.1286  0.2018  0.3630
31945W        W48079   3.575   7.667  11.754  0.2166 -0.0468 -0.0745
31946W        W48080   7.074   6.718  14.001  0.0455 -0.0386  0.2267
31947W        W48081   0.363  14.563  12.270  0.0175  0.1280  0.0166
31948W        W48082  10.803   3.729   2.284 -0.0693 -0.2129 -0.1202
31949W        W48083  14.558  12.667   4.797 -0.0293 -0.4230  0.2254
31950W        W48084   1.747   2.635  13.327 -0.2109 -0.2498  0.4528
31951W        W48085   4.098   9.616  14.160 -0.1162  0.2382 -0.2573
31952W        W48086  15.420  15.337  16.412 -0.4174 -0.0200 -0.3445
31953W        W48087  10.758  15.656   3.442  0.0047  0.1069  0.1876
31954W        W48088  10.144   8.966  13.992 -0.2936  0.2505  0.1764
31955W        W48089  14.621   1.959  13.156 -0.0039  0.0926  0.1569
31956W        W48090  15.692  12.070   3.087 -0.1035  0.0199 -0.1259
31957W        W48091   4.092   8.576   4.483  0.0669 -0.0706 -0.2594
31958W        W48092   9.820   4.216   2.959 -0.2452 -0.0153  0.1768
31959W        W48093  12.647   7.097  12.217 -0.0194  0.0528 -0.0304
31960W        W48094  13.820  16.186  13.136  0.0512 -0.2159 -0.0640
31961W        W48095  12.561  11.910  15.227  0.1122  0.2922  0.1224
31962W        W48096   1.792   3.791   0.764 -0.0533  0.0401 -0.1172
31963W        W48097   3.210   5.986  16.367  0.0207 -0.1572 -0.0960
31964W        W48098  17.713   9.484   1.911  0.1542  0.0908  0.0295
31965W        W48099   3.233  15.298   1.244  0.1009 -0.1253 -0.0409
31966W        W48100   2.510  12.085   3.949  0.2102 -0.3463  0.4230
31967W        W48101   6.414  16.954   2.187 -0.2496  0.1176  0.0665
31968W        W48102   6.888   8.268  12.023 -0.0881 -0.0951  0.0111
31969W        W48103   6.144   3.838  14.065  0.1575 -0.0077 -0.2262
31970W        W48104   7.304   7.389  11.642 -0.1430  0.0065 -0.2505
31971W        W48105  16.680  13.915   0.329 -0.0080 -0.3262  0.0366
31972W        W48106   3.571   5.755  16.116  0.2844 -0.0600  0.0870
31973W        W48107   2.010   9.194  16.565 -0.1496  0.1960 -0.3847
31974W        W48108   2.388  12.604   3.224 -0.0523  0.2291  0.0181
31975W        W48109   7.801  17.972   0.326  0.1393  0.1120 -0.0786
31976W        W48110  16.515  12.820   1.117 -0.1889  0.1656 -0.3218
31977W        W48111   1.889   0.596   3.170 -0.2590  0.3951 -0.0416
31978W        W48112   5.513   0.812   1.148  0.2938  0.1485  0.3725
31979W        W48113   0.514  13.916  16.561  0.0731 -0.2098 -0.0497
31980W        W48114   0.079  12.565   5.662 -0.1768  0.2871  0.1948
31981W        W48115  13.979   9.303   3.806  0.0673  0.3228  0.1509
31982W        W48116  11.020  16.794  12.500 -0.1749 -0.1882 -0.1546
31983W        W48117   6.132  10.685   2.969 -0.1373  0.0695  0.2600
31984W        W48118  13.878  12.243  12.477 -0.0447 -0.1835  0.1881
31985W        W48119   9.954   6.144  14.079  0.2312 -0.0661  0.4675
31986W        W48120  12.574   4.591   1.611 -0.1517 -0.1754  0.1313
31987W        W48121  11.365   2.450   0.672 -0.4123  0.1136 -0.1156
31988W        W48122  16.598   9.047   5.221 -0.1057  0.0107  0.2825
31989W        W48123  12.408   2.782   1.619 -0.1886 -0.1344 -0.2051
31990W        W48124   3.182   2.082  15.069  0.1334 -0.3590 -0.2252
31991W        W48125   3.744   8.228  15.381  0.2119 -0.2943 -0.2463
31992W        W48126  14.662   6.250   4.149  0.3912 -0.0016 -0.3184
31993W        W48127  15.909   5.067   4.139 -0.1889  0.2554  0.3424
31994W        W48128   3.827   1.093   0.133  0.0862 -0.1046  0.2459
31995W        W48129  11.501  10.971   4.086 -0.1816  0.1867 -0.0106
31996W        W48130  12.920  16.265   2.479  0.1582 -0.0940  0.5193
31997W        W48131   7.268  17.248   0.671 -0.3684 -0.2280 -0.1593
31998W        W48132   9.649   4.311  13.042  0.0798 -0.0172  0.1353
31999W        W48133  12.065   6.930  15.917  0.2348  0.1199  0.0527
32000W        W48134  12.594  15.901  15.176  0.0100 -0.1558 -0.1466
32001W        W48135   6.979  15.074  12.592  0.1439  0.0771 -0.1395
32002W        W48136   0.885  14.153  16.283 -0.2092 -0.4910  0.1396
32003W        W48137   8.143   5.287   1.491 -0.0094  0.2219 -0.0621
32004W        W48138   1.289   7.162   4.935 -0.1280  0.0668 -0.1936
32005W        W48139  14.632   4.261   2.903 -0.0271  0.0194  0.0092
32006W        W48140   5.030   5.639   2.007 -0.2666  0.0935  0.1434
32007W        W48141  10.552  17.802   0.570 -0.1668  0.2446 -0.0585
32008W        W48142   4.342  14.500  16.682  0.3410 -0.1716 -0.3744
32009W        W48143   4.659   7.882  12.095  0.0564  0.1504  0.3034
32010W        W48144  16.902  12.932  12.453 -0.0890  0.0792  0.1583
32011W        W48145  17.653  16.578   4.392  0.2386 -0.1269  0.1049
32012W        W48146   6.703  13.330  11.887 -0.2003  0.0396 -0.0935
32013W        W48147   7.180  17.625  13.189  0.0286  0.3221 -0.2514
32014W        W48148  16.375  14.551  15.878  0.0219  0.1439  0.0711
32015W        W48149  11.194  10.497   3.433 -0.4324 -0.2220  0.0469
32016W        W48150  14.332  17.451  12.708  0.1259  0.1815  0.2303
32017W        W48151   2.829  13.836  12.271 -0.0042 -0.0562  0.0813
32018W        W48152   4.122  13.135  14.950 -0.0965 -0.2737 -0.1494
32019W        W48153   9.752   2.880   4.195 -0.0188 -0.3697 -0.0118
32020W        W48154  14.756  15.181  14.971  0.3505  0.0353  0.0313
32021W        W48155   0.062   2.954   0.439 -0.2061  0.1093 -0.2053
32022W        W48156   5.081   5.193  16.180 -0.1051 -0.3654  0.0859
32023W        W48157   5.319  10.867  12.707 -0.2301 -0.0571  0.0330
32024W        W48158   9.298   5.351   5.245  0.1799 -0.1097  0.1562
32025W        W48159  12.992   6.806   0.542 -0.1047 -0.3229 -0.2087
32026W        W48160  13.502  10.630   1.478 -0.1127 -0.1347 -0.3000
32027W        W48161  10.181  11.616   5.793 -0.3357  0.2602  0.0595
32028W        W48162   7.126   3.908   2.743 -0.1079  0.3386 -0.1633
32029W        W48163  10.403   1.805  13.559  0.2629 -0.0215  0.1648
32030W        W48164   8.989  14.177  12.879 -0.0046  0.0964  0.0511
32031W        W48165   8.648   6.455  16.441 -0.2627 -0.0203  0.0631
32032W        W48166   2.739   4.911   0.443  0.0783  0.4319  0.0690
32033W        W48167   6.156   7.293   5.350 -0.0235 -0.0496 -0.3194
32034W        W48168   7.148   9.705   0.849  0.2119  0.2479 -0.1277
32035W        W48169   7.457  15.004   1.425  0.1691  0.4071 -0.1808
32036W        W48170  11.760   7.989  16.529  0.2068 -0.0090 -0.1494
32037W        W48171   2.072   8.701  16.453  0.1438 -0.2654 -0.1384
32038W        W48172  16.347  13.664   0.622 -0.1991 -0.3413 -0.1353
32039W        W48173   7.038   7.086   4.717  0.0146 -0.3312  0.2215
32040W        W48174  13.484   9.414  16.417 -0.1284  0.0996  0.2872
32041W        W48175   8.837  13.198   3.563  0.0519  0.3449  0.2623
32042W        W48176  14.666   7.531   0.157 -0.1367  0.1066 -0.3325
32043W        W48177   5.892   7.187  13.061  0.1551  0.2429 -0.1278
32044W        W48178   3.294   5.730  13.932 -0.1813 -0.1314 -0.0529
32045W        W48179  15.662   2.054   5.550  0.0557  0.1488  0.1454
32046W        W48180   7.685  13.236  13.657 -0.2321  0.2412 -0.0662
32047W        W48181   4.296  16.954  16.648  0.3219 -0.0795 -0.1296
32048W        W48182   4.366  12.271   1.972  0.0743  0.1491  0.0731
32049W        W48183   6.898  11.724  14.452 -0.0823  0.0558 -0.0435
32050W        W48184   7.487   4.671   1.037  0.0249  0.2568  0.1950
32051W        W48185   2.472   8.630   4.276  0.1243  0.1589 -0.0013
32052W        W48186  16.084  16.489   3.783 -0.0095  0.0181 -0.1215
32053W        W48187   5.196   9.531   1.361 -0.3578 -0.2034 -0.1160
32054W        W48188  11.345  15.624  16.291  0.1850 -0.2446 -0.0013
32055W        W48189   4.617  17.608  11.601  0.0420  0.0592 -0.1442
32056W        W48190   8.294  11.441  11.501 -0.1039 -0.0489 -0.0644
32057W        W48191   2.535  13.306  16.497 -0.3093  0.3527 -0.0626
32058W        W48192   0.076   6.255  15.376  0.1667  0.1720  0.0558
32059W        W48193  10.284  13.114   5.102 -0.0552 -0.1787  0.1368
32060W        W48194  12.843  17.702  13.107 -0.2307 -0.2177  0.1988
32061W        W48195  10.254   5.208   4.360 -0.2133  0.1007 -0.1606
32062W        W48196   3.900  12.646  13.210  0.0745  0.3363 -0.3094
32063W        W48197   5.581   0.338   1.370 -0.1809  0.1217 -0.1004
32064W        W48198  11.725  15.733  16.653  0.0422  0.1970 -0.1843
32065W        W48199  14.914  11.028   3.413  0.1228  0.3756 -0.0261
32066W        W48200  12.098   4.997   5.895  0.2251  0.1391 -0.1144
32067W        W48201   4.759   2.784   0.078 -0.0676  0.1034 -0.0058
32068W        W48202   0.606   3.515  12.916 -0.0261 -0.1125 -0.1780
32069W        W48203  16.414  15.081   2.544 -0.1742  0.0234 -0.1033
32070W        W48204   7.171   2.089   0.967  0.2970 -0.2182  0.0146
32071W        W48205   3.778  17.187  11.110  0.0348  0.0130 -0.1857
32072W        W48206   2.397   9.055  13.629 -0.0918 -0.3057  0.2946
32073W        W48207   8.611  11.595   2.520  0.0221  0.3200 -0.1945
32074W        W48208   0.205  15.229  13.672  0.0398  0.0307  0.3386
32075W        W48209   3.865  12.311   5.308  0.4037 -0.0813  0.3884
32076W        W48210   1.996   4.902   5.060 -0.0946  0.0307 -0.0307
32077W        W48211   7.072   7.761  11.999  0.1516 -0.0173  0.0505
32078W        W48212  14.217   8.524  11.963  0.0079 -0.2746 -0.0880
32079W        W48213  17.546   2.935   0.715 -0.1836 -0.0893  0.1902
32080W        W48214   1.450  12.756  16.096  0.1029  0.1780 -0.3131
32081W        W48215  10.943  15.749   0.322  0.1216  0.2603  0.0629
32082W        W48216  11.746  15.478   3.586  0.1978  0.2584 -0.1657
32083W        W48217   3.139  17.234  14.132 -0.2336  0.0585 -0.0419
32084W        W48218   4.649   9.462   1.598 -0.1968 -0.1860  0.2564
32085W        W48219  15.320   7.733   1.441 -0.1400  0.1144  0.1746
32086W        W48220  17.426  13.223  14.994 -0.1381  0.0638 -0.3440
32087W        W48221  13.872   9.198   0.040 -0.3112  0.0429  0.1325
32088W        W48222   0.682  14.636  14.650  0.4171  0.0870  0.1439
32089W        W48223  12.611   5.635  14.304  0.0092 -0.0042  0.2870
32090W        W48224   7.143  17.112  15.689  0.0598 -0.0050  0.0385
32091W        W48225   1.885  16.685   5.245  0.0294 -0.2337  0.1056
32092W        W48226  14.659  14.402  14.505  0.2597 -0.0845 -0.0380
32093W        W48227  16.988   7.182   0.424  0.1587  0.1456 -0.0471
32094W        W48228   0.594  10.301  14.661  0.0200  0.2256  0.0595
32095W        W48229  14.926   8.150  12.649  0.1358 -0.4537  0.0826
32096W        W48230   1.035   6.764   3.764 -0.1253  0.0948 -0.4258
32097W        W48231   3.750   6.054  15.136 -0.0389 -0.2324  0.0233
32098W        W48232  12.742   1.472   1.878 -0.0435  0.1836  0.1602
32099W        W48233   2.315  17.485  15.963  0.0337 -0.1198 -0.0495
32100W        W48234  16.223  12.991   0.747  0.0765  0.2432 -0.0864
32101W        W48235  13.172  11.468   4.794 -0.1026 -0.1398  0.1392
32102W        W48236   6.562  17.971  15.863  0.1247 -0.1412  0.2459
32103W        W48237   1.797  14.296   5.404  0.0137 -0.1368  0.2332
32104W        W48238   0.815  16.266   4.108  0.2307 -0.1832 -0.2972
32105W        W48239  17.461   5.327   3.187  0.1383 -0.1661 -0.2074
32106W        W48240   5.055   3.888   4.055 -0.0105 -0.1321  0.1240
32107W        W48241   3.430  12.886  13.042 -0.1652  0.1155 -0.0256
32108W        W48242   8.590   8.717   1.187 -0.2195 -0.2469  0.0727
32109W        W48243  16.252  15.432  16.585 -0.0788  0.0977 -0.1834
32110W        W48244   9.908   3.054  14.584  0.0704  0.1499 -0.2382
32111W        W48245   3.323  13.295   3.842 -0.1397 -0.2232  0.2770
32112W        W48246   2.112  11.300   2.582 -0.2615 -0.0134 -0.1472
32113W        W48247   5.203  11.531   4.326 -0.1007 -0.0615 -0.1257
32114W        W48248  10.719   3.281  12.853 -0.0062 -0.2519 -0.1062
32115W        W48249   6.229   3.169  15.612 -0.0509 -0.1877  0.1859
32116W        W48250   8.544  14.854   1.164 -0.3622 -0.3788 -0.1156
32117W        W48251  16.714   6.084  12.336 -0.3728  0.2543 -0.0501
32118W        W48252   6.544  15.530   3.781 -0.1273  0.3057 -0.0163
32119W        W48253  14.470  13.750   0.733 -0.1808 -0.1288 -0.0162
32120W        W48254  15.328  16.575   4.851  0.3116  0.0349  0.0092
32121W        W48255  14.449  12.582  14.330 -0.0380  0.3053  0.0084
32122W        W48256   9.623   8.168   4.391  0.1377 -0.1525  0.0630
32123W        W48257   1.456  12.611  11.988  0.0196  0.2176 -0.0807
32124W        W48258  10.219   2.204  15.204 -0.1281 -0.0212 -0.0362
32125W        W48259   4.454  15.320   0.538 -0.2745  0.2599 -0.2460
32126W        W48260   6.312   0.462   2.085 -0.1023 -0.2369 -0.0838
32127W        W48261  11.060   6.814  11.368  0.0533 -0.1670  0.1196
32128W        W48262   0.101   0.026  12.398  0.0547  0.0785 -0.2082
32129W        W48263   7.488  11.784  11.936 -0.1307  0.0352 -0.1239
32130W        W48264  11.300   9.130   0.647 -0.0158 -0.1423 -0.2620
32131W        W48265   8.269   4.443   1.386 -0.0145 -0.0126  0.0433
32132W        W48266  13.226  13.595   3.904  0.3415 -0.1821  0.0913
32133W        W48267   5.001   5.830   4.927  0.1378  0.0028  0.2014
32134W        W48268  14.855  16.017  16.086  0.1076 -0.0825  0.2676
32135W        W48269   5.163  14.881  12.816 -0.0505 -0.4698  0.0403
32136W        W48270   5.045   9.140   2.229  0.2173  0.0366  0.2478
32137W        W48271   2.575  16.638  13.412  0.0635 -0.0297 -0.0707
32138W        W48272   3.793  15.827  11.690 -0.0557  0.0453 -0.1361
32139W        W48273   8.478  14.283  10.948 -0.0612 -0.1755  0.0922
32140W        W48274  13.613  15.737   5.141 -0.0929 -0.1520 -0.0536
32141W        W48275  15.105  17.837   1.595 -0.0706 -0.1607  0.3171
32142W        W48276   5.399  10.440   1.095 -0.1412  0.1237  0.1620
32143W        W48277   2.746   3.074  15.951 -0.3503  0.1302  0.0293
32144W        W48278  10.481   2.547   1.357 -0.0103  0.2032  0.0751
32145W        W48279   9.367   5.593   4.347  0.1190  0.0540  0.1426
32146W        W48280  11.392   9.608   1.537 -0.2456 -0.2215 -0.1034
32147W        W48281  17.355   5.474  11.694 -0.0314 -0.1709 -0.0137
32148W        W48282  10.968   5.233   5.104  0.1003  0.3950 -0.1461
32149W        W48283  12.464   1.979  11.857  0.2685 -0.1376 -0.0463
32150W        W48284  17.169   4.849   1.661  0.1005  0.1943 -0.1378
32151W        W48285   8.194   8.775  11.192 -0.0196 -0.4198  0.1752
32152W        W48286   9.571  16.264  13.388 -0.1142  0.0777  0.2138
32153W        W48287   7.181   4.305   5.999 -0.1416 -0.0947  0.2921
32154W        W48288   3.589   8.771   4.603  0.4261  0.3093 -0.0015
32155W        W48289   3.591   3.635   2.837  0.0610  0.1358  0.1071
32156W        W48290  14.695   6.894  16.190  0.0734 -0.0619 -0.2659
32157W        W48291  17.763   6.815   4.099 -0.0911 -0.0542 -0.0418
32158W        W48292   8.949   2.194  14.544 -0.0321  0.2588  0.0566
32159W        W48293  10.417  16.537  13.747  0.2855 -0.0764 -0.2577
32160W        W48294  17.236  13.230   6.003 -0.0561 -0.1529  0.1128
32161W        W48295  12.171  10.941   5.601  0.0216  0.2437  0.1494
32162W        W48296  16.620  10.260   0.188  0.0754  0.1569 -0.1457
32163W        W48297   6.023  15.386   5.307  0.4707 -0.0335 -0.1041
32164W        W48298   5.799   5.755   5.349 -0.0373  0.0239  0.0340
32165W        W48299  16.068  13.884   4.596 -0.0113 -0.1029  0.0576
32166W        W48300  13.881   6.737   2.079 -0.0465  0.3286 -0.2082
32167W        W48301   0.966  13.932   2.426  0.1095  0.1120 -0.0518
32168W        W48302   3.878   6.900   1.701 -0.3535  0.0335  0.0422
32169W        W48303   1.319   6.519  13.436  0.2108 -0.1633 -0.1794
32170W        W48304   7.392   9.563   1.506  0.2515  0.1874  0.1290
32171W        W48305  11.686   9.037  11.821  0.1000 -0.2075  0.0569
32172W        W48306  16.089   3.894   2.063 -0.1119  0.1446  0.0905
32173W        W48307  13.045  15.838  13.726 -0.1900  0.1764 -0.2150
32174W        W48308  11.763   1.054  14.395  0.0997 -0.0821  0.1055
32175W        W48309  11.545   3.841  14.988 -0.1636  0.3245  0.1317
32176W        W48310   9.695  11.744   3.615 -0.2330  0.0531 -0.2109
32177W        W48311   0.794  12.189  15.104 -0.0786 -0.0394  0.2054
32178W        W48312   8.936   5.064   3.952  0.1141 -0.3123 -0.1867
32179W        W48313   0.394  16.679   4.980  0.1207  0.2377  0.1076
32180W        W48314   9.007   4.436   5.914 -0.0214  0.2351  0.1850
32181W        W48315   2.220  15.528   5.339  0.2034 -0.3553  0.1614
32182W        W48316  14.071   3.162   2.893  0.1006 -0.0578 -0.2518
32183W        W48317  15.372   9.125  13.498  0.2249 -0.0030 -0.0605
32184W        W48318   5.816   8.710   1.820  0.0657  0.0499  0.0149
32185W        W48319  13.845  15.653   0.152 -0.1004 -0.0117 -0.1174
32186W        W48320  16.325  16.136   6.712 -0.0324 -0.0822 -0.2241
32187W        W48321   1.595   9.435  14.022 -0.1814 -0.0731 -0.0948
32188W        W48322  15.734   0.004   3.039  0.0803 -0.1294  0.0005
32189W        W48323  10.960   2.931  14.350 -0.0959  0.0255  0.2064
32190W        W48324  14.147   5.727  13.217 -0.0523  0.1091 -0.3200
32191W        W48325   0.948  13.983  15.769  0.2826 -0.0945  0.0963
32192W        W48326   2.628   1.994  13.292 -0.1034 -0.1673  0.1316
32193W        W48327  10.741   6.224  14.405  0.1400 -0.2112  0.0465
32194W        W48328  15.647   0.268  12.963  0.0916 -0.3575 -0.1907
32195W        W48329   2.219   3.173  15.831  0.1284 -0.0142 -0.1846
32196W        W48330  16.724  15.683   4.594  0.0055  0.2109  0.1456
32197W        W48331  10.121  10.123   4.191  0.0046 -0.0782 -0.0115
32198W        W48332   2.365   9.971  12.241 -0.0142 -0.3977 -0.2627
32199W        W48333   7.499   0.944  14.523 -0.0377  0.2017 -0.1904
32200W        W48334   7.006  14.395   1.987 -0.2557 -0.0737  0.1242
32201W        W48335   6.144  15.347  14.218  0.3105  0.1873 -0.1434
32202W        W48336  12.818   9.208  11.983 -0.1258 -0.4308 -0.0273
32203W        W48337  15.874  13.797   0.695  0.3129 -0.0845 -0.4217
32204W        W48338   8.112   8.201   0.335  0.0814 -0.0219 -0.2618
32205W        W48339   2.526   1.259   2.681  0.1373 -0.1757 -0.0095
32206W        W48340  12.382   2.389   3.181  0.0182  0.0718 -0.0628
32207W        W48341   1.647   9.386  13.242  0.1215  0.3769 -0.1098
32208W        W48342   6.793   3.108  13.353 -0.1484  0.2365 -0.0537
32209W        W48343   0.872   6.269   5.185 -0.2259  0.2297  0.1308
32210W        W48344   4.490  17.135   3.016  0.0666  0.0922 -0.2651
32211W        W48345  16.154  16.196  14.255  0.2229  0.1797  0.1598
32212W        W48346   8.437   5.776   3.376 -0.2148 -0.0471 -0.4554
32213W        W48347  17.301  11.688   2.199  0.1709 -0.2785 -0.0538
32214W        W48348   6.979  17.561  13.627  0.1706 -0.2859 -0.0144
32215W        W48349  12.809  17.323  16.303 -0.1085  0.0618  0.2948
32216W        W48350   8.847  14.479   4.820  0.0157  0.2734  0.1504
32217W        W48351  15.874   7.002   2.682 -0.0844 -0.0934  0.1208
32218W        W48352   4.150   8.583   3.247 -0.0263 -0.2891  0.3738
32219W        W48353  14.807   7.404   4.973  0.0441 -0.1473 -0.0610
32220W        W48354   8.605   6.802  13.185 -0.2472  0.0961  0.0443
32221W        W48355   0.545   6.654  15.502  0.0940 -0.2813 -0.0391
32222W        W48356   1.837   6.868  12.475  0.0086 -0.2320  0.0545
32223W        W48357   7.171   0.103  13.330 -0.0354 -0.1471 -0.0582
32224W        W48358   7.625   6.109  15.668 -0.0662  0.1282  0.0779
32225W        W48359  16.622  12.386  14.516 -0.2771 -0.2221  0.1557
32226W        W48360  17.310  15.334   2.847  0.0493 -0.4404 -0.0610
32227W        W48361  16.144  16.756   2.909  0.0880  0.1661 -0.0285
32228W        W48362  17.520  17.418   4.062 -0.1190 -0.0210  0.0382
32229W        W48363   6.043   5.374   0.283  0.0261  0.1226 -0.2637
32230W        W48364   8.237  16.917   3.439 -0.0119 -0.1073  0.1203
32231W        W48365   0.523   9.210   4.994  0.0316 -0.2297  0.2552
32232W        W48366   5.381   8.279   5.439 -0.1522 -0.0015 -0.3868
32233W        W48367  13.660   0.464   2.907 -0.0672  0.2012 -0.1158
32234W        W48368  16.855   3.551  15.961 -0.0623 -0.0767 -0.0811
32235W        W48369   2.122  10.449  16.294  0.1123 -0.0283 -0.0354
32236W        W48370   8.880   3.174   6.092  0.1251 -0.1524  0.1009
32237W        W48371  10.394   7.999   0.143 -0.1197  0.0991 -0.2254
32238W        W48372  12.492  14.274   2.256 -0.0280 -0.3567  0.2334
32239W        W48373  11.899   5.717  12.485 -0.3600 -0.2426 -0.2704
32240W        W48374   7.625   7.134   5.604  0.1462  0.0764  0.2677
32241W        W48375   5.235  15.309  15.831  0.1227  0.3534  0.1032
32242W        W48376   0.119   1.412  16.107 -0.0925  0.1368 -0.1330
32243W        W48377  12.250   8.812   0.808  0.0590  0.0983  0.0036
32244W        W48378   8.051  11.706   5.461 -0.2026  0.1188  0.2178
32245W        W48379   0.547   7.775   0.952 -0.2233 -0.3583  0.1124
32246W        W48380  13.482  17.573  14.601  0.0541  0.2285 -0.1814
32247W        W48381  16.221  14.358  14.897  0.0192  0.2169 -0.1336
32248W        W48382  12.047  14.031   6.059  0.1368  0.0469 -0.2273
32249W        W48383  11.969   8.822   6.151 -0.0219 -0.2402 -0.5499
32250W        W48384   9.516   6.704  13.490 -0.2802  0.1281  0.2291
32251W        W48385   2.669  15.279  15.787 -0.0968 -0.1346  0.0125
32252W        W48386   3.488   8.002   1.152 -0.3962  0.2531 -0.1457
32253W        W48387   2.113  13.059  14.215  0.0154  0.1242 -0.0901
32254W        W48388   1.151  13.697   5.083  0.0163 -0.2153  0.0504
32255W        W48389   2.667   3.381   3.082 -0.2476  0.3798  0.2209
32256W        W48390   1.068  14.524  13.653 -0.0188  0.0456 -0.1511
32257W        W48391   7.754   6.934  15.237  0.2409  0.0844 -0.0043
32258W        W48392   5.700   3.619  13.258 -0.2644  0.0846  0.2198
32259W        W48393   6.556  17.613   2.910 -0.1336  0.0137 -0.0856
32260W        W48394   1.275   2.854   1.975 -0.2840  0.0585 -0.1256
32261W        W48395  13.927   7.269   4.389  0.0197  0.3233  0.2315
32262W        W48396   6.278  10.591   0.980 -0.0365 -0.1742  0.0150
32263W        W48397   9.178  11.496  11.366  0.1641  0.1008 -0.1003
32264W        W48398   2.167   0.575   5.180 -0.1717  0.1496 -0.1443
32265W        W48399   0.670   1.893   4.567  0.2378  0.2321  0.0584
32266W        W48400  15.141  12.279   2.867 -0.1420 -0.2040  0.3645
32267W        W48401  15.564  11.734  16.417  0.0693  0.0247 -0.0561
32268W        W48402   0.015   3.194   0.865 -0.0559  0.1544 -0.1388
32269W        W48403   4.949   6.147   4.031  0.0439  0.1207  0.1670
32270W        W48404  14.371  15.261  12.989 -0.3024 -0.2114 -0.0489
32271W        W48405   9.614  16.412  11.381 -0.0060  0.0362  0.2917
32272W        W48406  10.624   4.180   0.800  0.3039  0.0896  0.1925
32273W        W48407   5.287  14.936  13.324 -0.1051 -0.1784  0.0487
32274W        W48408   6.655  15.429  12.250 -0.1063  0.0375 -0.1266
32275W        W48409   4.098   6.255  15.859 -0.0988  0.0481  0.2413
32276W        W48410  11.997  10.444   5.920  0.0328 -0.2240  0.0142
32277W        W48411  15.752   7.169   3.494  0.0178 -0.1049 -0.2236
32278W        W48412  10.391   9.990  11.930 -0.0779  0.2156 -0.1438
32279W        W48413   4.423   3.150  16.599  0.0423 -0.2132  0.1177
32280W        W48414  13.933   1.270   5.793 -0.0897 -0.0164 -0.2302
32281W        W48415   8.327  16.813   0.460 -0.0433  0.1280  0.1971
32282W        W48416   5.989   1.962   2.371 -0.1458  0.1651 -0.3694
32283W        W48417   5.961  16.755   2.943  0.0513  0.3921  0.1231
32284W        W48418  14.108  12.080  14.446 -0.1919  0.2528  0.1908
32285W        W48419   0.217   3.098  15.377  0.0174  0.1048 -0.1678
32286W        W48420   2.002  10.988  11.987 -0.1898 -0.0403  0.0080
32287W        W48421   5.837   6.848   0.533 -0.2525 -0.2627 -0.1573
32288W        W48422  12.667  16.782   6.002  0.0443  0.0866  0.1206
32289W        W48423   6.989   2.236   0.494 -0.0002 -0.1899 -0.2453
32290W        W48424   2.794   8.195   4.821  0.0720  0.2599 -0.1317
32291W        W48425   0.841  16.178   1.158 -0.2427 -0.1944 -0.0987
32292W        W48426  17.330   4.500   3.928 -0.2389 -0.1266 -0.2350
32293W        W48427   6.804  13.503  16.584  0.2322 -0.0496 -0.0669
32294W        W48428   8.884  12.508  12.224 -0.1176 -0.1592  0.0897
32295W        W48429  17.119   2.491  13.995  0.0237  0.0051 -0.1175
32296W        W48430  15.773   2.544  13.739 -0.3523 -0.2098 -0.2092
32297W        W48431  13.544   3.081  13.232  0.0158 -0.1496 -0.0980
32298W        W48432  16.237  15.856  14.730 -0.0619  0.1776 -0.1886
32299W        W48433   3.132   1.424  14.362  0.0619  0.1191  0.0111
32300W        W48434   3.329   9.886   1.591  0.0312 -0.1691  0.1487
32301W        W48435   4.838   0.429   1.646  0.0250  0.0022 -0.1895
32302W        W48436   2.319   8.134  16.329 -0.0234  0.0751 -0.0847
32303W        W48437   9.994   6.803  16.255 -0.2434  0.0336  0.1189
32304W        W48438   0.200   7.524  12.113 -0.2666 -0.0670  0.0889
32305W        W48439   8.630   6.236   3.359  0.0878 -0.1737 -0.1322
32306W        W48440  10.014   1.210   1.986 -0.0025  0.1922 -0.4372
32307W        W48441   2.055   7.569   5.123  0.4045 -0.0102 -0.2246
32308W        W48442  14.598   3.197  16.392 -0.1823 -0.0937  0.5394
32309W        W48443   1.888  12.682  12.185  0.0988 -0.0044  0.1552
32310W        W48444   3.545   0.375   2.035 -0.2189 -0.1458 -0.1704
32311W        W48445   8.675  17.972   2.017 -0.0610  0.1082  0.3036
32312W        W48446  14.424   4.935  14.690 -0.1110  0.1167  0.3434
32313W        W48447   1.945   1.980  12.550  0.1927 -0.1030 -0.1586
32314W        W48448   3.330  16.720   1.584  0.1816 -0.0796  0.1944
32315W        W48449   8.252   9.354   0.177  0.2511 -0.3524  0.1799
32316W        W48450  14.964   5.908  16.573  0.0161  0.0519  0.1206
32317W        W48451   2.403  16.358   3.805 -0.0491  0.0166 -0.4065
32318W        W48452   4.426   4.964   1.444  0.0135  0.1412 -0.1265
32319W        W48453  14.644   1.982   3.753  0.1221 -0.0035  0.1482
32320W        W48454   4.871   5.906   3.550 -0.0028  0.1527 -0.0671
32321W        W48455   6.010   5.223   0.784  0.3651  0.1245 -0.0834
32322W        W48456  17.803  10.039   6.048  0.1239  0.1917  0.0555
32323W        W48457   7.404   8.727  14.519  0.2069  0.0207 -0.2085
32324W        W48458   9.594  15.714   4.578 -0.2813  0.1681 -0.1742
32325W        W48459   5.379   9.357  15.368 -0.0844 -0.2499  0.0532
32326W        W48460   7.467  15.176  13.992  0.0562  0.0878 -0.1087
32327W        W48461  17.020  11.062   0.707  0.2032  0.3184  0.3345
32328W        W48462  17.106   3.165   3.143  0.1780  0.1565 -0.2112
32329W        W48463  17.854   0.348   6.164  0.1082 -0.3669  0.0876
32330W        W48464  11.889   6.484   0.554  0.2260  0.2343  0.1381
32331W        W48465  16.427   0.855   5.921  0.4358  0.1909  0.2306
32332W        W48466   8.252   5.236   1.992  0.1860  0.0793 -0.0346
32333W        W48467   3.098  11.038   4.394 -0.1166 -0.4255  0.1552
32334W        W48468  15.730   2.363  15.010 -0.1101  0.1413  0.0126
32335W        W48469   1.415   6.692   1.628 -0.1629  0.1603  0.1806
32336W        W48470   5.813   8.271  14.242  0.2210  0.0767 -0.1748
32337W        W48471  13.993  16.976   3.853 -0.1036  0.1099  0.0271
32338W        W48472  15.481  13.530   5.323  0.0542 -0.1542 -0.2422
32339W        W48473   4.315  11.097  16.293  0.1361  0.1358  0.3097
32340W        W48474   5.164  14.127   2.334 -0.0109  0.2781 -0.4290
32341W        W48475  13.404   9.003  13.294  0.0533 -0.7034 -0.0664
32342W        W48476  12.893   4.960   3.353  0.1717  0.2410 -0.1596
32343W        W48477  12.067   7.409   4.064  0.1122 -0.0893 -0.0838
32344W        W48478  15.517   7.456  11.714 -0.2300 -0.0137 -0.2268
32345W        W48479  13.201   4.906   5.303  0.0500  0.0659 -0.1229
32346W        W48480   0.141   9.019   2.154  0.1481 -0.1272  0.0774
32347W        W48481  12.319   0.976   0.540  0.1586  0.0349 -0.0092
32348W        W48482  10.845  15.504  12.419  0.2715  0.3636 -0.1549
32349W        W48483  11.233  11.031   0.404 -0.2400 -0.0113 -0.0703
32350W        W48484   5.202  16.399   5.018  0.3072 -0.0110 -0.0306
32351W        W48485  16.914  13.346  15.510 -0.2512 -0.0957  0.0874
32352W        W48486   3.889  11.043   1.013 -0.0599 -0.1462  0.1976
32353W        W48487   0.082   8.862  13.107 -0.0668 -0.0586 -0.1257
32354W        W48488   4.285  17.874   1.778  0.1981  0.1841 -0.2721
32355W        W48489  17.085  14.258   5.814  0.0032 -0.3063  0.3283
32356W        W48490   9.662   6.991   2.566  0.1122 -0.3089  0.1795
32357W        W48491   6.742  10.359   1.116  0.2032 -0.2657 -0.0664
32358W        W48492   1.472   3.868  16.546 -0.1734  0.0391  0.1789
32359W        W48493  11.612  16.840  14.458 -0.4428  0.1304  0.1103
32360W        W48494  11.348   2.532   1.322 -0.0069 -0.4287  0.0396
32361W        W48495  12.252  16.839   3.778 -0.1992 -0.0005 -0.1381
32362W        W48496   1.107  11.064   2.152  0.1836  0.1194 -0.1258
32363W        W48497  14.890   7.605   3.658  0.3181 -0.2542  0.3972
32364W        W48498  13.615   4.358  16.202  0.1055 -0.6307  0.3048
32365W        W48499  10.144   9.203  12.577 -0.1149  0.2470  0.1855
32366W        W48500   9.400   1.191   2.139 -0.0489  0.2145  0.0232
32367W        W48501  10.068   0.232  13.482 -0.1300 -0.0798 -0.0125
32368W        W48502  14.241  14.458   4.582  0.3608  0.1001 -0.1668
32369W        W48503   1.236   1.702   2.360  0.0857 -0.0377  0.1945
32370W        W48504  12.350   1.709   3.082 -0.1052  0.2922  0.3038
32371W        W48505   3.761  13.252  12.987  0.0887  0.3518  0.0405
32372W        W48506   9.113   4.311   3.498  0.1095 -0.2708  0.0308
32373W        W48507   6.945   0.480   5.127 -0.2004 -0.0132  0.1588
32374W        W48508  12.461  10.350   5.054  0.0491 -0.0326 -0.2033
32375W        W48509   6.374  12.906   3.195  0.1450  0.2288  0.1477
32376W        W48510   5.479  17.366  11.364  0.0294 -0.1836 -0.1621
32377W        W48511   8.231   7.624   3.343 -0.0953  0.0181  0.1156
32378W        W48512  15.429   5.070  14.313  0.1205  0.4533 -0.2357
32379W        W48513   0.593   8.193  13.641  0.0591  0.0102 -0.0550
32380W        W48514   6.492   9.900   1.950  0.1626  0.1592  0.0077
32381W        W48515   9.004   1.234   2.445 -0.0487  0.1123 -0.1880
32382W        W48516  12.511   2.955  16.026 -0.0226  0.2644 -0.0597
32383W        W48517  12.805   4.337  12.080 -0.0420 -0.0812  0.1936
32384W        W48518  13.645   4.632   2.266 -0.1289  0.1811 -0.0500
32385W        W48519   4.694   2.078   1.447  0.2343 -0.0054 -0.0608
32386W        W48520  11.835  10.858   0.425  0.0445  0.2528  0.0631
32387W        W48521   1.305  15.424   0.816  0.1724 -0.1136 -0.3887
32388W        W48522   5.548   2.113   2.440 -0.2007 -0.0654 -0.1742
32389W        W48523  17.534  17.952  12.306  0.1589  0.1676  0.1590
32390W        W48524   1.024   0.112  11.808  0.2075 -0.1695  0.0292
32391W        W48525   1.021   9.794   1.337  0.2110 -0.2922 -0.0718
32392W        W48526   6.898  12.416   0.253  0.2382 -0.1620 -0.1129
32393W        W48527   6.593  15.320  12.871 -0.2560  0.0238  0.1777
32394W        W48528   0.893   7.441  15.603 -0.0290 -0.1491 -0.2379
32395W        W48529   8.731  10.901  14.714 -0.2513  0.1421 -0.1251
32396W        W48530   3.311  16.426  13.755  0.1783 -0.3672  0.2205
32397W        W48531   3.680   4.003   4.383 -0.0877 -0.0761  0.2476
32398W        W48532  12.203  13.491   0.516 -0.0477 -0.2928 -0.3270
32399W        W48533   4.651  10.581   5.015 -0.1887  0.2321 -0.1530
32400W        W48534  16.718  16.844  14.162 -0.2679  0.1473 -0.0160
32401W        W48535  10.641   4.160   3.174 -0.0213  0.1391  0.0553
32402W        W48536   0.538   9.789  12.287  0.1019  0.1289  0.0377
32403W        W48537   2.245  10.136   2.161  0.1484  0.0011 -0.2725
32404W        W48538   9.587   5.565  11.283  0.0301 -0.0539  0.3807
32405W        W48539   4.592   0.941   0.104 -0.1408  0.2519 -0.1129
32406W        W48540   8.210  11.969   1.854  0.0123  0.1278  0.0739
32407W        W48541   0.008   2.076  12.799 -0.0614 -0.2555  0.0411
32408W        W48542   8.717  12.115   0.524  0.1335 -0.0982 -0.1941
32409W        W48543  12.585   5.320  15.833  0.0390 -0.2070 -0.1765
32410W        W48544  14.392   8.445   2.864  0.3180  0.0387  0.2845
32411W        W48545   0.033  13.129   1.483 -0.0607 -0.1849  0.1547
32412W        W48546   5.598   5.355   1.975  0.0308  0.0074  0.1227
32413W        W48547   1.550   0.429   0.369  0.2195 -0.1111 -0.1308
32414W        W48548  10.405  17.955   5.244  0.0170  0.1341 -0.0764
32415W        W48549   6.663   2.426  13.644  0.0534  0.0063  0.1059
32416W        W48550  13.793  15.278  13.049 -0.1600  0.4155  0.2467
32417W        W48551   5.197   9.464   0.343  0.1379 -0.0976  0.2154
32418W        W48552  16.772  13.176  11.862  0.2258  0.0048  0.1224
32419W        W48553   4.149   4.965   0.372 -0.1486 -0.4629  0.1803
32420W        W48554   3.298  17.161  15.061 -0.1861  0.1756 -0.0341
32421W        W48555  10.715  10.430  11.767 -0.1297 -0.2447 -0.1367
32422W        W48556   9.648   9.674   0.015 -0.1674 -0.2290 -0.2389
32423W        W48557  12.050  14.413   0.111  0.0919 -0.1175 -0.0082
32424W        W48558  15.942  13.514  13.454 -0.0994 -0.0448  0.1761
32425W        W48559  17.466  12.689   0.817  0.0545 -0.6937  0.3031
32426W        W48560  17.554   6.418   0.448  0.4031 -0.0707  0.0108
32427W        W48561  17.520  10.981  16.645 -0.2278 -0.0563  0.1844
32428W        W48562   6.874   2.984  14.980 -0.0443 -0.2630  0.3283
32429W        W48563   0.846   4.977   1.931 -0.2134 -0.1782 -0.0542
32430W        W48564  10.904   6.208   2.514 -0.1083  0.0788  0.1990
32431W        W48565  15.702  11.571  12.563  0.0696  0.1154 -0.1366
32432W        W48566   0.776   8.820  13.511  0.4469  0.0400  0.0134
32433W        W48567  15.832  17.890   1.081  0.0404  0.0142 -0.2918
32434W        W48568   7.052   6.582  12.068 -0.0847  0.0259 -0.1500
32435W        W48569  17.978  16.265   0.333 -0.4547  0.0699 -0.1082
32436W        W48570   7.020  17.057  13.800  0.0073 -0.3032  0.1306
32437W        W48571   5.512   6.026  11.274 -0.4236  0.2974  0.1010
32438W        W48572  13.708  15.320   2.425 -0.2608  0.1870  0.1453
32439W        W48573   5.015   5.978   5.792 -0.2500  0.0204  0.4999
32440W        W48574  16.377  15.879  15.217 -0.2949  0.0792  0.1197
32441W        W48575   9.993   2.016   0.804  0.0373 -0.0195  0.1529
32442W        W48576   6.012   9.041   4.064  0.2905 -0.1418 -0.1382
32443W        W48577   1.258  15.080   4.313 -0.1117  0.2956  0.0395
32444W        W48578   3.777  12.908  15.892  0.0748 -0.1003 -0.3334
32445W        W48579   4.596  16.206   1.072 -0.2271  0.1491 -0.0046
32446W        W48580  15.117   4.358  14.043  0.0868  0.1470  0.2014
32447W        W48581   9.546   0.250  13.408  0.1965 -0.1174 -0.2120
32448W        W48582   3.724  12.396  15.194  0.3969 -0.2524 -0.1014
32449W        W48583   7.366   6.093  12.082  0.0329  0.2851  0.0603
32450W        W48584   1.870   5.859   6.127  0.1158  0.0485  0.1558
32451W        W48585   3.918   1.214  16.388 -0.3804 -0.1966  0.3584
32452W        W48586  14.747   2.832   0.210 -0.1324  0.2676 -0.1127
32453W        W48587   7.816  16.604   2.514  0.1050 -0.0613 -0.0301
32454W        W48588   4.052   6.919  14.955  0.0892  0.1771  0.2399
32455W        W48589  17.587   2.362  12.326 -0.0094 -0.1355 -0.0886
32456W        W48590   8.095   9.093  14.441  0.0913 -0.0568 -0.2272
32457W        W48591  16.190   7.636   0.403  0.2440 -0.1624  0.0733
32458W        W48592   3.759  15.867   0.955 -0.2422  0.0474 -0.0986
32459W        W48593   1.833   4.526  16.174 -0.1093 -0.2286 -0.1524
32460W        W48594   7.024  11.935   5.135  0.0726 -0.0397 -0.2382
32461W        W48595  10.337   0.880  13.033  0.1558 -0.2046  0.0507
32462W        W48596   0.947  15.270   2.355  0.1905  0.4797  0.2535
32463W        W48597  16.906  13.137   3.874  0.1762  0.0370  0.1438
32464W        W48598   6.763  17.838   0.190 -0.1788 -0.4055 -0.1660
32465W        W48599   9.984   3.963   3.398  0.0038 -0.3627  0.0869
32466W        W48600   4.208   8.779  11.786  0.0875  0.0377 -0.0218
32467W        W48601   6.519   9.227   1.438 -0.0927  0.0800 -0.0744
32468W        W48602  16.849   4.788  15.051  0.2127 -0.0910 -0.0849
32469W        W48603  15.534  16.630  16.365  0.1473  0.1440  0.0450
32470W        W48604   9.225  17.312   2.140  0.0034 -0.0067  0.0641
32471ION     NA48605  11.453  16.754   4.259  0.0786 -0.1794  0.2857
32472ION     NA48606   2.661   9.314  10.789 -0.0194  0.0857  0.1611
32473ION     NA48607  12.760  14.115   0.754  0.0016  0.4153  0.0270
32474ION     NA48608  11.773  11.532  10.582  0.2984 -0.2575 -0.1811
32475ION     NA48609   7.264  16.715  10.458  0.1100 -0.0439 -0.2408
32476ION     NA48610   7.976  12.798  10.214  0.0202  0.0861 -0.0545
32477ION     NA48611   4.170  11.863   2.328  0.2021  0.2440 -0.0217
32478ION     NA48612   9.535   1.725  10.810 -0.2598  0.2750 -0.0787
32479ION     NA48613  17.574  10.330  11.029 -0.2088 -0.0568 -0.0258
32480ION     NA48614   5.306  12.582  10.795 -0.1985  0.0555  0.1629
32481ION     NA48615   7.628   2.464  11.147  0.2533  0.4067 -0.2471
32482ION     NA48616   8.684  13.714   5.792 -0.1166 -0.3528 -0.0768
32483ION     NA48617  12.724   0.308  11.204  0.2194 -0.0279 -0.1776
32484ION     NA48618  15.049  15.932  11.085  0.2436 -0.1727  0.0409
32485ION     NA48619   5.736  15.584  10.512 -0.1711  0.1604 -0.3146
32486ION     NA48620  13.031   4.657  10.827  0.2064 -0.1125 -0.0064
32487ION     NA48621   9.732   2.689   6.359  0.0624  0.1702  0.1638
32488ION     NA48622  10.840  16.143  10.983  0.0317 -0.0802  0.1110
32489ION     NA48623   9.538  11.474  12.648 -0.3024 -0.0432 -0.2407
32490ION     NA48624   3.637  14.301   6.063  0.1973 -0.0890 -0.0482
32491ION     NA48625   5.036   2.339  10.866  0.0875  0.1905 -0.2899
32492ION     NA48626   7.915  10.651  14.196  0.0950 -0.0687 -0.1625
32493ION     NA48627  16.233  15.108  11.080  0.2329  0.0146  0.3328
32494ION     NA48628   3.450   5.188  10.889 -0.0994 -0.0179 -0.2198
32495ION     NA48629   2.524  15.163  10.688  0.0011 -0.1530  0.0284
32496ION     NA48630   5.727   6.490  10.437 -0.0312 -0.0937  0.0986
32497ION     NA48631  10.922   2.512   3.506  0.0382 -0.0725 -0.1511
32498ION     NA48632  15.307  17.275  10.937 -0.2035 -0.1104  0.2040
32499ION     NA48633  17.507  15.437   2.249 -0.0365  0.0964  0.2022
32500ION     NA48634   1.482  15.114   5.629 -0.2286  0.2370  0.2458
32501ION     NA48635  15.674   9.707  13.313 -0.2080 -0.1022 -0.0100
32502ION     NA48636   3.244  10.532   5.141 -0.0950  0.0604 -0.0307
32503ION     NA48637  12.151   9.262   3.264 -0.1638  0.0688 -0.0201
32504ION     NA48638   0.764  12.869  12.670  0.2664 -0.1513  0.0963
32505ION     NA48639  10.387  16.606   5.482 -0.1299 -0.1230 -0.1671
32506ION     NA48640   4.031  10.411  10.657  0.1295  0.0314 -0.2407
32507ION     NA48641   4.593   5.047   6.184  0.0676  0.4116  0.0561
32508ION     NA48642  12.828  17.811  10.630 -0.1398  0.1913 -0.0723
32509ION     NA48643  17.107  15.112   6.221  0.0191  0.1065  0.0808
32510ION     NA48644   5.524   0.157  16.265 -0.0035 -0.2052  0.2017
32511ION     NA48645   0.319   5.342  11.587 -0.1511 -0.1482  0.2443
32512ION     NA48646   8.819  11.646  15.384  0.2819  0.0076  0.1069
32513ION     NA48647   1.917  13.663  10.925  0.1680  0.3679 -0.0238
32514ION     NA48648   4.984  14.975  10.609  0.0531  0.0450  0.0097
32515ION     NA48649   5.559   5.170   5.882 -0.1669 -0.2222 -0.1520
32516ION     NA48650  10.759  15.195   1.502  0.0584  0.0521  0.2861
32517ION     NA48651   3.354   7.953  10.831 -0.0958 -0.0339 -0.2752
32518ION     NA48652   1.553   7.363  10.947  0.1357  0.2093 -0.1278
32519ION     NA48653   3.042  16.971  10.686 -0.1462 -0.1675 -0.0273
32520ION     NA48654  14.930  12.910  11.258 -0.2155  0.0647 -0.2029
32521ION     NA48655   0.285  16.909   3.567 -0.2495  0.2761 -0.0013
32522ION     NA48656  13.458  16.018  10.885  0.2503  0.1848 -0.3181
32523ION     NA48657  14.972  10.894   6.164 -0.0249  0.1289 -0.0937
32524ION     NA48658   3.176  15.845   4.005 -0.2685  0.4525  0.2684
32525ION     NA48659   3.073  10.632  10.606 -0.1693  0.0364 -0.0007
32526ION     NA48660   4.043  14.455  10.662 -0.2713 -0.1049  0.2115
32527ION     NA48661   2.507   7.515  10.707 -0.0688 -0.0781  0.0724
32528ION     NA48662   6.860   7.405   4.257 -0.0666  0.3097  0.3941
32529ION     NA48663  13.332  13.795  10.743  0.0117  0.0076 -0.1510
32530ION     NA48664   8.593  10.262   0.561 -0.1520  0.2773  0.0498
32531ION     NA48665   1.045  13.893  11.094  0.3899 -0.1479 -0.2686
32532ION     NA48666  10.368  17.958  10.519 -0.1313 -0.0820 -0.0612
32533ION     NA48667   7.558  11.061  12.086 -0.0075  0.0439  0.0228
32534ION     NA48668  14.212   3.258   5.120 -0.0447 -0.2763  0.0142
32535ION     NA48669   8.596  10.210  10.269 -0.0532  0.0896  0.0275
32536ION     NA48670   7.102   5.596  10.815 -0.4502  0.1324 -0.0658
32537ION     NA48671   0.065  12.259  10.799  0.0261 -0.1138 -0.0434
32538ION     NA48672  17.897   3.899  10.499 -0.1939 -0.1684 -0.0979
32539ION     NA48673  17.626   4.207  15.508  0.0557  0.2221 -0.2225
32540ION     NA48674  16.837   6.996  15.712  0.1008 -0.1266 -0.0592
32541ION     NA48675  13.521   0.141  16.272 -0.1426 -0.1547 -0.0771
32542ION     NA48676   9.760   0.765  10.602 -0.3268 -0.3901  0.2058
32543ION     NA48677  15.379   4.782  10.775  0.0124  0.1851 -0.0295
32544ION     NA48678  15.647   0.167  10.960 -0.0510  0.2099  0.0938
32545ION     NA48679  12.260   6.162  11.002  0.1810  0.3044 -0.0856
32546ION     NA48680  16.934  17.589  10.725  0.2246  0.0610 -0.3081
32547ION     NA48681   9.045   0.296   5.876  0.1685 -0.2226 -0.0730
32548ION     NA48682   6.683   5.168   3.379  0.3509 -0.3274 -0.1298
32549ION     NA48683  14.157   5.942   2.793  0.3483 -0.0419  0.1127
32550ION     NA48684  14.973   5.569  10.547  0.0272 -0.1028  0.1518
32551ION     NA48685   0.876  14.811  11.050 -0.0419 -0.1219  0.1280
32552ION     NA48686   5.273   0.439   5.638  0.0890 -0.2166  0.1778
32553ION     NA48687   5.660   3.099   4.260  0.1443 -0.2090 -0.0467
32554ION     NA48688   6.134  10.549   6.253 -0.1126 -0.1595  0.0401
32555ION     NA48689   3.608  11.698   6.042  0.0651  0.0051  0.0179
32556ION     NA48690   5.506  11.138  15.428 -0.1036  0.1654  0.5160
32557ION     NA48691  11.611  13.055  10.676  0.1034  0.0325 -0.0295
32558ION     NA48692  10.908   8.973  10.157  0.0630 -0.1365  0.1138
32559ION     NA48693   2.130  11.904  10.804 -0.0467  0.1236  0.1774
32560ION     NA48694   1.804   1.448   0.104  0.0880 -0.2634 -0.0014
32561ION     NA48695   0.493   1.189   5.990  0.0756  0.2749  0.2640
32562ION     NA48696   8.101   3.209  11.155 -0.3246  0.1757 -0.1411
32563ION     NA48697   8.430  14.985   5.974  0.2096  0.1484  0.0697
32564ION     NA48698  12.501   9.488  10.555  0.0319  0.0327  0.1071
32565ION     NA48699  17.751  11.279  10.817 -0.3738  0.1151  0.0219
32566ION     NA48700   7.151   8.557  10.416 -0.0820  0.4664 -0.0123
32567ION     NA48701   6.262   7.353  13.542 -0.3435  0.0668  0.0334
32568ION     NA48702  16.087   1.780   5.857 -0.1944 -0.0326 -0.1643
32569ION     NA48703   3.311   6.546  16.047 -0.2583  0.1311  0.0869
32570ION     NA48704  10.140  12.010  10.370 -0.1880  0.4608  0.0775
32571ION     NA48705   6.945  17.588  10.451 -0.4364  0.4040  0.0282
32572ION     NA48706   6.766   1.202  11.254  0.0624 -0.0628 -0.1898
32573ION     NA48707  16.819  16.802  16.302 -0.0159  0.0732  0.2186
32574ION     NA48708   9.855  10.283  10.555 -0.0220  0.0249 -0.4885
32575ION     NA48709   2.938   3.660  10.711  0.1819 -0.1215  0.2504
32576ION     NA48710  14.322  13.794  10.860 -0.0913  0.1669  0.0257
32577ION     NA48711  14.587   1.519  15.140 -0.0559  0.1480  0.1038
32578ION     NA48712  13.469   3.971  15.576  0.1606 -0.0854 -0.0283
32579ION     NA48713  14.741  16.024  12.559  0.0570  0.4119  0.1785
32580ION     NA48714   5.278   4.600  10.501 -0.2807  0.1469 -0.1796
32581ION     NA48715  14.979  14.362  10.857 -0.1337 -0.1614 -0.1702
32582ION     NA48716   0.799   6.782  10.512  0.0761 -0.2232  0.1310
32583ION     NA48717  11.920  15.565   0.382  0.0035  0.0629  0.3804
32584ION     NA48718   1.097  16.913  10.320  0.1621  0.0405 -0.1028
32585ION     NA48719   0.620   4.536   0.693  0.1538 -0.0694  0.0787
32586ION     NA48720   4.700   6.872  10.328  0.1468 -0.0889  0.1273
32587ION     NA48721  12.877   8.240  13.723  0.1443 -0.1814 -0.0898
32588ION     NA48722   2.499   9.840  10.545  0.1714  0.1371 -0.4260
32589ION     NA48723  10.479  17.954  13.610  0.2519  0.0304 -0.2148
32590ION     NA48724   8.324   4.418   4.338 -0.2823 -0.0418  0.2193
32591ION     NA48725   4.141  13.191   5.762  0.3716  0.0959 -0.1683
32592ION     NA48726   0.101  13.293  11.146 -0.1373  0.0219  0.2787
32593ION     NA48727   0.443   9.330   6.334  0.0928 -0.0641 -0.1355
32594ION     NA48728   3.845  17.166  10.539  0.0934 -0.0571  0.2593
32595ION     NA48729  12.719   1.101  10.548 -0.1364  0.1536  0.1079
32596ION     NA48730   5.694   0.969  10.695  0.0936  0.0585  0.2864
32597ION     NA48731   0.664  12.969  11.004  0.1854  0.0256 -0.4317
32598ION     NA48732  10.439   6.373  10.745  0.0129 -0.1582 -0.0094
32599ION     NA48733   9.969   8.484  10.105 -0.0317  0.0500  0.2578
32600ION     NA48734   1.898   1.530   4.225 -0.1333  0.2978 -0.0915
32601ION     NA48735  11.552   5.681  11.020 -0.2305 -0.0276  0.1049
32602ION     NA48736  14.134   5.575  10.686 -0.1621 -0.0902  0.2338
32603ION     NA48737   9.572   0.013   4.495 -0.6899  0.2840 -0.1695
32604ION     NA48738   4.419   6.941   4.414  0.0107 -0.3041 -0.3633
32605ION     NA48739  13.687   1.418  10.626  0.0771  0.0423  0.0335
32606ION     NA48740  17.635  14.398  11.048 -0.0979 -0.0776  0.1890
32607ION     NA48741  10.951  15.092   4.519 -0.3474  0.0239 -0.1329
32608ION     NA48742   4.426  10.571   5.559 -0.0942 -0.4033  0.0651
32609ION     NA48743  16.784  15.889  11.862  0.1816 -0.0054 -0.0801
32610ION     NA48744   1.445   9.999  11.925 -0.0145 -0.2249 -0.1551
32611ION     NA48745  14.603  12.585   6.382  0.0226  0.0993 -0.0125
32612ION     NA48746  14.694   6.573  10.642  0.1568  0.0927  0.2432
32613ION     NA48747   5.184  17.073  11.980  0.0991  0.2403 -0.0359
32614ION     NA48748   0.152  15.891  16.262  0.1252 -0.3879  0.1754
32615ION     NA48749   3.376  15.454  10.419 -0.0249 -0.3309 -0.2959
32616ION     NA48750   4.225   9.166  10.681 -0.1765  0.1704  0.1067
32617ION     NA48751   5.397   7.489  10.717 -0.0191  0.1939  0.0222
32618ION     NA48752   8.642  16.371   5.685 -0.0764  0.1426  0.0036
32619ION     NA48753  15.632   0.828  11.751 -0.1453  0.0822 -0.4433
32620ION     NA48754   2.260   0.752   1.083  0.2112  0.1622 -0.0914
32621ION     NA48755  14.771  16.628  10.656  0.1970 -0.0126  0.0212
32622ION     NA48756   7.167   4.162  10.897 -0.1135 -0.0390  0.1784
32623ION     NA48757   8.661   5.087  10.586  0.2502  0.2067  0.2382
32624ION     NA48758   7.499  13.323  10.626  0.0885  0.3019  0.0677
32625ION     NA48759  13.466  15.081  11.303  0.0219 -0.0302  0.0024
32626ION     NA48760   8.047   6.186   5.861  0.2584  0.0283  0.0767
32627ION     NA48761  13.807   7.376  16.344 -0.1466 -0.0953 -0.1700
32628ION     NA48762   2.609   0.655  10.497  0.2771 -0.1255 -0.2374
32629ION     NA48763  10.466   9.643  10.525 -0.1390 -0.2775  0.0959
32630ION     NA48764  16.919  10.169   5.754 -0.0989 -0.3759  0.2126
32631ION     NA48765  15.816  14.316  11.117  0.2112  0.2483 -0.0025
32632ION     NA48766  16.223  15.422   5.817 -0.0301 -0.1980 -0.0728
32633ION     NA48767   0.921   4.314   5.533  0.3217 -0.0440  0.1232
32634ION     NA48768   5.442  11.149   4.700  0.1085 -0.2472  0.0545
32635ION     NA48769   7.904   0.062  10.410 -0.0041 -0.0219 -0.2763
32636ION     NA48770   5.181   0.207  10.463  0.3762 -0.0140  0.0594
32637ION     NA48771  14.150  10.858  12.594 -0.2079 -0.0893 -0.2650
32638ION     NA48772  12.837   3.103  10.673 -0.0019  0.1706  0.0036
32639ION     NA48773  11.325   4.222  11.022  0.2595 -0.0317  0.0514
32640ION     NA48774   4.547   2.778   4.666 -0.1893 -0.1574  0.0426
32641ION     NA48775   5.041   1.149  10.635 -0.2385  0.1653  0.0392
32642ION     NA48776  11.380  16.015   0.987 -0.0327  0.0245  0.2062
32643ION     NA48777  12.541   5.607  11.244 -0.1898  0.0713 -0.1336
32644ION     NA48778   6.902  14.961  11.149  0.3581 -0.2798 -0.0345
32645ION     NA48779  15.999   2.483  10.686  0.0627 -0.0325  0.1347
32646ION     NA48780  11.160   5.872   1.692  0.0959 -0.0714  0.1037
32647ION     NA48781  12.439  15.236  12.832 -0.1052 -0.1335  0.0685
32648ION     NA48782  12.846   0.379   6.162 -0.2936 -0.2653  0.0199
32649ION     NA48783  13.549  14.796  16.357  0.0253 -0.0157  0.0252
32650ION     NA48784   7.169  10.660   6.049  0.0729 -0.2944 -0.1485
32651ION     NA48785   2.379  13.349   1.453 -0.2478 -0.1992 -0.0951
32652ION     NA48786   5.949  16.515  10.427 -0.2239  0.0712  0.3002
32653ION     NA48787   3.647   5.346  10.483  0.2134 -0.2112  0.2801
32654ION     NA48788  11.319   2.474   1.823 -0.0921 -0.3157  0.1402
32655ION     NA48789   1.366   5.952  10.490 -0.0976 -0.1638  0.1025
32656ION     NA48790  17.452   6.442  10.523  0.0047 -0.0348  0.1715
32657ION     NA48791   1.785  16.327  10.418 -0.1953  0.0614  0.2005
32658ION     NA48792   5.138  10.227   6.241  0.1576  0.1247  0.0414
32659ION     NA48793   9.141   7.066  10.671 -0.2448  0.2293  0.1687
32660ION     NA48794  17.603   9.445   6.213 -0.2259  0.2980 -0.0475
32661ION     NA48795   4.238  15.752  10.599 -0.0367  0.1502  0.0410
32662ION     NA48796  13.480  17.967   5.773 -0.0693 -0.3839 -0.5314
32663ION     NA48797  12.021   7.852   3.861 -0.0957  0.1038  0.0466
32664ION     NA48798   5.209  10.782  13.658 -0.0685  0.1685 -0.0715
32665ION     NA48799  13.866   5.468   5.775  0.0273 -0.0466  0.1289
32666ION     NA48800   6.070   3.178  10.762  0.1458  0.1423  0.1204
32667ION     NA48801  17.262  16.847   0.805 -0.1073 -0.0857  0.2812
32668ION     NA48802  16.194   9.146  10.859 -0.3505  0.0503 -0.1202
32669ION     NA48803  15.295   8.120  10.679 -0.0641 -0.0880 -0.0701
32670ION     NA48804   1.633   5.308  11.838  0.1788  0.0469 -0.0376
32671ION     NA48805   1.015   3.382   5.863 -0.0791 -0.3783  0.2413
32672ION     NA48806  13.345   8.099   5.984  0.0715 -0.1247 -0.0536
32673ION     NA48807   1.238  13.193  11.074  0.1043 -0.0028  0.0914
32674ION     NA48808  14.865  13.006  13.704 -0.2008 -0.5720 -0.0422
32675ION     NA48809   7.169   0.684  13.292  0.0410  0.1557 -0.1173
32676ION     NA48810  16.039  10.011  10.895  0.0019  0.0044  0.2565
32677ION     NA48811  16.044   7.606  10.383  0.1913 -0.0219  0.1495
32678ION     NA48812   3.620  12.408  14.085 -0.1572  0.0840  0.1426
32679ION     NA48813  10.531   2.512  10.988 -0.1108  0.2272  0.1494
32680ION     NA48814  13.855   3.668   5.962  0.3760 -0.1581  0.4106
32681ION     NA48815   0.954   0.435   0.375 -0.1000  0.4319 -0.0943
32682ION     NA48816   6.760  16.459   0.468 -0.0188  0.1012 -0.0060
32683ION     NA48817   9.901   3.442  10.974 -0.2394  0.1326 -0.1517
32684ION     NA48818   1.669  15.603   6.194  0.0532  0.0092  0.0077
32685ION     NA48819  10.499   5.962   5.793  0.2738  0.2106  0.0667
32686ION     NA48820  10.963  11.488  13.644 -0.0338  0.0938  0.2427
32687ION     NA48821   2.059   4.148  10.461 -0.0724  0.0836 -0.0493
32688ION     NA48822   3.442  15.943  16.283 -0.1270 -0.2685 -0.2166
32689ION     NA48823  12.254  14.917  10.666  0.0803 -0.2783  0.1606
32690ION     NA48824  13.634   9.748  13.498  0.0833  0.0404 -0.1174
32691ION     NA48825   4.514  11.194  10.975  0.2297  0.2241  0.1912
32692ION     NA48826  17.520  16.575  10.920  0.0776  0.2733  0.1559
32693ION     NA48827  16.640   1.092  11.999 -0.0683  0.0896 -0.3621
32694ION     NA48828   1.053  17.207   3.882  0.3828 -0.1013  0.0248
32695ION     NA48829  10.577   2.781  15.868 -0.1238 -0.0299 -0.3001
32696ION     NA48830  15.059   9.722   3.722  0.1390  0.2216  0.2862
32697ION     NA48831  15.412   3.794  16.182 -0.1394 -0.0369 -0.0071
32698ION     NA48832  13.765   9.968   5.649  0.1026 -0.2075  0.3803
32699ION     NA48833   1.431   9.212   5.904  0.2744 -0.0737 -0.3136
32700ION     NA48834  10.240   0.674   1.883  0.1561  0.2091 -0.0901
32701ION     NA48835   0.607   7.576   4.403 -0.2240 -0.0174 -0.1578
32702ION     NA48836   9.928   4.567   6.184 -0.0847 -0.2454 -0.3100
32703ION     NA48837   8.621   7.630  10.953  0.0642  0.0705 -0.0756
32704ION     NA48838  10.792   1.131  10.871 -0.0586  0.2325  0.0783
32705ION     NA48839  17.837  15.737  10.984  0.0798 -0.0620 -0.2560
32706ION     NA48840  13.885  12.154   5.985  0.0838 -0.1368 -0.0400
32707ION     NA48841  13.125   8.826  10.601 -0.0262 -0.0757  0.1730
32708ION     NA48842   7.836   4.876  10.979 -0.0577  0.0598 -0.0162
32709ION     NA48843  11.102   6.851   0.139  0.0163  0.0101 -0.2873
32710ION     NA48844  11.024  12.601  10.398 -0.4014  0.4026  0.2367
32711ION     NA48845   1.862  12.547  16.469 -0.1832 -0.2366 -0.0766
32712ION     NA48846   7.303  14.757  10.344 -0.0744 -0.2482 -0.0345
32713ION     NA48847   3.363  11.907  11.070 -0.1136 -0.3421  0.0160
32714ION     NA48848   0.491  12.044   6.242  0.0558 -0.0635  0.1205
32715ION     NA48849  16.382   0.271  10.461 -0.0638  0.0782  0.1196
32716ION     NA48850   9.447   1.666   5.997  0.1605 -0.1790  0.1557
32717ION     NA48851  11.765  13.947  10.796 -0.2334 -0.0396 -0.0945
32718ION     NA48852  14.435   7.493  10.588 -0.1272  0.0032  0.1173
32719ION     NA48853  11.612  11.086  10.288  0.0057 -0.2268  0.2162
32720ION     NA48854   0.381  16.859  10.473 -0.0265  0.1111 -0.1390
32721ION     NA48855  17.443   8.444  13.404 -0.2419 -0.1370  0.3293
32722ION     NA48856   7.916   8.960  10.347 -0.2155  0.0538 -0.2681
32723ION     NA48857  11.605   9.131  10.286 -0.0274  0.1341  0.0702
32724ION     NA48858  13.019   6.562  10.693  0.0201 -0.2968 -0.0950
32725ION     NA48859   3.681  11.135  10.766 -0.0929  0.0504  0.4190
32726ION     NA48860   3.113   2.871  10.471 -0.0351 -0.1687 -0.2898
32727ION     NA48861  12.334   2.836  10.856 -0.3676  0.2094 -0.0890
32728ION     NA48862  11.804   1.008  10.802 -0.1062  0.0060 -0.2922
32729ION     NA48863   5.550   6.787   5.986  0.0176 -0.2926 -0.3427
32730ION     NA48864  10.999  17.768   0.285  0.0646  0.1546  0.1442
32731ION     NA48865   6.947  15.064   5.677  0.3372  0.0223 -0.2784
32732ION     NA48866   7.837   3.476   0.240  0.3495  0.2768 -0.2925
32733ION     NA48867   8.106   6.439  10.650 -0.0225 -0.1188 -0.1265
32734ION     NA48868  12.985  14.591  10.703 -0.0074  0.1697 -0.0424
32735ION     NA48869   4.070   3.481   6.182  0.1286  0.2948  0.0796
32736ION     NA48870   5.225   6.906  13.579  0.3491  0.1863 -0.2428
32737ION     NA48871   5.838  13.272  10.588  0.1132 -0.1950  0.0222
32738ION     NA48872   3.348  13.826  10.989 -0.1723  0.1756 -0.0372
32739ION     NA48873   7.867   1.163  10.732  0.0881  0.0048  0.0500
32740ION     NA48874   8.907   4.872  15.327  0.2130  0.0778  0.1596
32741ION     NA48875  11.380  15.826  10.508 -0.2025  0.1097 -0.0082
32742ION     NA48876  15.205  14.675   6.430 -0.0289  0.0636 -0.0646
32743ION     NA48877  12.897  15.721   3.931 -0.2211 -0.0995  0.2266
32744ION     NA48878   9.803  12.860  10.023  0.1648  0.1927 -0.0236
32745ION     NA48879   0.546   5.744  10.674  0.0374 -0.0916 -0.3649
32746ION     NA48880   4.498   5.645  10.428 -0.1631 -0.2463  0.1231
32747ION     NA48881  13.125   2.212   1.245 -0.1410 -0.0473  0.2599
32748ION     NA48882  16.726   0.007   4.520 -0.1113 -0.0035 -0.2491
32749ION     NA48883   1.704   4.845   4.647  0.2317 -0.0523 -0.1460
32750ION     NA48884   8.259   4.135  14.654 -0.0833  0.2333  0.4588
32751ION     NA48885   4.483  12.919  10.882 -0.1816 -0.2327  0.0483
32752ION     NA48886  14.248   2.840   6.030 -0.3206 -0.0184  0.0836
32753ION     NA48887  12.709  13.601   5.907  0.4542 -0.1044  0.0159
32754ION     NA48888  16.956   2.903  10.651  0.2519  0.2286 -0.0732
32755ION     NA48889  10.024   0.788   3.226 -0.0265 -0.0270 -0.0969
32756ION     NA48890  13.887  12.015  11.069  0.1063  0.1470 -0.1867
32757ION     NA48891   8.655   6.487   6.083 -0.1632  0.0550  0.0681
32758ION     NA48892   6.478  14.452  10.633  0.0331  0.0222 -0.3399
32759ION     NA48893  16.282   9.707   6.239  0.0011  0.1360 -0.5043
32760ION     NA48894  10.964   9.056   2.424  0.0998  0.1257  0.0514
32761ION     NA48895   4.797  11.914  10.961  0.1291 -0.0641 -0.2099
32762ION     NA48896  14.892   8.825  16.453 -0.1662 -0.0974  0.2284
32763ION     NA48897   1.618   0.463   5.922  0.2604  0.5421 -0.0356
32764ION     NA48898  15.845  11.573  15.306 -0.2005  0.0434  0.0512
32765ION     NA48899   2.392   6.626  14.872  0.1612 -0.0446  0.4516
32766ION     NA48900  10.816  11.787  10.463 -0.0317 -0.0379 -0.1417
32767ION     NA48901   3.658   8.870  11.074 -0.1728 -0.2193 -0.0749
32768ION     NA48902  14.541   7.098   5.730  0.1871 -0.0275 -0.0485
32769ION     NA48903  13.716  16.719   4.762  0.0669  0.2058  0.0223
32770ION     NA48904  11.111   0.365  11.560  0.4289 -0.0694 -0.1070
32771ION     NA48905  10.373  15.619  10.453  0.0869 -0.1407  0.1445
32772ION     NA48906  16.115  11.938  11.295 -0.0689  0.0052 -0.0245
32773ION     NA48907   0.773   5.132   5.702 -0.0553 -0.1792 -0.1835
32774ION     NA48908   1.742  16.677  12.713 -0.2797 -0.1931 -0.4801
32775ION     NA48909   6.825   2.813  10.772  0.2717 -0.1766 -0.0169
32776ION     NA48910   7.126  12.547  10.229  0.1483 -0.0655  0.2586
32777ION     NA48911   1.178   2.597  10.169 -0.0905  0.1277  0.2847
32778ION     NA48912  17.469   2.206  10.526 -0.1093 -0.4378 -0.0833
32779ION     NA48913  12.391   1.886  10.735 -0.1150  0.1473 -0.0886
32780ION     NA48914   9.338  11.739  10.380  0.2696 -0.1374 -0.0750
32781ION     NA48915  17.717   5.416  10.508 -0.0558 -0.0019  0.1379
32782ION     NA48916   0.125   2.700   5.805  0.0716 -0.0006 -0.1851
32783ION     NA48917   9.572   9.357  10.517  0.0525 -0.0574  0.4861
32784ION     NA48918   9.562   2.679  10.795  0.0806 -0.0823 -0.5026
32785ION     NA48919  14.190  10.373   6.037  0.0892  0.0083 -0.2481
32786ION     NA48920  10.026  13.605  10.443 -0.0131  0.0769  0.1544
32787ION     NA48921   2.423  10.569   6.055  0.1535  0.0905  0.0358
32788ION     NA48922  11.413   1.773  10.931 -0.0640 -0.1418  0.0104
32789ION     NA48923  13.250   1.393  15.100 -0.1561 -0.0450 -0.1390
32790ION     NA48924   3.174  14.616  10.603  0.2058 -0.3425  0.1542
32791ION     NA48925   1.907  13.576  15.503  0.1196  0.3883  0.0177
32792ION     NA48926   2.796   6.803   5.607  0.2908 -0.1571 -0.0318
32793ION     NA48927   5.070  10.545  10.497 -0.0668 -0.1512 -0.0029
32794ION     NA48928   1.965   8.508  10.652  0.0102  0.0375 -0.1382
32795ION     NA48929  11.852  16.310  10.726 -0.2015 -0.3122 -0.1757
32796ION     NA48930  15.773  15.780  14.105 -0.0206  0.0810  0.1981
32797ION     NA48931   5.315  13.584  10.592  0.1136  0.0828 -0.0988
32798ION     NA48932   2.561   6.615  10.416 -0.1702 -0.0072 -0.1120
32799ION     NA48933   9.789   5.650   5.854  0.0280  0.1727  0.0430
32800ION     NA48934  16.473  13.876   1.461 -0.1003  0.1312 -0.1363
32801ION     NA48935   7.049  15.922   6.004 -0.0470  0.1394 -0.1422
32802ION     NA48936   9.949  16.387  10.601  0.0555 -0.0577  0.2404
32803ION     NA48937   0.623   5.136  10.399  0.0604  0.0668 -0.2993
32804ION     NA48938  13.446  12.469  14.133  0.0621 -0.1515  0.1882
32805ION     NA48939   2.396  11.044  10.757  0.2883  0.2427  0.0385
32806ION     NA48940   7.822  12.915  14.753  0.1380  0.3642 -0.1003
32807ION     NA48941   6.192   6.618   6.045 -0.2008  0.2222  0.0395
32808ION     NA48942   1.835   9.352  10.722  0.2165  0.1055 -0.0324
32809ION     NA48943   8.504  16.184   6.128  0.0877 -0.1625  0.0609
32810ION     NA48944   2.109  11.825   6.113  0.0268  0.0598 -0.0625
32811ION     NA48945   5.310   5.541  10.574  0.1020 -0.1101 -0.1836
32812ION     NA48946  11.872  14.776   3.064  0.0284 -0.1334  0.1359
32813ION     NA48947   3.358   4.383   5.509 -0.0382 -0.0211 -0.0109
32814ION     NA48948   6.450  12.105   0.332  0.1574  0.0996 -0.1137
32815ION     NA48949   2.488  14.307  10.884  0.1784  0.0364 -0.0233
32816ION     NA48950  17.105   1.732   0.317 -0.2047  0.2475 -0.1488
32817ION     NA48951   8.793  17.769  10.823 -0.0387  0.2096  0.1548
32818ION     NA48952   1.438  11.042  10.745 -0.1548 -0.2387 -0.1114
32819ION     NA48953   7.710   7.929  10.518  0.0990 -0.1476 -0.0812
32820ION     NA48954  16.992   5.563  10.343  0.0789  0.1825 -0.2194
32821ION     NA48955   0.839   2.837  10.852  0.4748  0.0067  0.1313
32822ION     NA48956  15.616   7.041   5.796 -0.0947 -0.0688 -0.1715
32823ION     NA48957  16.935  11.092  10.971 -0.0081  0.1157 -0.0907
32824ION     NA48958   5.421  12.296   3.211 -0.2593 -0.1152  0.0707
32825ION     NA48959   5.218   3.451  12.390 -0.1320 -0.1932  0.0911
32826ION     NA48960  10.625   3.982  16.614 -0.0768  0.0921 -0.1310
32827ION     NA48961  17.241   9.499  10.862 -0.0517  0.4514 -0.0540
32828ION     NA48962   6.225   6.341  15.336 -0.0704 -0.1740 -0.2792
32829ION     NA48963   8.073  12.185  10.317  0.0782 -0.3978  0.0444
32830ION     NA48964  15.397  10.426  14.637  0.1714 -0.0142  0.0933
32831ION     NA48965   2.421  12.666   6.097  0.4040 -0.1670  0.0883
32832ION     NA48966  10.809   4.156  10.969  0.0974  0.1392 -0.0890
32833ION     NA48967   4.035   6.299  10.440 -0.0411  0.0622  0.1859
32834ION     NA48968  16.989  17.741  11.219  0.3729  0.1168  0.1483
32835ION     NA48969   8.387   4.683  10.734  0.1596  0.0545 -0.0503
32836ION     NA48970  14.838   0.042  10.863 -0.0959  0.0528 -0.0202
32837ION     NA48971   3.472  12.040   4.583 -0.0309 -0.3651  0.4626
32838ION     NA48972   9.239  14.149  10.250  0.1266 -0.0234 -0.2800
32839ION     NA48973  12.578   0.356  14.378  0.2166 -0.0417 -0.1662
32840ION     NA48974   9.794  13.496   5.785 -0.0780 -0.2475  0.1040
32841ION     NA48975  14.098   4.816  11.096 -0.0485 -0.2051 -0.0562
32842ION     NA48976  12.164   0.612  10.522 -0.0834  0.1282  0.2883
32843ION     NA48977   7.196  12.958   1.876  0.2252  0.2561  0.1970
32844ION     NA48978  16.662  16.751  10.830  0.4545  0.0999  0.2329
32845ION     NA48979   2.207  12.973  10.908 -0.0766  0.3195  0.0509
32846ION     NA48980  15.741   1.099   6.259  0.1035 -0.0493  0.0275
32847ION     NA48981   4.941  13.249   5.365  0.2022  0.0353  0.2386
32848ION     NA48982  14.742   3.112  10.754  0.0926  0.0203 -0.1281
32849ION     NA48983   9.600   7.721  10.344 -0.0995 -0.1800  0.3572
32850ION     NA48984  15.119   2.579  10.713 -0.0560 -0.1250  0.0290
32851ION     NA48985  14.416   7.289  12.440  0.1489  0.2728  0.0350
32852ION     NA48986   4.839   3.951  10.407 -0.0730 -0.0688 -0.1311
32853ION     NA48987   3.448   0.195  10.378  0.2914 -0.1470 -0.2645
32854ION     NA48988  11.529   8.284  10.312 -0.3367  0.0901  0.2122
32855ION     NA48989  17.345   8.376  11.090 -0.1626 -0.0258 -0.3256
32856ION     NA48990   9.002  13.924  13.810 -0.2439  0.0413  0.0904
32857ION     NA48991  16.459   7.112   4.433  0.2694 -0.1327  0.0885
32858ION     NA48992  17.224  11.954  10.999  0.0768  0.0374  0.1303
32859ION     NA48993   7.891  17.513  10.438 -0.2995 -0.1916 -0.1293
32860ION     NA48994  17.047  15.337   0.473 -0.1878  0.1164 -0.0731
32861ION     NA48995   4.960  16.096   5.979  0.2217 -0.1171  0.0514
32862ION     NA48996  15.679   7.240  10.423 -0.1225  0.1816 -0.0381
32863ION     NA48997   0.282   4.414  10.365  0.1631 -0.0432  0.1305
32864ION     NA48998   3.459   9.638  10.609  0.0050 -0.0007  0.1242
32865ION     NA48999  15.312   3.969   0.484  0.0545 -0.0863  0.3589
32866ION     NA49000   6.237  11.017  10.474 -0.0473  0.0347 -0.1085
32867ION     NA49001   5.639  11.878  10.678  0.1150 -0.4136 -0.0100
32868ION     NA49002   8.681   0.699  10.459 -0.0180  0.3936 -0.1130
32869ION     NA49003   8.540  16.351  10.505  0.0782 -0.1401  0.1190
32870ION     NA49004  17.558   8.674  10.726 -0.0256  0.0423 -0.0902
32871ION     NA49005   0.825   7.502   6.129  0.1546 -0.0919 -0.0692
32872ION     NA49006   7.518   2.997   3.363  0.1192  0.1352 -0.0930
32873ION     NA49007   7.717   3.068   1.744 -0.5024 -0.0197 -0.2112
32874ION     NA49008   6.377   8.162  10.496  0.0285 -0.1891 -0.1414
32875ION     NA49009  12.849  15.915  14.687 -0.1650 -0.1553 -0.0284
32876ION     NA49010   1.846   4.016   2.479 -0.1917 -0.2284 -0.1736
32877ION     NA49011  14.223   5.053   5.716 -0.0681 -0.1063  0.1282
32878ION     NA49012   0.790  16.146  10.834  0.1243  0.0306  0.1957
32879ION     NA49013   0.521   9.874  11.312  0.2293  0.0699 -0.0384
32880ION     NA49014   9.137   9.338  16.393 -0.0365  0.1432 -0.0705
32881ION     NA49015  14.174  12.760  10.724 -0.0331  0.0346 -0.1014
32882ION     NA49016   6.707   9.763   5.912  0.1758 -0.3216  0.0055
32883ION     NA49017   7.278   7.456   5.979 -0.2483 -0.0106 -0.2333
32884ION     NA49018  15.111  10.632   4.313  0.0822  0.0701  0.0323
32885ION     NA49019   2.986   4.591   5.939 -0.1220  0.0581 -0.4120
32886ION     NA49020  14.371   8.145  10.435 -0.0827 -0.0663 -0.0197
32887ION     NA49021   6.695   9.725  16.025 -0.0195 -0.1295 -0.2826
32888ION     NA49022  10.528  14.413  10.349 -0.0801  0.0632  0.1336
32889ION     NA49023   7.706   6.847   6.023 -0.2842  0.1198 -0.2570
32890ION     NA49024  12.690   3.078   5.069 -0.0532  0.1888 -0.2082
32891ION     NA49025   9.224   8.513  10.388  0.0512 -0.1594 -0.0911
32892ION     NA49026   3.448  14.537   3.363 -0.1962  0.0995 -0.1188
32893ION     NA49027  12.315  15.957   6.297 -0.2065 -0.0563 -0.1668
32894ION     NA49028   3.708  16.356  10.859  0.0257 -0.0078  0.0432
32895ION     NA49029   8.932   3.231  10.745  0.0082  0.0692 -0.0219
32896ION     NA49030  15.729   6.910   3.966 -0.1956  0.0869  0.2314
32897ION     NA49031   5.326  17.320  10.492 -0.2515  0.2809 -0.2336
32898ION     NA49032  10.265   9.937  14.378  0.0567  0.0748  0.0075
32899ION     NA49033   8.113   5.595  10.739  0.3124  0.3426  0.0659
32900ION     NA49034  10.730  16.038  12.169 -0.0974 -0.1558 -0.1275
32901ION     NA49035  12.008  12.413  10.554 -0.1581 -0.1582 -0.0929
32902ION     NA49036   8.907  12.399  16.197 -0.1790  0.2407  0.0804
32903ION     NA49037  14.759   8.844  10.589 -0.0759  0.2154  0.0979
32904ION     NA49038   2.589   1.409  10.302  0.1117 -0.4125 -0.0474
32905ION     NA49039   9.837  17.086   5.979  0.1869  0.0804 -0.0681
32906ION     NA49040   6.972  13.677   5.984  0.0127 -0.0840  0.1551
32907ION     NA49041  17.150   1.571   5.016  0.0089  0.0455  0.1697
32908ION     NA49042  11.639  15.703   6.115  0.2165 -0.0094 -0.0759
32909ION     NA49043   8.430  11.225  10.210 -0.0098  0.0964  0.0478
32910ION     NA49044   3.932   4.349   6.047  0.2448 -0.1484 -0.0934
32911ION     NA49045   8.101   9.873  13.603 -0.1705  0.1786  0.1708
32912ION     NA49046  17.570   0.138  10.607  0.1678  0.1658 -0.0352
32913ION     NA49047   6.698   9.733  10.508  0.2058  0.0442 -0.0947
32914ION     NA49048  13.278   2.338  10.830  0.2578 -0.1255 -0.0677
32915ION     NA49049  15.343   3.254   4.124 -0.1546  0.0408  0.0880
32916ION     NA49050  16.525   6.393  10.581  0.0053 -0.2225 -0.0327
32917ION     NA49051  11.239   3.519   5.945 -0.0539  0.1003 -0.0447
32918ION     NA49052   9.189  11.756  14.289  0.2520 -0.0222  0.1627
32919ION     NA49053   0.217   0.848  10.571  0.2964  0.0888  0.0126
32920ION     NA49054  13.301  11.035   1.816 -0.1996 -0.1712  0.3853
32921ION     NA49055  13.199  17.406  10.618 -0.2544 -0.2285 -0.1352
32922ION     NA49056  13.824   4.780  16.066  0.0565 -0.3945 -0.0212
32923ION     NA49057  13.121   5.895  10.648 -0.1075  0.1122  0.0569
32924ION     NA49058   7.851  14.128  10.325 -0.0560  0.0605 -0.0032
32925ION     NA49059   6.737  13.606  10.271 -0.1767 -0.2996  0.1325
32926ION     NA49060  12.789  16.632  10.885  0.0407 -0.1840 -0.0145
32927ION     NA49061   7.855  15.535  10.367  0.1408  0.0308  0.2485
32928ION     NA49062  12.032  10.583  10.691 -0.2852 -0.0476  0.0606
32929ION     NA49063   1.764  13.988  16.380  0.1063 -0.0564 -0.1270
32930ION     NA49064   1.399  10.742   6.229 -0.0598 -0.0927  0.1435
32931ION     NA49065  11.883   2.654  10.979  0.0500  0.1869 -0.2779
32932ION     NA49066  16.909   6.941   5.230  0.2389  0.0118  0.1105
32933ION     NA49067   9.592  14.793  10.604  0.3844 -0.2743  0.0484
32934ION     NA49068   6.135   5.815  10.688  0.1517  0.0680  0.0461
32935ION     NA49069   1.463   3.578  10.230 -0.3598 -0.0206  0.1517
32936ION     NA49070   2.815   8.772  10.711  0.0448 -0.0505 -0.1183
32937ION     NA49071  14.855   3.852  10.873 -0.1287 -0.1216 -0.0410
32938ION     NA49072   5.454  11.297  10.636 -0.2104  0.1814  0.1401
32939ION     NA49073   8.804   1.698   4.689  0.1108 -0.2163 -0.0669
32940ION     NA49074   3.584  12.528  10.807  0.2012 -0.1066  0.0926
32941ION     NA49075   7.781   6.478   0.589  0.3108  0.0434  0.0547
32942ION     NA49076  13.804   7.463  13.790 -0.0542 -0.1586 -0.1549
32943ION     NA49077   4.908  14.409  11.696 -0.1773 -0.0073 -0.0929
32944ION     NA49078   8.434  17.400  10.519  0.2496  0.2568 -0.0251
32945ION     NA49079   8.571   1.494  10.459 -0.0483  0.0007 -0.2676
32946ION     NA49080  16.787  14.399  11.169 -0.2489 -0.0921  0.2023
32947ION     NA49081  16.540   4.464  10.400  0.3236  0.1085 -0.2137
32948ION     NA49082  15.119   6.839  10.478  0.5062 -0.2643  0.1204
32949ION     NA49083   0.089   9.226  10.752  0.0722 -0.0983 -0.0435
32950ION     NA49084   6.488  11.928  10.526 -0.4391  0.0805 -0.1314
32951ION     NA49085   7.580   9.518  10.641  0.2472  0.0394  0.0416
32952ION     NA49086   8.552   7.311   1.684  0.0912  0.5275 -0.0637
32953ION     NA49087  17.790   8.470   3.640 -0.2750 -0.0941 -0.3273
32954ION     NA49088   6.679   0.109   0.811 -0.1201  0.1321 -0.1380
32955ION     NA49089  17.899   7.928  10.567 -0.0601 -0.0311  0.2417
32956ION     NA49090   0.699  16.521  11.690 -0.2274 -0.3026  0.0221
32957ION     NA49091  12.902  10.420  10.534 -0.0783  0.0879 -0.1503
32958ION     NA49092  14.665  15.215  10.762  0.0745  0.2206  0.3380
32959ION     NA49093  10.499  11.043  10.346  0.0158  0.0924  0.2644
32960ION     NA49094   1.794   5.085  10.402 -0.0311  0.3229  0.1766
32961ION     NA49095   5.600  14.421  10.576  0.0058  0.0985 -0.0854
32962ION     NA49096   2.506   2.342  10.446  0.3832 -0.0008  0.0876
32963ION     NA49097  11.304   8.564  14.301 -0.1411  0.0713  0.0677
32964ION     NA49098  16.856  17.405  14.603 -0.1480 -0.1173  0.0088
32965ION     NA49099   1.727   7.526   6.025  0.3506 -0.1773  0.0341
32966ION     NA49100  10.600  15.278  13.737  0.3676  0.1704  0.0851
32967ION     NA49101  14.117   2.415  10.931  0.1751  0.3130 -0.1318
32968ION     NA49102   8.450   8.004   5.893  0.2311 -0.0201  0.1098
32969ION     NA49103  13.929   3.468  10.643  0.2138  0.0054 -0.0651
32970ION     NA49104  12.315  13.969  10.686  0.1508 -0.1119 -0.0552
32971ION     NA49105  11.062  17.402  10.512  0.0797 -0.0808 -0.0706
32972ION     NA49106   5.963   0.155  10.629  0.0734 -0.2744 -0.1206
32973ION     NA49107  17.367   3.844  10.393 -0.1570 -0.0462 -0.1940
32974ION     NA49108  10.817   6.664  10.920 -0.2326  0.0473 -0.2596
32975ION     NA49109  14.976   2.287   6.056 -0.1748  0.1445  0.2143
32976ION     NA49110   1.153   0.721  10.443 -0.1660 -0.2115  0.1217
32977ION     NA49111  11.900   1.700  15.732 -0.1539  0.1941 -0.1466
32978ION     NA49112  12.176   7.563  10.538  0.1330 -0.1648  0.2446
32979ION     NA49113  12.529   7.410   0.142  0.1400  0.0888 -0.2681
32980ION     NA49114   9.615  16.714  13.796  0.0156 -0.1329 -0.2246
32981ION     NA49115   6.108  10.521  10.541  0.1885 -0.2077  0.0273
32982ION     NA49116   6.277  12.278  15.011 -0.0644 -0.2759 -0.1689
32983ION     NA49117   3.407   4.673  14.456  0.1247  0.0062 -0.3535
32984ION     NA49118   8.875   6.100  10.683  0.1135  0.2061 -0.0118
32985ION     NA49119   2.718  16.095  10.437  0.0398 -0.2565  0.1171
32986ION     NA49120  14.969   5.193   5.821  0.0601  0.0404  0.0179
32987ION     NA49121   6.305   2.412  15.435 -0.1604 -0.1484  0.3052
32988ION     NA49122   8.088   2.151  10.877 -0.0350  0.0195 -0.0488
32989ION     NA49123   9.509   0.267  10.496  0.1617  0.0199  0.0522
32990ION     NA49124   2.699  17.969  15.019  0.2717  0.1930  0.0130
32991ION     NA49125   1.157   2.144   0.643  0.0715 -0.1558  0.0713
32992ION     NA49126  15.878   4.157  10.329 -0.0530 -0.2598 -0.1506
32993ION     NA49127  12.593  15.837  10.619  0.1868 -0.1571  0.2654
32994ION     NA49128  13.108   5.661   4.266  0.1152  0.3194  0.1698
32995ION     NA49129  15.140   9.633  11.025 -0.0919  0.2380 -0.2512
32996ION     NA49130   7.571  17.327   1.080  0.2920  0.3963 -0.2929
32997ION     NA49131  10.424  10.232   5.926  0.1286 -0.2629 -0.0924
32998ION     NA49132   6.922   0.982  10.742 -0.1024 -0.0855  0.0495
32999ION     NA49133   8.390  15.472  10.342  0.0405  0.2048  0.2466
33000ION     NA49134  12.040   1.882  12.680  0.1168 -0.0012  0.6217
33001ION     NA49135  16.193  11.659   0.386 -0.1555  0.2564  0.1788
33002ION     NA49136   7.099   1.901  10.888  0.1439 -0.0396 -0.0134
33003ION     NA49137  14.766  12.114  10.796  0.1596 -0.1900  0.1028
33004ION     NA49138  15.764  15.138   1.522  0.0231 -0.1252 -0.1355
33005ION     NA49139  11.459  16.947  11.311 -0.0774 -0.1818  0.3135
33006ION     NA49140   4.192   0.612  10.468 -0.1631  0.2295  0.0305
33007ION     NA49141   6.692   0.840   5.942 -0.0691 -0.3148  0.1412
33008ION     NA49142   0.863   9.105   3.270 -0.1829 -0.2955  0.1088
33009ION     NA49143  10.540   5.563  11.043  0.1880 -0.2159 -0.2114
33010ION     NA49144   3.732   4.080   3.488  0.2867 -0.0374 -0.2108
33011ION     NA49145  12.779  12.937  10.909 -0.0460 -0.1054 -0.1427
33012ION     NA49146  14.381   8.898   3.088 -0.1255 -0.1099 -0.0701
33013ION     NA49147   8.804  13.753  12.656 -0.2752  0.2828  0.0462
33014ION     NA49148  14.129  11.531   0.744 -0.2513  0.0253  0.0560
33015ION     NA49149   6.850   5.189  10.900 -0.4516  0.2930 -0.3323
33016ION     NA49150   7.560   7.042  10.886  0.2935 -0.0944  0.0359
33017ION     NA49151  16.309   8.178   5.977  0.0380 -0.1885  0.1521
33018ION     NA49152   0.067  15.255  11.178 -0.2030 -0.0274 -0.1466
33019ION     NA49153   8.933   1.645   3.574 -0.0044  0.0395 -0.1336
33020ION     NA49154   9.568   2.024   1.046  0.0336  0.1136  0.0917
33021ION     NA49155   3.787  17.171  15.892  0.1985  0.0146 -0.1834
33022ION     NA49156   7.246  17.052   4.724  0.2332  0.1737  0.2006
33023ION     NA49157   1.380   2.269  12.120 -0.3746 -0.0737  0.0261
33024ION     NA49158   5.125   0.641  15.024  0.1265  0.0636  0.1864
33025ION     NA49159  14.317  17.573  10.828  0.2873 -0.3000  0.0764
33026ION     NA49160  10.899   3.252  11.075  0.0077 -0.0400 -0.2287
33027ION     NA49161  11.450  10.106  10.341  0.3257  0.1278 -0.0525
33028ION     NA49162   6.204   7.297  10.531 -0.1652 -0.0080 -0.0726
33029ION     NA49163   2.343  11.407  11.872  0.0126  0.2511  0.0036
33030ION     NA49164  11.342   6.242   6.090  0.0164  0.1745 -0.0069
33031ION     NA49165  16.746  12.864  10.918 -0.1903  0.0720  0.0458
33032ION     NA49166   2.858  11.734   2.445 -0.2545 -0.1485  0.1197
33033ION     NA49167   2.002   0.430   5.634  0.0909 -0.1477  0.2318
33034ION     NA49168   8.572   6.483  11.732  0.3032 -0.1427 -0.0057
33035ION     NA49169   4.666   1.063   0.626 -0.1751  0.1871  0.1673
33036ION     NA49170  11.950  15.468  11.161  0.0320 -0.0260 -0.1202
33037ION     NA49171  12.073   3.719  10.802  0.0162 -0.2453  0.3082
33038ION     NA49172  17.165  15.157  11.018  0.0473  0.0352  0.0249
33039ION     NA49173   8.818  13.223  10.063 -0.1903  0.2294 -0.0796
33040ION     NA49174   5.855   9.326  10.931 -0.1887 -0.0404 -0.0375
33041ION     NA49175   6.313   4.025  10.897  0.1910 -0.3315  0.1410
33042ION     NA49176  15.550  17.119  16.421 -0.0640  0.2732 -0.0516
33043ION     NA49177   3.484   0.873  13.615  0.1356  0.2206  0.0874
33044ION     NA49178   4.890  15.907  10.742 -0.2080 -0.1471  0.1232
33045ION     NA49179   2.629   5.225  10.743 -0.1581 -0.1209 -0.0052
33046ION     NA49180  16.467  13.462  11.102 -0.1395 -0.0072 -0.1717
33047ION     NA49181   0.103   7.526   3.173 -0.2162  0.1632  0.0023
33048ION     NA49182   1.434   6.701  10.447 -0.2298 -0.1272  0.1741
33049ION     NA49183  11.827  12.646  13.876  0.1409  0.1616  0.0870
33050ION     NA49184   9.656  17.324  10.478  0.0517  0.0762 -0.3558
33051ION     NA49185  12.756   7.048  10.886  0.0667 -0.0276  0.1814
33052ION     NA49186  14.566  13.479   6.366 -0.2728 -0.1883  0.1118
33053ION     NA49187   5.731  15.869   6.057 -0.1040 -0.0750  0.1381
33054ION     NA49188   9.603   7.096  13.868 -0.0601 -0.2762  0.1818
33055ION     NA49189  10.544   7.698  10.628 -0.1099  0.1464 -0.2137
33056ION     NA49190  12.420   8.475  10.598 -0.1478 -0.2585  0.1020
33057ION     NA49191  13.905  14.499  10.896  0.0036 -0.0322  0.2762
33058ION     NA49192   5.715  12.320  10.988  0.0594  0.1835 -0.0128
33059ION     NA49193   4.292   4.468  10.652  0.1935  0.0963  0.0029
33060ION     NA49194   1.645  12.373   5.676  0.0055 -0.1138  0.1910
33061ION     NA49195  12.750  11.917   6.033  0.1103  0.1324 -0.0696
33062ION     NA49196  16.540  15.579   4.151  0.1677 -0.1393  0.0320
33063ION     NA49197   6.941  15.551  10.451 -0.2562  0.2426 -0.3260
33064ION     NA49198   9.633  10.583   5.665 -0.4534 -0.1008  0.0242
33065ION     NA49199   9.953   1.846   6.147 -0.0056 -0.0554  0.4233
33066ION     NA49200   0.721   9.772   6.282 -0.2086 -0.0635 -0.0300
33067ION     NA49201   4.900   3.229   6.006  0.1308 -0.0432 -0.1642
33068ION     NA49202  12.194   9.407   0.789 -0.1442 -0.0793  0.2161
33069ION     NA49203  11.431   9.964  13.123 -0.0255  0.2279  0.2455
33070ION     NA49204  13.385   8.293  10.574  0.0718  0.2735 -0.4128
33071ION     NA49205   3.809   7.208  15.387  0.0005 -0.0744 -0.0748
33072ION     NA49206   9.270   2.474   6.233  0.0359 -0.0844 -0.0780
33073ION     NA49207  13.651  12.914  10.912 -0.0414  0.1228  0.2073
33074ION     NA49208  11.837   4.573   6.077 -0.0475 -0.1250  0.2651
33075ION     NA49209   3.305   2.041  10.545 -0.0358  0.2264 -0.0274
33076ION     NA49210  11.648  16.543   2.990  0.1833 -0.1888  0.0117
33077ION     NA49211  14.654   6.443  12.613 -0.0017  0.1339  0.1992
33078ION     NA49212  11.881   1.418   6.079 -0.1640  0.1284  0.1330
33079ION     NA49213  15.489  15.116  11.035 -0.0424  0.1460 -0.0170
33080ION     NA49214   4.095  13.323  10.813  0.2868 -0.3805 -0.2501
33081ION     NA49215   8.504  13.818  10.248 -0.1107  0.1019 -0.1163
33082ION     NA49216   5.898   3.936  10.676  0.1954  0.1479 -0.1299
33083ION     NA49217  13.355   5.227  10.763 -0.1190  0.0290  0.0821
33084ION     NA49218   1.824   0.220  10.601  0.0782  0.1500  0.2331
33085ION     NA49219   4.121   1.495  10.485 -0.0112  0.0571  0.0468
33086ION     NA49220  17.541  16.109   6.013 -0.1260 -0.4235 -0.1104
33087ION     NA49221  14.163  15.831  10.684  0.2994 -0.1561  0.0980
33088ION     NA49222  11.186   5.075  10.957  0.1104  0.2380  0.0546
33089ION     NA49223  16.460   0.795  10.564  0.0161 -0.4030  0.2034
33090ION     NA49224   2.979  17.845  10.330  0.2142  0.3281  0.1332
33091ION     NA49225   5.462  11.558   1.946  0.1354  0.0578  0.3465
33092ION     NA49226  16.676   9.727  14.506  0.0018 -0.2101  0.0904
33093ION     NA49227   5.326   8.447  10.673  0.2431 -0.1550 -0.1064
33094ION     NA49228   5.803   4.831  10.677 -0.1866 -0.0132 -0.3104
33095ION     NA49229   4.626   3.107  10.641 -0.1527 -0.1955  0.1576
33096ION     NA49230   2.111   5.882  10.679 -0.0285  0.0851  0.1315
33097ION     NA49231  16.802   3.976  16.185  0.1472 -0.0853  0.0242
33098ION     NA49232   9.012   2.974  12.605  0.1581 -0.0913 -0.0015
33099ION     NA49233   4.678  13.974  10.911  0.0888 -0.1859  0.2425
33100ION     NA49234  15.691   6.280  10.697  0.2170 -0.1465  0.1372
33101ION     NA49235  14.375   9.995  10.729 -0.3404  0.2076 -0.3302
33102ION     NA49236  16.720   1.811  10.518  0.1033  0.0258  0.1422
33103ION     NA49237   0.785   7.773  10.859 -0.1190  0.1243 -0.1177
33104ION     NA49238   3.614   6.196  10.688 -0.1739  0.5548  0.2634
33105ION     NA49239   4.647   4.618   5.686  0.0216 -0.0856  0.0290
33106ION     NA49240   8.936   1.179  10.613 -0.1082  0.2443  0.2263
33107ION     NA49241  17.307   4.660  10.345  0.1172  0.2963 -0.1712
33108ION     NA49242   4.706  16.665  10.700  0.3114  0.2089 -0.1493
33109ION     NA49243  10.790  14.223   0.508 -0.0780  0.1428 -0.0335
33110ION     NA49244  14.551   1.562  10.662  0.1453  0.1585  0.2381
33111ION     NA49245  16.089  14.487   5.996 -0.2335  0.0124  0.3550
33112ION     NA49246   2.798   0.284   5.015  0.1069 -0.0525 -0.0584
33113ION     NA49247  12.528  11.355  10.463  0.0643 -0.3390 -0.1087
33114ION     NA49248   0.395  17.814  10.680  0.1734  0.0449 -0.0149
33115ION     NA49249   2.400  13.231   6.262 -0.0937 -0.3120 -0.2930
33116ION     NA49250   3.481   1.132  10.380 -0.1434  0.0013 -0.1803
33117ION     NA49251   4.221   0.783   6.037 -0.1363  0.3475  0.3214
33118ION     NA49252  14.111   6.752   1.535 -0.2267  0.3528 -0.0366
33119ION     NA49253  15.889  11.209  10.988 -0.2209 -0.1139 -0.2307
33120ION     NA49254   6.480  15.693   6.169  0.0503  0.0326  0.2438
33121ION     NA49255   1.249  12.205  11.089  0.0121 -0.1899  0.1212
33122ION     NA49256   3.372   7.053  10.561 -0.0271  0.1619 -0.1397
33123ION     NA49257   0.269   2.654  10.498  0.2322 -0.3040 -0.3984
33124ION     NA49258   6.965   3.389  10.781  0.0111  0.1164 -0.0977
33125ION     NA49259  12.609  13.849   2.477 -0.0186  0.2841 -0.0318
33126ION     NA49260  17.543   1.467  10.541  0.2061 -0.0929 -0.0022
33127ION     NA49261  14.363  13.999   6.348  0.3406  0.1244  0.0345
33128ION     NA49262  15.268   1.916   5.922 -0.0825  0.0299 -0.0473
33129ION     NA49263  14.617   7.424  15.605 -0.2482  0.0346 -0.2282
33130ION     NA49264  11.406   7.230  10.619 -0.2009 -0.0237  0.2388
33131ION     NA49265   6.633   3.817   1.884 -0.3105  0.2218  0.0839
33132ION     NA49266   1.741   1.545  10.472  0.0176  0.1263  0.0960
33133ION     NA49267   6.162   2.097  10.836 -0.1105  0.1613  0.1268
33134ION     NA49268   1.957   8.945   5.404 -0.0881  0.0814 -0.2697
33135ION     NA49269  15.598   0.470   4.883  0.1961 -0.0328 -0.1374
33136ION     NA49270  10.137   7.352  10.562  0.1250  0.0141  0.0595
33137ION     NA49271  13.902  12.918   6.032 -0.3372 -0.0202 -0.0112
33138ION     NA49272   6.091  17.165  15.542  0.1297 -0.2403  0.2251
33139ION     NA49273   2.437   7.969   0.611 -0.1700 -0.4790 -0.2518
33140ION     NA49274   3.257  13.353  10.877  0.0438 -0.1078  0.4934
33141ION     NA49275  15.685   3.224  10.516 -0.3593 -0.0216  0.2599
33142ION     NA49276   6.941   9.754  13.851  0.1165  0.3400 -0.1253
33143ION     NA49277   5.479  17.490   5.810 -0.1969  0.3487  0.1228
33144ION     NA49278  17.265   0.550  10.549  0.0790  0.0212  0.1486
33145ION     NA49279  17.805  17.308  10.808  0.1783 -0.0752  0.1157
33146ION     NA49280  14.480  11.410  10.865 -0.0048 -0.1124  0.0114
33147ION     NA49281   8.567  16.185  15.195 -0.0003  0.1280 -0.2654
33148ION     NA49282   6.064   9.012   5.486 -0.0589 -0.1096 -0.0059
33149ION     NA49283  16.823  15.431   5.086  0.1432 -0.1726  0.2791
33150ION     NA49284  17.310  12.824  11.058 -0.1538  0.1717  0.1460
33151ION     NA49285   8.312  14.996  15.321  0.1735 -0.0911 -0.2067
33152ION     NA49286   1.752  13.818   6.257  0.0677  0.1237  0.3144
33153ION     NA49287  16.156  16.051  11.124  0.1822 -0.0737  0.0107
33154ION     NA49288  11.167   0.366  10.430  0.1505  0.3206 -0.2879
33155ION     NA49289   8.123  16.039  15.898 -0.1660  0.2130  0.0265
33156ION     NA49290   3.638  11.474  13.976  0.1870 -0.1861  0.0827
33157ION     NA49291  13.752   9.928   4.264 -0.0200 -0.3622 -0.1958
33158ION     NA49292  10.437  12.866   1.616 -0.0704  0.1121 -0.1986
33159ION     NA49293  13.576   0.379  10.658  0.1867  0.1624 -0.2841
33160ION     NA49294   4.159   2.480  10.783  0.0718  0.1512 -0.0508
33161ION     NA49295   6.208   0.098   5.660 -0.0925 -0.0231 -0.0847
33162ION     NA49296   7.801   5.495   5.368  0.2716 -0.3201 -0.0171
33163ION     NA49297  11.262  13.973  10.769 -0.1992 -0.5253  0.3096
33164ION     NA49298   0.078   5.400   4.111  0.0212 -0.0691 -0.2477
33165ION     NA49299   6.642   0.297  10.926  0.0036 -0.1902  0.1928
33166ION     NA49300  14.747   7.821  12.993 -0.0838  0.1061  0.2165
33167ION     NA49301  13.069   2.980   3.716 -0.1404  0.2622 -0.0655
33168ION     NA49302   9.117  10.842  10.520  0.2057 -0.0966  0.2128
33169ION     NA49303  11.070   8.762   5.579  0.0852  0.0634  0.0121
33170ION     NA49304   2.211  10.550  10.696  0.0296 -0.0320 -0.3241
33171ION     NA49305  10.868  10.336  15.186  0.0935  0.1104  0.1877
33172ION     NA49306   9.540  15.702  10.671 -0.1318 -0.2930 -0.0894
33173ION     NA49307   4.498  14.858   6.324  0.1605  0.2592 -0.2179
33174ION     NA49308  14.933   1.816  13.617  0.1074  0.1351 -0.0231
33175ION     NA49309   6.901   6.969  10.879  0.0837  0.0492 -0.1993
33176ION     NA49310   0.136   7.180  10.661 -0.1325 -0.1255  0.0170
33177ION     NA49311   4.440  17.723  10.645  0.0269  0.0680  0.1794
33178ION     NA49312   6.575   6.441  10.646 -0.0863  0.1215 -0.1207
33179ION     NA49313  16.946  16.008  11.100  0.3695  0.3178 -0.0075
33180ION     NA49314  15.856   5.482  10.442 -0.3906  0.1181  0.1747
33181ION     NA49315  12.424  11.846   4.066  0.0312  0.0729 -0.0565
33182ION     NA49316   7.538   0.346  10.560 -0.0769  0.3779  0.0495
33183ION     NA49317  14.025   9.118  10.722  0.1947  0.2216 -0.2939
33184ION     NA49318   4.225  16.416   5.870  0.1825  0.0701 -0.0189
33185ION     NA49319   1.563   7.226  16.439 -0.0972  0.0505  0.0452
33186ION     NA49320  15.558   7.812   1.909  0.0891  0.4633 -0.0711
33187ION     NA49321  10.980  13.566  10.388  0.1083 -0.0052  0.0277
33188ION     NA49322   2.610  11.789   1.506  0.2572 -0.1342  0.1480
33189ION     NA49323  13.975  15.510  15.291 -0.2248 -0.0035 -0.0490
33190ION     NA49324   0.811  10.400  10.694  0.2174 -0.1562 -0.0782
33191ION     NA49325  11.368  14.883  10.645  0.0917  0.0764  0.0952
33192ION     NA49326   5.978   7.234  12.519 -0.1158  0.1790 -0.0181
33193ION     NA49327   9.685   5.844  10.887  0.1968  0.5126 -0.0252
33194ION     NA49328   5.493   1.388   5.924  0.0670 -0.2423 -0.7081
33195ION     NA49329   0.839   2.883  10.364  0.1334  0.0948 -0.3328
33196ION     NA49330   9.934  11.506   1.929 -0.0049  0.0371 -0.0213
33197ION     NA49331  12.457  13.495   4.324  0.0390  0.1267  0.1249
33198ION     NA49332   1.460   8.383  10.825 -0.2062 -0.0837  0.2860
33199ION     NA49333  16.920   7.601  10.358 -0.2343  0.1694 -0.1332
33200ION     NA49334   5.050   9.706  10.677 -0.0125 -0.1500  0.1062
33201ION     NA49335   4.364  12.200  10.915 -0.1108  0.1452 -0.0175
33202ION     NA49336   5.534   7.480   3.288  0.2118 -0.0035 -0.1112
33203ION     NA49337  17.352   3.257  13.008 -0.0115 -0.0977 -0.1835
33204ION     NA49338   3.914   3.524  10.594  0.1085 -0.3098  0.2729
33205ION     NA49339   5.334   4.804   4.443  0.1176 -0.0562 -0.1204
33206ION     NA49340   9.497   7.840   5.885  0.0810  0.0417  0.1061
33207ION     NA49341   0.007   0.589  12.582 -0.1076  0.1501 -0.0661
33208ION     NA49342   0.352   1.969  10.479 -0.0940 -0.0274  0.4363
33209ION     NA49343  13.166  13.024   0.764  0.2937 -0.2218  0.0561
33210ION     NA49344  10.161   4.984  10.990  0.0710  0.1597  0.2797
33211ION     NA49345   1.142   1.989   6.179  0.1141 -0.0314 -0.2594
33212ION     NA49346  17.691   2.278  14.269  0.0074  0.0898 -0.3966
33213ION     NA49347   1.551  15.403  10.688  0.4339  0.1783  0.0293
33214ION     NA49348  15.135   2.173  11.229  0.0136 -0.4146 -0.0269
33215ION     NA49349   2.369   1.848  15.120  0.0572  0.1045 -0.1823
33216ION     NA49350  13.190  13.719  11.625 -0.0437  0.1886 -0.3341
33217ION     NA49351   7.401  10.336  10.451 -0.1085 -0.2581 -0.0179
33218ION     NA49352  16.675   9.948  10.680 -0.0792  0.1452  0.1487
33219ION     NA49353   6.104   2.572   3.754  0.1991  0.1521  0.2987
33220ION     NA49354   9.649   6.402  14.919 -0.0812 -0.0590 -0.2356
33221ION     NA49355  12.041   4.583  10.877 -0.0176 -0.2732  0.0336
33222ION     NA49356   9.181   0.938  11.570  0.1107 -0.0090 -0.0969
33223ION     NA49357  14.243   0.713  10.635  0.1056  0.2358  0.2163
33224ION     NA49358  17.623  14.943  14.267 -0.0258 -0.2266 -0.0474
33225ION     NA49359   3.449   4.415  15.446 -0.1088 -0.0370 -0.0357
33226ION     NA49360  16.782  12.688  12.007 -0.2142  0.3366 -0.2481
33227ION     NA49361  15.422  11.491  10.886  0.0421  0.2298  0.1214
33228ION     NA49362  12.067  17.172  10.651  0.2283  0.0310 -0.0351
33229ION     NA49363  13.036   3.408   6.017  0.2968 -0.0506 -0.0141
33230ION     NA49364  13.650   7.330  10.589  0.2424 -0.1543  0.2537
33231ION     NA49365   4.388   5.496  10.901 -0.2000  0.0293 -0.1386
33232ION     NA49366   1.030   3.617  11.113 -0.1010  0.0386  0.1089
33233ION     NA49367   2.267   3.241  10.480  0.2123 -0.0156 -0.2498
33234ION     NA49368  13.669  16.753  10.668 -0.0003 -0.0342 -0.1282
33235ION     NA49369   2.982  17.623   5.806  0.0826 -0.1156  0.0064
33236ION     NA49370   7.262  11.242  10.153  0.2460  0.3222  0.0476
33237ION     NA49371   0.873   7.598   2.000 -0.0982 -0.0985  0.2929
33238ION     NA49372  17.370  13.656  10.876 -0.0870 -0.1140  0.1786
33239ION     NA49373  15.142   1.006  10.618  0.0610 -0.3024 -0.4476
33240ION     NA49374   7.891   0.182   2.771  0.2781 -0.1773  0.2179
33241ION     NA49375  13.964   4.811   2.705 -0.0150 -0.0374  0.3341
33242ION     NA49376   9.207   4.135  10.864  0.2570 -0.2959 -0.1876
33243ION     NA49377  10.628  12.867  10.193 -0.0799  0.0875 -0.0474
  17.98056  17.98056  16.72399
